 Gaussian 09, Revision D.01,
 Gaussian 09:  ES64L-G09RevD.01 24-Apr-2013

 -----------------------------
 # b3lyp 6-31G(2df,p) opt Freq
 -----------------------------

 -----
 titel
 -----
 Symbolic Z-matrix:
 Charge =  0 Multiplicity = 1

 SCF Done:  E(RB3LYP) =  -423.171520136     A.U. after   14 cycles
 Optimization completed.
    -- Stationary point found.
 Normal termination of Gaussian 09 at Tue Jan 28 12:46:28 2020.

 ----------------------------------------------------------------------
 #N Geom=AllCheck Guess=TCheck SCRF=Check GenChk RB3LYP/6-31G(2df,p) Fr
 eq
 ----------------------------------------------------------------------

 Structure from the checkpoint file:  "/scratch/puck/g09_29419764-0aa3-42f7-a98c-ffaf9efae9c0/Gau-10505.chk"
 -----
 titel
 -----
 Charge =  0 Multiplicity = 1

                         Standard orientation:
 ---------------------------------------------------------------------
 Center     Atomic      Atomic             Coordinates (Angstroms)
 Number     Number       Type             X           Y           Z
 ---------------------------------------------------------------------
      1          6           0       -3.239998    0.466147   -0.253910
      2          6           0       -2.246597   -0.692085   -0.103285
      3          6           0       -0.806173   -0.245400   -0.267663
      4          6           0       -0.057476    0.255345    0.915465
      5          6           0        0.274769   -1.148106    0.332949
      6          6           0        1.616099   -0.641637   -0.087912
      7          8           0        2.606702   -1.146963   -0.531926
      8          6           0        1.319157    0.786698    0.475610
      9          8           0        1.390506    1.832678   -0.457464
     10          1           0       -3.068339    1.237246    0.504234
     11          1           0       -3.145640    0.940480   -1.236426
     12          1           0       -4.270950    0.114746   -0.150468
     13          1           0       -2.372173   -1.165664    0.878516
     14          1           0       -2.469103   -1.465993   -0.848056
     15          1           0       -0.591179    0.226575   -1.223885
     16          1           0       -0.528785    0.452013    1.870744
     17          1           0        0.031537   -2.135024    0.706603
     18          1           0        1.981254    0.954156    1.338292
     19          1           0        1.297033    2.669984    0.008036
 ---------------------------------------------------------------------

 SCF Done:  E(RB3LYP) =  -423.171520136     A.U. after    1 cycles

 The electronic state is 1-A.
 Alpha  occ. eigenvalues --  -19.14924 -19.12783 -10.26418 -10.24441 -10.21040
 Alpha  occ. eigenvalues --  -10.20761 -10.20482 -10.19620 -10.18291  -1.04308
 Alpha  occ. eigenvalues --   -1.02763  -0.90617  -0.78255  -0.70887  -0.64539
 Alpha  occ. eigenvalues --   -0.62634  -0.58335  -0.53674  -0.51478  -0.48368
 Alpha  occ. eigenvalues --   -0.47649  -0.44362  -0.43527  -0.41231  -0.40229
 Alpha  occ. eigenvalues --   -0.38985  -0.37841  -0.35817  -0.35303  -0.34724
 Alpha  occ. eigenvalues --   -0.30501  -0.29159  -0.27441  -0.23629
 Alpha virt. eigenvalues --   -0.01275   0.06537   0.08951   0.09868   0.11206
 Alpha virt. eigenvalues --    0.12997   0.14090   0.15164   0.15443   0.16786
 Alpha virt. eigenvalues --    0.17090   0.18075   0.18622   0.20070   0.22727

 Mulliken charges:
               1
     1  C   -0.376487
     2  C   -0.219202
     3  C    0.000662
     4  C   -0.095340
     5  C   -0.208808
     6  C    0.401362
     7  O   -0.315460
     8  C   -0.032280
     9  O   -0.418997
    10  H    0.117291
    11  H    0.122434
    12  H    0.116787
    13  H    0.097948
    14  H    0.109436
    15  H    0.110933
    16  H    0.096508
    17  H    0.108236
    18  H    0.095544
    19  H    0.289435
 Sum of Mulliken charges =   0.00000

 Dipole moment (field-independent basis, Debye):
    X=             -3.2484    Y=              1.5719    Z=              2.3915  Tot=              4.3292
 Quadrupole moment (field-independent basis, Debye-Ang):
   XX=            -60.8667   YY=            -49.8854   ZZ=            -52.4801
   XY=              5.3783   XZ=              4.7679   YZ=              1.3139

  Exact polarizability:  93.975  -0.936  75.531  -0.793   1.919  63.010
 Approx polarizability: 125.528  -5.826 113.668  -6.450   5.018 101.305

                      1                      2                      3
                      A                      A                      A
 Frequencies --     74.4754               118.4471               138.0901
 Red. masses --      3.1707                 3.8042                 2.8790
 Frc consts  --      0.0104                 0.0314                 0.0323
 IR Inten    --      3.4207                 0.1328                 2.7031

                      4                      5                      6
                      A                      A                      A
 Frequencies --    174.6129               222.9268               246.4757
 Red. masses --      1.8387                 1.5147                 1.7210
 Frc consts  --      0.0330                 0.0444                 0.0616
 IR Inten    --      0.6182                60.1083                12.4788

                      7                      8                      9
                      A                      A                      A
 Frequencies --    251.9830               348.7734               376.2626
 Red. masses --      2.2057                 2.9601                 2.8550
 Frc consts  --      0.0825                 0.2122                 0.2381
 IR Inten    --     32.4819                 3.1964                 1.8725

                     10                     11                     12
                      A                      A                      A
 Frequencies --    498.2451               553.6863               648.1141
 Red. masses --      3.9526                 4.4829                 4.4697
 Frc consts  --      0.5781                 0.8097                 1.1062
 IR Inten    --     15.3728                 0.7466                12.3020

                     13                     14                     15
                      A                      A                      A
 Frequencies --    714.5373               749.9437               819.3321
 Red. masses --      5.2817                 1.7677                 1.5637
 Frc consts  --      1.5888                 0.5858                 0.6185
 IR Inten    --     14.7318                10.1240                 7.8414

                     16                     17                     18
                      A                      A                      A
 Frequencies --    829.0976               863.6776               913.3637
 Red. masses --      3.6771                 1.5878                 2.6521
 Frc consts  --      1.4892                 0.6978                 1.3035
 IR Inten    --     11.7538                10.6042                 8.2180

                     19                     20                     21
                      A                      A                      A
 Frequencies --    947.0094               971.8718              1002.7904
 Red. masses --      2.0013                 2.0739                 1.4935
 Frc consts  --      1.0575                 1.1541                 0.8849
 IR Inten    --      6.4343                11.6466                18.2414

                     22                     23                     24
                      A                      A                      A
 Frequencies --   1033.2252              1075.6226              1098.1295
 Red. masses --      1.9458                 1.5296                 1.7230
 Frc consts  --      1.2239                 1.0426                 1.2242
 IR Inten    --      4.6368                 4.6845                 9.5113

                     25                     26                     27
                      A                      A                      A
 Frequencies --   1112.3945              1132.4116              1144.3373
 Red. masses --      2.0107                 2.2590                 2.4064
 Frc consts  --      1.4659                 1.7068                 1.8566
 IR Inten    --     43.8341                59.8420                35.6311

                     28                     29                     30
                      A                      A                      A
 Frequencies --   1162.3503              1200.1804              1255.8471
 Red. masses --      1.3422                 1.9660                 1.4780
 Frc consts  --      1.0684                 1.6685                 1.3734
 IR Inten    --     12.4288                 4.3995                46.9551

                     31                     32                     33
                      A                      A                      A
 Frequencies --   1260.3759              1294.8344              1312.8717
 Red. masses --      1.8571                 1.2532                 1.3468
 Frc consts  --      1.7382                 1.2380                 1.3677
 IR Inten    --      2.8300                 3.1462                18.3495

                     34                     35                     36
                      A                      A                      A
 Frequencies --   1360.4357              1411.8156              1414.4444
 Red. masses --      1.4830                 1.2619                 1.4491
 Frc consts  --      1.6172                 1.4819                 1.7081
 IR Inten    --     11.9076                 1.1832                 4.6613

                     37                     38                     39
                      A                      A                      A
 Frequencies --   1432.7918              1487.6948              1497.6733
 Red. masses --      2.0333                 1.0607                 1.0403
 Frc consts  --      2.4593                 1.3831                 1.3748
 IR Inten    --      1.6034                 0.8995                 5.8778

                     40                     41                     42
                      A                      A                      A
 Frequencies --   1507.3590              1887.2648              3000.8006
 Red. masses --      1.0757                12.4449                 1.0833
 Frc consts  --      1.4401                26.1160                 5.7477
 IR Inten    --      2.7960               364.8127                39.5468

                     43                     44                     45
                      A                      A                      A
 Frequencies --   3023.8719              3035.5297              3056.3496
 Red. masses --      1.0597                 1.0350                 1.1017
 Frc consts  --      5.7089                 5.6192                 6.0637
 IR Inten    --     22.6386                24.9457                11.6785

                     46                     47                     48
                      A                      A                      A
 Frequencies --   3104.3151              3108.8747              3132.2754
 Red. masses --      1.1019                 1.1016                 1.0884
 Frc consts  --      6.2566                 6.2729                 6.2918
 IR Inten    --     30.8647                32.7828                13.8449

                     49                     50                     51
                      A                      A                      A
 Frequencies --   3188.1281              3199.3740              3812.9702
 Red. masses --      1.0905                 1.0959                 1.0665
 Frc consts  --      6.5306                 6.6095                 9.1354
 IR Inten    --      8.4149                 5.5362                27.6057

 - Thermochemistry -
 -------------------
 Temperature   298.150 Kelvin.  Pressure   1.00000 Atm.
 Atom     1 has atomic number  6 and mass  12.00000

 Molecular mass:   126.06808 amu.
 Principal axes and moments of inertia in atomic units:
                           1         2         3
     Eigenvalues --   593.068871700.668252048.02012
           X            0.99984   0.01234   0.01271
           Y           -0.01235   0.99992   0.00097
           Z           -0.01269  -0.00113   0.99992
 This molecule is an asymmetric top.
 Rotational symmetry number  1.
 Warning -- assumption of classical behavior for rotation
           may cause significant error
 Rotational temperatures (Kelvin)      0.14604     0.05093     0.04229
 Rotational constants (GHZ):           3.04306     1.06120     0.88121
 Zero-point vibrational energy     413957.4 (Joules/Mol)
                                   98.93818 (Kcal/Mol)
 Warning -- explicit consideration of  11 degrees of freedom as
           vibrations may cause significant error
 Vibrational temperatures:    107.15   170.42   198.68   251.23   320.74
          (Kelvin)            354.62   362.55   501.81   541.36   716.86
                              796.63   932.49  1028.06  1079.00  1178.83
                             1192.89  1242.64  1314.12  1362.53  1398.30
                             1442.79  1486.58  1547.58  1579.96  1600.49
                             1629.29  1646.44  1672.36  1726.79  1806.88
                             1813.40  1862.98  1888.93  1957.36  2031.29
                             2035.07  2061.47  2140.46  2154.82  2168.75
                             2715.35  4317.48  4350.67  4367.44  4397.40
                             4466.41  4472.97  4506.64  4587.00  4603.18
                             5486.01

 Zero-point correction=                           0.157668 (Hartree/Particle)
 Thermal correction to Energy=                    0.166858
 Thermal correction to Enthalpy=                  0.167802
 Thermal correction to Gibbs Free Energy=         0.123461
 Sum of electronic and zero-point Energies=           -423.013852
 Sum of electronic and thermal Energies=              -423.004662
 Sum of electronic and thermal Enthalpies=            -423.003718
 Sum of electronic and thermal Free Energies=         -423.048059

                     E (Thermal)             CV                S
                      KCal/Mol        Cal/Mol-Kelvin    Cal/Mol-Kelvin
 Total                  104.705             33.842             93.324
 Electronic               0.000              0.000              0.000
 Translational            0.889              2.981             40.409
 Rotational               0.889              2.981             29.114
 Vibrational            102.927             27.881             23.801
 Vibration     1          0.599              1.966              4.031
 Vibration     2          0.609              1.934              3.126
 Vibration     3          0.614              1.915              2.830
 Vibration     4          0.627              1.874              2.385
 Vibration     5          0.649              1.806              1.935
 Vibration     6          0.661              1.769              1.756
 Vibration     7          0.664              1.759              1.717
 Vibration     8          0.726              1.578              1.172
 Vibration     9          0.747              1.521              1.054
 Vibration    10          0.854              1.254              0.663
 Vibration    11          0.909              1.132              0.537

 Optimization completed.
    -- Stationary point found.
 Normal termination of Gaussian 09 at Tue Jan 28 14:40:58 2020.
