 Gaussian 09, Revision D.01,
 Gaussian 09:  ES64L-G09RevD.01 24-Apr-2013

 -----------------------------
 # b3lyp 6-31G(2df,p) opt Freq
 -----------------------------

 -----
 titel
 -----
 Symbolic Z-matrix:
 Charge =  0 Multiplicity = 1

 SCF Done:  E(RB3LYP) =  -423.173000867     A.U. after   14 cycles
 Optimization completed.
    -- Stationary point found.
 Normal termination of Gaussian 09 at Tue Jan 28 14:12:33 2020.

 ----------------------------------------------------------------------
 #N Geom=AllCheck Guess=TCheck SCRF=Check GenChk RB3LYP/6-31G(2df,p) Fr
 eq
 ----------------------------------------------------------------------

 Structure from the checkpoint file:  "/scratch/puck/g09_34b5fa41-f069-4adb-9711-92b37cfe4333/Gau-61187.chk"
 -----
 titel
 -----
 Charge =  0 Multiplicity = 1

                         Standard orientation:
 ---------------------------------------------------------------------
 Center     Atomic      Atomic             Coordinates (Angstroms)
 Number     Number       Type             X           Y           Z
 ---------------------------------------------------------------------
      1          8           0       -2.461588   -0.589667   -0.063806
      2          6           0       -1.265880   -1.309416   -0.288146
      3          6           0       -0.081124   -0.750864    0.526819
      4          6           0        1.208370   -1.498259    0.289943
      5          6           0        2.189208   -0.719647   -0.164664
      6          6           0        1.769351    0.721686   -0.297194
      7          6           0        0.297783    0.693402    0.134079
      8          6           0       -0.403129    1.870099    0.654744
      9          8           0       -0.630585    1.429197   -0.694156
     10          1           0       -2.308329    0.277145   -0.462808
     11          1           0       -1.454373   -2.344619    0.017251
     12          1           0       -0.996062   -1.325416   -1.354931
     13          1           0       -0.376610   -0.789287    1.584074
     14          1           0        1.290682   -2.565349    0.466526
     15          1           0        3.190931   -1.055088   -0.408393
     16          1           0        2.369791    1.386395    0.337395
     17          1           0        1.858743    1.102644   -1.321913
     18          1           0       -1.246043    1.734631    1.330733
     19          1           0        0.121175    2.820685    0.742287
 ---------------------------------------------------------------------

 SCF Done:  E(RB3LYP) =  -423.173000867     A.U. after    1 cycles

 The electronic state is 1-A.
 Alpha  occ. eigenvalues --  -19.16195 -19.11944 -10.24874 -10.23803 -10.22183
 Alpha  occ. eigenvalues --  -10.19443 -10.19246 -10.18941 -10.18652  -1.07663
 Alpha  occ. eigenvalues --   -1.00322  -0.84607  -0.74145  -0.70266  -0.66824
 Alpha  occ. eigenvalues --   -0.63624  -0.55943  -0.55371  -0.51338  -0.49804
 Alpha  occ. eigenvalues --   -0.46965  -0.45197  -0.43670  -0.41843  -0.40061
 Alpha  occ. eigenvalues --   -0.39041  -0.37631  -0.36758  -0.34555  -0.32162
 Alpha  occ. eigenvalues --   -0.30768  -0.27209  -0.26685  -0.24238
 Alpha virt. eigenvalues --    0.01510   0.07398   0.08866   0.10834   0.11689
 Alpha virt. eigenvalues --    0.12642   0.13982   0.14550   0.15525   0.16883
 Alpha virt. eigenvalues --    0.17311   0.19068   0.20072   0.20810   0.23074

 Mulliken charges:
               1
     1  O   -0.431293
     2  C   -0.062071
     3  C   -0.158869
     4  C   -0.076298
     5  C   -0.079308
     6  C   -0.341212
     7  C    0.415494
     8  C   -0.243294
     9  O   -0.283914
    10  H    0.293515
    11  H    0.102760
    12  H    0.092446
    13  H    0.090444
    14  H    0.098765
    15  H    0.099240
    16  H    0.114095
    17  H    0.127956
    18  H    0.124856
    19  H    0.116689
 Sum of Mulliken charges =   0.00000

 Dipole moment (field-independent basis, Debye):
    X=              2.4278    Y=              0.4798    Z=              0.8280  Tot=              2.6096
 Quadrupole moment (field-independent basis, Debye-Ang):
   XX=            -57.1857   YY=            -49.7665   ZZ=            -53.5952
   XY=             -1.5081   XZ=             -0.8327   YZ=              1.9566

  Exact polarizability:  84.963   1.603  84.254  -6.300  -0.159  58.501
 Approx polarizability: 121.224   6.411 119.400 -10.387  -4.941  96.477

                      1                      2                      3
                      A                      A                      A
 Frequencies --     48.4319               159.8115               193.2589
 Red. masses --      3.3331                 2.8802                 3.5426
 Frc consts  --      0.0046                 0.0433                 0.0780
 IR Inten    --      1.3448                 3.9239                 1.6152

                      4                      5                      6
                      A                      A                      A
 Frequencies --    243.3118               320.0620               357.6406
 Red. masses --      3.1432                 2.5821                 5.3514
 Frc consts  --      0.1096                 0.1558                 0.4033
 IR Inten    --      3.1825                 6.5778                 3.7014

                      7                      8                      9
                      A                      A                      A
 Frequencies --    400.3868               433.6425               539.1293
 Red. masses --      2.8779                 2.6952                 4.6689
 Frc consts  --      0.2718                 0.2986                 0.7996
 IR Inten    --      8.2676                 0.6320                 0.6522

                     10                     11                     12
                      A                      A                      A
 Frequencies --    549.4030               597.2306               709.0649
 Red. masses --      3.0263                 1.1225                 1.6134
 Frc consts  --      0.5382                 0.2359                 0.4779
 IR Inten    --      2.6633               138.3905                35.6880

                     13                     14                     15
                      A                      A                      A
 Frequencies --    753.6613               784.5764               814.9915
 Red. masses --      2.1426                 3.9488                 3.3356
 Frc consts  --      0.7170                 1.4321                 1.3054
 IR Inten    --      2.5204                 4.8933                21.9356

                     16                     17                     18
                      A                      A                      A
 Frequencies --    897.4385               933.2369               970.2689
 Red. masses --      1.7534                 3.1373                 1.9984
 Frc consts  --      0.8320                 1.6099                 1.1085
 IR Inten    --      3.7470                23.8957                10.1760

                     19                     20                     21
                      A                      A                      A
 Frequencies --    977.9836               991.7458              1017.9026
 Red. masses --      1.3350                 1.7401                 2.2738
 Frc consts  --      0.7523                 1.0084                 1.3881
 IR Inten    --      2.2747                 9.8083                 4.7226

                     22                     23                     24
                      A                      A                      A
 Frequencies --   1033.4310              1073.8336              1079.1484
 Red. masses --      2.1974                 2.7590                 4.1126
 Frc consts  --      1.3827                 1.8745                 2.8218
 IR Inten    --      2.7202                 3.3308               112.0576

                     25                     26                     27
                      A                      A                      A
 Frequencies --   1129.0875              1137.6837              1168.1235
 Red. masses --      1.2906                 1.1367                 1.3209
 Frc consts  --      0.9694                 0.8668                 1.0620
 IR Inten    --      2.7199                 0.3766                 1.0129

                     28                     29                     30
                      A                      A                      A
 Frequencies --   1173.4843              1215.1567              1223.0989
 Red. masses --      1.1349                 2.1559                 1.4970
 Frc consts  --      0.9208                 1.8756                 1.3195
 IR Inten    --      7.6095                 1.1589                 5.4347

                     31                     32                     33
                      A                      A                      A
 Frequencies --   1264.5592              1290.2669              1326.2124
 Red. masses --      1.3852                 1.6474                 1.4895
 Frc consts  --      1.3051                 1.6159                 1.5436
 IR Inten    --      2.3248                 3.3619                13.6078

                     34                     35                     36
                      A                      A                      A
 Frequencies --   1375.7401              1388.8448              1421.7052
 Red. masses --      1.7342                 1.3543                 2.2573
 Frc consts  --      1.9338                 1.5391                 2.6882
 IR Inten    --      1.2439                 0.1956                 8.5726

                     37                     38                     39
                      A                      A                      A
 Frequencies --   1444.2433              1476.9334              1502.9683
 Red. masses --      1.2067                 1.0958                 1.0896
 Frc consts  --      1.4830                 1.4083                 1.4502
 IR Inten    --     69.4991                 2.2868                 0.7426

                     40                     41                     42
                      A                      A                      A
 Frequencies --   1521.3058              1688.4010              2989.8142
 Red. masses --      1.3722                 6.3696                 1.0675
 Frc consts  --      1.8712                10.6982                 5.6223
 IR Inten    --      1.5845                 1.8436                31.6164

                     43                     44                     45
                      A                      A                      A
 Frequencies --   3013.7073              3021.0919              3053.8211
 Red. masses --      1.0808                 1.0619                 1.0998
 Frc consts  --      5.7835                 5.7105                 6.0428
 IR Inten    --     33.6650                26.3022                11.9338

                     46                     47                     48
                      A                      A                      A
 Frequencies --   3066.8367              3082.9963              3173.5654
 Red. masses --      1.0975                 1.0507                 1.1199
 Frc consts  --      6.0818                 5.8840                 6.6453
 IR Inten    --     42.7017                24.1471                14.6375

                     49                     50                     51
                      A                      A                      A
 Frequencies --   3182.7277              3207.7557              3754.9097
 Red. masses --      1.0847                 1.1032                 1.0650
 Frc consts  --      6.4739                 6.6884                 8.8472
 IR Inten    --      4.7087                21.7080                72.2463

 - Thermochemistry -
 -------------------
 Temperature   298.150 Kelvin.  Pressure   1.00000 Atm.
 Atom     1 has atomic number  8 and mass  15.99491

 Molecular mass:   126.06808 amu.
 Principal axes and moments of inertia in atomic units:
                           1         2         3
     Eigenvalues --   755.998241065.850671614.94759
           X            0.99986   0.01434  -0.00860
           Y           -0.01418   0.99971   0.01937
           Z            0.00888  -0.01925   0.99978
 This molecule is an asymmetric top.
 Rotational symmetry number  1.
 Warning -- assumption of classical behavior for rotation
           may cause significant error
 Rotational temperatures (Kelvin)      0.11457     0.08126     0.05363
 Rotational constants (GHZ):           2.38723     1.69324     1.11752
 Zero-point vibrational energy     419737.5 (Joules/Mol)
                                  100.31967 (Kcal/Mol)
 Warning -- explicit consideration of  11 degrees of freedom as
           vibrations may cause significant error
 Vibrational temperatures:     69.68   229.93   278.06   350.07   460.50
          (Kelvin)            514.56   576.07   623.91   775.69   790.47
                              859.28  1020.19  1084.35  1128.83  1172.59
                             1291.21  1342.72  1396.00  1407.10  1426.90
                             1464.53  1486.87  1545.01  1552.65  1624.50
                             1636.87  1680.67  1688.38  1748.34  1759.76
                             1819.42  1856.40  1908.12  1979.38  1998.24
                             2045.51  2077.94  2124.98  2162.43  2188.82
                             2429.23  4301.67  4336.05  4346.67  4393.76
                             4412.49  4435.74  4566.05  4579.23  4615.24
                             5402.47

 Zero-point correction=                           0.159870 (Hartree/Particle)
 Thermal correction to Energy=                    0.168013
 Thermal correction to Enthalpy=                  0.168957
 Thermal correction to Gibbs Free Energy=         0.126863
 Sum of electronic and zero-point Energies=           -423.013131
 Sum of electronic and thermal Energies=              -423.004988
 Sum of electronic and thermal Enthalpies=            -423.004044
 Sum of electronic and thermal Free Energies=         -423.046138

                     E (Thermal)             CV                S
                      KCal/Mol        Cal/Mol-Kelvin    Cal/Mol-Kelvin
 Total                  105.430             31.636             88.596
 Electronic               0.000              0.000              0.000
 Translational            0.889              2.981             40.409
 Rotational               0.889              2.981             28.655
 Vibrational            103.652             25.675             19.532
 Vibration     1          0.595              1.978              4.880
 Vibration     2          0.622              1.892              2.552
 Vibration     3          0.635              1.849              2.196
 Vibration     4          0.659              1.774              1.779
 Vibration     5          0.706              1.635              1.310
 Vibration     6          0.733              1.560              1.132
 Vibration     7          0.766              1.469              0.961
 Vibration     8          0.794              1.397              0.847
 Vibration     9          0.894              1.164              0.567
 Vibration    10          0.905              1.141              0.545
 Vibration    11          0.955              1.038              0.454

 Optimization completed.
    -- Stationary point found.
 Normal termination of Gaussian 09 at Tue Jan 28 14:59:39 2020.
