 Gaussian 09, Revision D.01,
 Gaussian 09:  ES64L-G09RevD.01 24-Apr-2013

 -----------------------------
 # b3lyp 6-31G(2df,p) opt Freq
 -----------------------------

 -----
 titel
 -----
 Symbolic Z-matrix:
 Charge =  0 Multiplicity = 1

 SCF Done:  E(RB3LYP) =  -423.127605714     A.U. after   14 cycles
 SCF Done:  E(RB3LYP) =  -423.127605640     A.U. after    7 cycles
 SCF Done:  E(RB3LYP) =  -423.127605766     A.U. after    6 cycles
 SCF Done:  E(RB3LYP) =  -423.127605729     A.U. after    7 cycles
 Optimization completed.
    -- Stationary point found.
 Normal termination of Gaussian 09 at Tue Jan 28 08:33:46 2020.

 ----------------------------------------------------------------------
 #N Geom=AllCheck Guess=TCheck SCRF=Check GenChk RB3LYP/6-31G(2df,p) Fr
 eq
 ----------------------------------------------------------------------

 Structure from the checkpoint file:  "/scratch/puck/g09_b3d8f9af-a5cb-4ce8-bf8b-7a8ad9b25a17/Gau-74489.chk"
 -----
 titel
 -----
 Charge =  0 Multiplicity = 1

                         Standard orientation:
 ---------------------------------------------------------------------
 Center     Atomic      Atomic             Coordinates (Angstroms)
 Number     Number       Type             X           Y           Z
 ---------------------------------------------------------------------
      1          6           0        2.406533   -0.911981    0.433457
      2          6           0        0.899984   -0.986731    0.497156
      3          6           0        0.057147   -0.964462   -0.735524
      4          8           0       -1.065038   -1.786082   -0.784350
      5          6           0        0.022445    0.247025    0.202979
      6          6           0       -1.269969    0.409261    0.981357
      7          8           0       -2.311239    0.648230    0.026562
      8          6           0        0.644278    1.463934   -0.235715
      9          6           0        1.165393    2.488808   -0.592019
     10          1           0        2.822822   -0.516133    1.365665
     11          1           0        2.831151   -1.907795    0.268234
     12          1           0        2.737932   -0.259429   -0.378031
     13          1           0        0.498228   -1.612748    1.289545
     14          1           0        0.566531   -0.808568   -1.686411
     15          1           0       -1.824208   -1.204929   -0.934148
     16          1           0       -1.477264   -0.504398    1.551358
     17          1           0       -1.185995    1.248462    1.683799
     18          1           0       -3.131972    0.799800    0.506010
     19          1           0        1.618132    3.393435   -0.913864
 ---------------------------------------------------------------------

 SCF Done:  E(RB3LYP) =  -423.127605729     A.U. after    1 cycles

 The electronic state is 1-A.
 Alpha  occ. eigenvalues --  -19.15162 -19.13496 -10.24052 -10.23599 -10.21392
 Alpha  occ. eigenvalues --  -10.19883 -10.17815 -10.17785 -10.16737  -1.03447
 Alpha  occ. eigenvalues --   -1.01846  -0.86740  -0.74826  -0.72117  -0.68868
 Alpha  occ. eigenvalues --   -0.61053  -0.58207  -0.53321  -0.51437  -0.50178
 Alpha  occ. eigenvalues --   -0.48898  -0.44918  -0.43247  -0.41440  -0.40653
 Alpha  occ. eigenvalues --   -0.37955  -0.36340  -0.35448  -0.33404  -0.31150
 Alpha  occ. eigenvalues --   -0.28132  -0.27537  -0.25271  -0.23415
 Alpha virt. eigenvalues --    0.04468   0.05420   0.06849   0.10384   0.12118
 Alpha virt. eigenvalues --    0.12885   0.13403   0.13938   0.15288   0.16098
 Alpha virt. eigenvalues --    0.17264   0.18186   0.20087   0.20384   0.21339

 Mulliken charges:
               1
     1  C   -0.423669
     2  C   -0.084592
     3  C    0.078935
     4  O   -0.435110
     5  C    0.054504
     6  C   -0.173007
     7  O   -0.424310
     8  C    0.307909
     9  C   -0.460318
    10  H    0.122377
    11  H    0.122287
    12  H    0.132817
    13  H    0.096660
    14  H    0.096869
    15  H    0.295591
    16  H    0.103896
    17  H    0.106844
    18  H    0.293191
    19  H    0.189126
 Sum of Mulliken charges =   0.00000

 Dipole moment (field-independent basis, Debye):
    X=             -0.7298    Y=              0.8123    Z=              1.5433  Tot=              1.8906
 Quadrupole moment (field-independent basis, Debye-Ang):
   XX=            -45.5138   YY=            -55.5095   ZZ=            -51.6571
   XY=             -1.3866   XZ=             -4.0353   YZ=             -1.3477

  Exact polarizability:  83.005   5.282  90.161  -2.610  -5.056  63.276
 Approx polarizability: 111.085  15.209 140.355  -4.344 -10.716  96.584

                      1                      2                      3
                      A                      A                      A
 Frequencies --    115.2965               122.2875               148.0390
 Red. masses --      3.9368                 4.1458                 3.2396
 Frc consts  --      0.0308                 0.0365                 0.0418
 IR Inten    --      1.4952                 1.6980                 2.5619

                      4                      5                      6
                      A                      A                      A
 Frequencies --    172.4662               198.6762               251.6904
 Red. masses --      1.2183                 3.0420                 2.8794
 Frc consts  --      0.0214                 0.0707                 0.1075
 IR Inten    --      1.9619                 0.9831                 6.0723

                      7                      8                      9
                      A                      A                      A
 Frequencies --    273.7156               297.4838               327.6466
 Red. masses --      1.9652                 2.1770                 1.6080
 Frc consts  --      0.0867                 0.1135                 0.1017
 IR Inten    --     35.1490                13.1608                63.9614

                     10                     11                     12
                      A                      A                      A
 Frequencies --    382.4969               410.5259               498.7033
 Red. masses --      5.3270                 3.7183                 1.6276
 Frc consts  --      0.4592                 0.3692                 0.2385
 IR Inten    --      4.6497                15.3548                78.5368

                     13                     14                     15
                      A                      A                      A
 Frequencies --    527.2681               533.7557               570.3039
 Red. masses --      2.3449                 4.2973                 1.2874
 Frc consts  --      0.3841                 0.7213                 0.2467
 IR Inten    --     24.9221                16.0353                38.2884

                     16                     17                     18
                      A                      A                      A
 Frequencies --    610.0863               650.4122               734.7632
 Red. masses --      3.5100                 1.2393                 3.4872
 Frc consts  --      0.7697                 0.3089                 1.1092
 IR Inten    --      6.8812                39.8119                 7.1074

                     19                     20                     21
                      A                      A                      A
 Frequencies --    815.6100               884.2635               957.8457
 Red. masses --      4.7018                 2.0560                 1.7439
 Frc consts  --      1.8428                 0.9472                 0.9427
 IR Inten    --     27.6230                 8.6198                 1.4940

                     22                     23                     24
                      A                      A                      A
 Frequencies --    995.0092              1030.0953              1052.5263
 Red. masses --      1.6214                 2.8354                 1.5508
 Frc consts  --      0.9458                 1.7726                 1.0122
 IR Inten    --      3.7176                43.2568                 6.5245

                     25                     26                     27
                      A                      A                      A
 Frequencies --   1092.6181              1120.9480              1131.7435
 Red. masses --      1.9024                 3.4790                 1.9245
 Frc consts  --      1.3381                 2.5756                 1.4523
 IR Inten    --     22.3148                39.1051                 7.9285

                     28                     29                     30
                      A                      A                      A
 Frequencies --   1173.9497              1219.7596              1233.9156
 Red. masses --      2.7899                 1.5735                 1.3845
 Frc consts  --      2.2654                 1.3793                 1.2420
 IR Inten    --     48.9162                37.8736                18.9537

                     31                     32                     33
                      A                      A                      A
 Frequencies --   1253.6037              1308.2982              1352.5681
 Red. masses --      1.3648                 1.3985                 1.3342
 Frc consts  --      1.2637                 1.4103                 1.4381
 IR Inten    --     29.6923                 4.3327                26.6169

                     34                     35                     36
                      A                      A                      A
 Frequencies --   1380.2775              1418.5287              1442.8542
 Red. masses --      1.2749                 1.2660                 1.6838
 Frc consts  --      1.4311                 1.5009                 2.0653
 IR Inten    --     83.6134                 1.5976                11.2109

                     37                     38                     39
                      A                      A                      A
 Frequencies --   1463.2781              1493.0159              1499.9216
 Red. masses --      1.7439                 1.0712                 1.0994
 Frc consts  --      2.2000                 1.4068                 1.4573
 IR Inten    --      9.0099                 4.2853                 3.9454

                     40                     41                     42
                      A                      A                      A
 Frequencies --   1508.6366              2229.0967              3012.1511
 Red. masses --      1.0818                 6.0558                 1.0559
 Frc consts  --      1.4507                17.7287                 5.6446
 IR Inten    --      3.8773                14.7143                42.2714

                     43                     44                     45
                      A                      A                      A
 Frequencies --   3037.0519              3055.9514              3098.3143
 Red. masses --      1.0364                 1.1078                 1.1014
 Frc consts  --      5.6322                 6.0957                 6.2297
 IR Inten    --     28.8167                30.6362                20.1776

                     46                     47                     48
                      A                      A                      A
 Frequencies --   3105.3495              3119.6806              3150.5346
 Red. masses --      1.0883                 1.0982                 1.0884
 Frc consts  --      6.1832                 6.2974                 6.3650
 IR Inten    --     20.2601                 8.7868                17.0233

                     49                     50                     51
                      A                      A                      A
 Frequencies --   3504.1753              3736.9839              3821.4912
 Red. masses --      1.1592                 1.0657                 1.0662
 Frc consts  --      8.3864                 8.7684                 9.1740
 IR Inten    --     78.4995                83.9137                24.1980

 - Thermochemistry -
 -------------------
 Temperature   298.150 Kelvin.  Pressure   1.00000 Atm.
 Atom     1 has atomic number  6 and mass  12.00000

 Molecular mass:   126.06808 amu.
 Principal axes and moments of inertia in atomic units:
                           1         2         3
     Eigenvalues --   957.401151142.032811726.04819
           X            0.99627  -0.08562  -0.01038
           Y            0.08549   0.99626  -0.01248
           Z            0.01141   0.01155   0.99987
 This molecule is an asymmetric top.
 Rotational symmetry number  1.
 Warning -- assumption of classical behavior for rotation
           may cause significant error
 Rotational temperatures (Kelvin)      0.09047     0.07584     0.05018
 Rotational constants (GHZ):           1.88504     1.58029     1.04559
 Zero-point vibrational energy     409874.5 (Joules/Mol)
                                   97.96235 (Kcal/Mol)
 Warning -- explicit consideration of  16 degrees of freedom as
           vibrations may cause significant error
 Vibrational temperatures:    165.89   175.94   212.99   248.14   285.85
          (Kelvin)            362.13   393.82   428.01   471.41   550.33
                              590.65   717.52   758.62   767.95   820.54
                              877.78   935.80  1057.16  1173.48  1272.26
                             1378.12  1431.59  1482.08  1514.35  1572.03
                             1612.79  1628.32  1689.05  1754.96  1775.33
                             1803.65  1882.35  1946.04  1985.91  2040.94
                             2075.94  2105.33  2148.11  2158.05  2170.59
                             3207.17  4333.81  4369.63  4396.83  4457.78
                             4467.90  4488.52  4532.91  5041.72  5376.68
                             5498.27

 Zero-point correction=                           0.156113 (Hartree/Particle)
 Thermal correction to Energy=                    0.166198
 Thermal correction to Enthalpy=                  0.167142
 Thermal correction to Gibbs Free Energy=         0.121782
 Sum of electronic and zero-point Energies=           -422.971493
 Sum of electronic and thermal Energies=              -422.961408
 Sum of electronic and thermal Enthalpies=            -422.960464
 Sum of electronic and thermal Free Energies=         -423.005824

                     E (Thermal)             CV                S
                      KCal/Mol        Cal/Mol-Kelvin    Cal/Mol-Kelvin
 Total                  104.291             37.688             95.469
 Electronic               0.000              0.000              0.000
 Translational            0.889              2.981             40.409
 Rotational               0.889              2.981             29.025
 Vibrational            102.513             31.726             26.036
 Vibration     1          0.608              1.937              3.178
 Vibration     2          0.610              1.931              3.064
 Vibration     3          0.617              1.905              2.697
 Vibration     4          0.626              1.876              2.408
 Vibration     5          0.637              1.842              2.145
 Vibration     6          0.664              1.760              1.719
 Vibration     7          0.676              1.722              1.573
 Vibration     8          0.691              1.678              1.431
 Vibration     9          0.711              1.620              1.272
 Vibration    10          0.752              1.508              1.029
 Vibration    11          0.775              1.447              0.925
 Vibration    12          0.854              1.253              0.661
 Vibration    13          0.882              1.190              0.593
 Vibration    14          0.889              1.175              0.579
 Vibration    15          0.926              1.095              0.504
 Vibration    16          0.969              1.010              0.433

 Optimization completed.
    -- Stationary point found.
 Normal termination of Gaussian 09 at Tue Jan 28 09:17:34 2020.
