 Gaussian 09, Revision D.01,
 Gaussian 09:  ES64L-G09RevD.01 24-Apr-2013

 -----------------------------
 # b3lyp 6-31G(2df,p) opt Freq
 -----------------------------

 -----
 titel
 -----
 Symbolic Z-matrix:
 Charge =  0 Multiplicity = 1

 SCF Done:  E(RB3LYP) =  -423.160453633     A.U. after   15 cycles
 Optimization completed.
    -- Stationary point found.
 Normal termination of Gaussian 09 at Tue Jan 28 12:08:54 2020.

 ----------------------------------------------------------------------
 #N Geom=AllCheck Guess=TCheck SCRF=Check GenChk RB3LYP/6-31G(2df,p) Fr
 eq
 ----------------------------------------------------------------------

 Structure from the checkpoint file:  "/scratch/puck/g09_33f83c09-c0b7-4b4c-83f5-f1d429283b98/Gau-1513.chk"
 -----
 titel
 -----
 Charge =  0 Multiplicity = 1

                         Standard orientation:
 ---------------------------------------------------------------------
 Center     Atomic      Atomic             Coordinates (Angstroms)
 Number     Number       Type             X           Y           Z
 ---------------------------------------------------------------------
      1          6           0        2.036280   -1.084201    1.107207
      2          6           0        1.577353   -0.420317   -0.216645
      3          6           0        1.931842    0.992831   -0.262449
      4          6           0        2.236716    2.155632   -0.290052
      5          6           0        0.067089   -0.705944   -0.399767
      6          8           0       -0.277258   -1.775394   -0.846401
      7          6           0       -0.926023    0.348683    0.041924
      8          6           0       -2.376411   -0.134487    0.004685
      9          8           0       -3.277537    0.844503    0.497365
     10          1           0        3.115893   -0.970933    1.228570
     11          1           0        1.547443   -0.619584    1.968297
     12          1           0        1.787869   -2.147931    1.088219
     13          1           0        2.068339   -0.946439   -1.043325
     14          1           0        2.505901    3.182523   -0.322354
     15          1           0       -0.663366    0.696449    1.049289
     16          1           0       -0.786343    1.227963   -0.602494
     17          1           0       -2.637054   -0.459273   -1.011433
     18          1           0       -2.492592   -1.007275    0.653060
     19          1           0       -3.288815    1.578438   -0.124957
 ---------------------------------------------------------------------

 SCF Done:  E(RB3LYP) =  -423.160453633     A.U. after    1 cycles

 The electronic state is 1-A.
 Alpha  occ. eigenvalues --  -19.13927 -19.13613 -10.28028 -10.22876 -10.22560
 Alpha  occ. eigenvalues --  -10.19686 -10.19498 -10.19192 -10.18327  -1.05124
 Alpha  occ. eigenvalues --   -1.01694  -0.82414  -0.76901  -0.73640  -0.67158
 Alpha  occ. eigenvalues --   -0.63705  -0.55922  -0.52673  -0.51096  -0.49352
 Alpha  occ. eigenvalues --   -0.46811  -0.46567  -0.43825  -0.41771  -0.40246
 Alpha  occ. eigenvalues --   -0.39252  -0.38652  -0.37775  -0.35453  -0.32650
 Alpha  occ. eigenvalues --   -0.29340  -0.27590  -0.27397  -0.24340
 Alpha virt. eigenvalues --   -0.02258   0.04044   0.04650   0.07277   0.09333
 Alpha virt. eigenvalues --    0.11960   0.12848   0.13386   0.14212   0.15917
 Alpha virt. eigenvalues --    0.16703   0.17562   0.19100   0.21227   0.21795

 Mulliken charges:
               1
     1  C   -0.393350
     2  C   -0.252177
     3  C    0.324113
     4  C   -0.469569
     5  C    0.381759
     6  O   -0.308123
     7  C   -0.324935
     8  C   -0.063622
     9  O   -0.419240
    10  H    0.135938
    11  H    0.131829
    12  H    0.141260
    13  H    0.133477
    14  H    0.201616
    15  H    0.136507
    16  H    0.130948
    17  H    0.107098
    18  H    0.125125
    19  H    0.281347
 Sum of Mulliken charges =   0.00000

 Dipole moment (field-independent basis, Debye):
    X=              1.4604    Y=              1.9449    Z=             -0.1091  Tot=              2.4346
 Quadrupole moment (field-independent basis, Debye-Ang):
   XX=            -56.2975   YY=            -51.4578   ZZ=            -54.1208
   XY=             -2.1420   XZ=              4.3156   YZ=             -4.6188

  Exact polarizability:  81.688   6.023  91.377   1.753  -0.807  59.663
 Approx polarizability: 101.119  13.673 150.171   1.656   3.965  91.246

                      1                      2                      3
                      A                      A                      A
 Frequencies --     23.6943                70.8614                96.0189
 Red. masses --      4.2820                 1.8507                 3.3001
 Frc consts  --      0.0014                 0.0055                 0.0179
 IR Inten    --      2.1820                 5.3386                 5.4264

                      4                      5                      6
                      A                      A                      A
 Frequencies --    105.7367               175.0224               213.5080
 Red. masses --      4.5885                 3.8130                 2.2051
 Frc consts  --      0.0302                 0.0688                 0.0592
 IR Inten    --      0.3459                 0.6630                 0.7137

                      7                      8                      9
                      A                      A                      A
 Frequencies --    226.8735               248.9610               296.8261
 Red. masses --      2.5422                 1.4264                 1.1337
 Frc consts  --      0.0771                 0.0521                 0.0589
 IR Inten    --      2.1602                 0.2231               114.6281

                     10                     11                     12
                      A                      A                      A
 Frequencies --    332.5478               403.3272               480.0007
 Red. masses --      5.5464                 4.9915                 6.2420
 Frc consts  --      0.3614                 0.4784                 0.8473
 IR Inten    --      2.7756                13.2035                 2.8577

                     13                     14                     15
                      A                      A                      A
 Frequencies --    525.6033               576.2882               610.1795
 Red. masses --      4.1982                 2.2091                 4.0262
 Frc consts  --      0.6833                 0.4323                 0.8832
 IR Inten    --      3.8538                 3.4819                 5.4179

                     16                     17                     18
                      A                      A                      A
 Frequencies --    634.5181               652.0868               786.3881
 Red. masses --      1.2246                 1.2399                 1.3846
 Frc consts  --      0.2905                 0.3106                 0.5045
 IR Inten    --     43.0794                53.0124                 3.0864

                     19                     20                     21
                      A                      A                      A
 Frequencies --    808.6721               889.4962               966.6462
 Red. masses --      3.7398                 2.3094                 1.6908
 Frc consts  --      1.4409                 1.0766                 0.9308
 IR Inten    --     10.3596                 1.9517                36.9890

                     22                     23                     24
                      A                      A                      A
 Frequencies --   1004.3011              1042.3970              1072.4548
 Red. masses --      2.0478                 3.4311                 3.3014
 Frc consts  --      1.2169                 2.1966                 2.2372
 IR Inten    --     15.8215                29.1393               104.4577

                     25                     26                     27
                      A                      A                      A
 Frequencies --   1086.4312              1107.9050              1138.6119
 Red. masses --      2.1217                 2.0474                 1.5781
 Frc consts  --      1.4755                 1.4807                 1.2054
 IR Inten    --      2.2252                13.1126                10.2810

                     28                     29                     30
                      A                      A                      A
 Frequencies --   1171.9132              1274.8390              1297.6649
 Red. masses --      1.6278                 1.2982                 1.2195
 Frc consts  --      1.3171                 1.2431                 1.2099
 IR Inten    --     14.1955                 1.8991                17.7670

                     31                     32                     33
                      A                      A                      A
 Frequencies --   1321.1891              1327.4228              1395.8859
 Red. masses --      1.4473                 1.6279                 1.2848
 Frc consts  --      1.4885                 1.6901                 1.4750
 IR Inten    --     11.4219                30.1513                 3.3460

                     34                     35                     36
                      A                      A                      A
 Frequencies --   1400.2056              1418.6782              1443.3364
 Red. masses --      1.2053                 1.3036                 1.1011
 Frc consts  --      1.3923                 1.5458                 1.3514
 IR Inten    --      1.4955                70.1897                11.0601

                     37                     38                     39
                      A                      A                      A
 Frequencies --   1494.0540              1497.1455              1505.3404
 Red. masses --      1.0474                 1.0474                 1.0873
 Frc consts  --      1.3775                 1.3832                 1.4516
 IR Inten    --      6.9502                 4.7833                 1.1915

                     40                     41                     42
                      A                      A                      A
 Frequencies --   1801.5498              2233.3650              3019.5507
 Red. masses --     11.4632                 5.9411                 1.0679
 Frc consts  --     21.9204                17.4598                 5.7369
 IR Inten    --    153.3904                 1.2816                28.0122

                     43                     44                     45
                      A                      A                      A
 Frequencies --   3025.2035              3046.1967              3049.7107
 Red. masses --      1.0650                 1.0674                 1.0475
 Frc consts  --      5.7424                 5.8358                 5.7403
 IR Inten    --     12.7200                 4.8602                13.2993

                     46                     47                     48
                      A                      A                      A
 Frequencies --   3058.3831              3098.7477              3125.9150
 Red. masses --      1.0919                 1.0974                 1.1023
 Frc consts  --      6.0173                 6.2083                 6.3460
 IR Inten    --      9.3136                24.1714                16.6228

                     49                     50                     51
                      A                      A                      A
 Frequencies --   3137.1642              3501.9093              3817.6841
 Red. masses --      1.1039                 1.1618                 1.0662
 Frc consts  --      6.4009                 8.3947                 9.1560
 IR Inten    --     10.8772                69.9750                16.8297

 - Thermochemistry -
 -------------------
 Temperature   298.150 Kelvin.  Pressure   1.00000 Atm.
 Atom     1 has atomic number  6 and mass  12.00000

 Molecular mass:   126.06808 amu.
 Principal axes and moments of inertia in atomic units:
                           1         2         3
     Eigenvalues --   789.697011899.512742368.85291
           X            0.99977  -0.01413   0.01634
           Y            0.01477   0.99911  -0.03959
           Z           -0.01577   0.03982   0.99908
 This molecule is an asymmetric top.
 Rotational symmetry number  1.
 Warning -- assumption of classical behavior for rotation
           may cause significant error
 Rotational temperatures (Kelvin)      0.10968     0.04560     0.03656
 Rotational constants (GHZ):           2.28536     0.95011     0.76186
 Zero-point vibrational energy     406960.1 (Joules/Mol)
                                   97.26579 (Kcal/Mol)
 Warning -- explicit consideration of  15 degrees of freedom as
           vibrations may cause significant error
 Vibrational temperatures:     34.09   101.95   138.15   152.13   251.82
          (Kelvin)            307.19   326.42   358.20   427.07   478.46
                              580.30   690.61   756.22   829.15   877.91
                              912.93   938.21  1131.44  1163.50  1279.79
                             1390.79  1444.96  1499.77  1543.02  1563.13
                             1594.03  1638.21  1686.12  1834.21  1867.05
                             1900.89  1909.86  2008.37  2014.58  2041.16
                             2076.64  2149.61  2154.06  2165.85  2592.03
                             3213.31  4344.45  4352.59  4382.79  4387.85
                             4400.33  4458.40  4497.49  4513.67  5038.46
                             5492.79

 Zero-point correction=                           0.155003 (Hartree/Particle)
 Thermal correction to Energy=                    0.165824
 Thermal correction to Enthalpy=                  0.166768
 Thermal correction to Gibbs Free Energy=         0.117647
 Sum of electronic and zero-point Energies=           -423.005451
 Sum of electronic and thermal Energies=              -422.994630
 Sum of electronic and thermal Enthalpies=            -422.993686
 Sum of electronic and thermal Free Energies=         -423.042806

                     E (Thermal)             CV                S
                      KCal/Mol        Cal/Mol-Kelvin    Cal/Mol-Kelvin
 Total                  104.056             37.817            103.383
 Electronic               0.000              0.000              0.000
 Translational            0.889              2.981             40.409
 Rotational               0.889              2.981             29.653
 Vibrational            102.279             31.856             33.321
 Vibration     1          0.593              1.985              6.298
 Vibration     2          0.598              1.968              4.129
 Vibration     3          0.603              1.952              3.534
 Vibration     4          0.605              1.945              3.346
 Vibration     5          0.627              1.873              2.381
 Vibration     6          0.644              1.820              2.013
 Vibration     7          0.651              1.800              1.904
 Vibration     8          0.662              1.764              1.738
 Vibration     9          0.690              1.680              1.435
 Vibration    10          0.714              1.611              1.248
 Vibration    11          0.769              1.463              0.951
 Vibration    12          0.836              1.294              0.710
 Vibration    13          0.881              1.193              0.597
 Vibration    14          0.933              1.083              0.492
 Vibration    15          0.969              1.010              0.432

 Normal termination of Gaussian 09 at Tue Jan 28 12:50:41 2020.
