 Gaussian 09, Revision D.01,
 Gaussian 09:  ES64L-G09RevD.01 24-Apr-2013

 -----------------------------
 # b3lyp 6-31G(2df,p) opt Freq
 -----------------------------

 -----
 titel
 -----
 Symbolic Z-matrix:
 Charge =  0 Multiplicity = 1

 SCF Done:  E(RB3LYP) =  -423.176156888     A.U. after   13 cycles
 Optimization completed.
    -- Stationary point found.
 Normal termination of Gaussian 09 at Tue Jan 28 09:49:21 2020.

 ----------------------------------------------------------------------
 #N Geom=AllCheck Guess=TCheck SCRF=Check GenChk RB3LYP/6-31G(2df,p) Fr
 eq
 ----------------------------------------------------------------------

 Structure from the checkpoint file:  "/scratch/puck/g09_1c79f21c-2a9e-4933-bf68-499ebcdd09cf/Gau-96481.chk"
 -----
 titel
 -----
 Charge =  0 Multiplicity = 1

                         Standard orientation:
 ---------------------------------------------------------------------
 Center     Atomic      Atomic             Coordinates (Angstroms)
 Number     Number       Type             X           Y           Z
 ---------------------------------------------------------------------
      1          6           0       -0.639772    2.188025    0.407544
      2          6           0        0.241237    1.026290    0.074478
      3          6           0        1.489523    1.045602   -0.405820
      4          6           0        2.060670   -0.339160   -0.632685
      5          6           0        0.944287   -1.250067   -0.140600
      6          8           0        0.629747   -1.102781    1.247112
      7          6           0       -0.191497   -0.403551    0.279962
      8          6           0       -1.640356   -0.820108    0.250943
      9          8           0       -2.305436   -0.371597   -0.921582
     10          1           0       -0.890111    2.204764    1.475962
     11          1           0       -0.157192    3.136866    0.158927
     12          1           0       -1.585687    2.122064   -0.141169
     13          1           0        2.068408    1.945823   -0.583892
     14          1           0        2.286052   -0.527653   -1.690754
     15          1           0        2.990945   -0.505376   -0.075637
     16          1           0        0.825870   -2.256646   -0.535929
     17          1           0       -1.701487   -1.910379    0.378005
     18          1           0       -2.179943   -0.363832    1.088041
     19          1           0       -1.835890   -0.732794   -1.680722
 ---------------------------------------------------------------------

 SCF Done:  E(RB3LYP) =  -423.176156888     A.U. after    1 cycles

 The electronic state is 1-A.
 Alpha  occ. eigenvalues --  -19.14715 -19.14414 -10.23596 -10.23493 -10.23334
 Alpha  occ. eigenvalues --  -10.19173 -10.18773 -10.18032 -10.17950  -1.06864
 Alpha  occ. eigenvalues --   -1.02310  -0.82344  -0.75260  -0.71694  -0.66582
 Alpha  occ. eigenvalues --   -0.63783  -0.57539  -0.54248  -0.50772  -0.48138
 Alpha  occ. eigenvalues --   -0.44232  -0.44089  -0.43989  -0.41477  -0.41260
 Alpha  occ. eigenvalues --   -0.39214  -0.38432  -0.35872  -0.35659  -0.33974
 Alpha  occ. eigenvalues --   -0.29806  -0.28477  -0.25538  -0.23548
 Alpha virt. eigenvalues --    0.00996   0.06884   0.10315   0.10775   0.11565
 Alpha virt. eigenvalues --    0.13266   0.14578   0.14941   0.16308   0.16795
 Alpha virt. eigenvalues --    0.17383   0.18976   0.20108   0.21799   0.22659

 Mulliken charges:
               1
     1  C   -0.515229
     2  C    0.300197
     3  C   -0.182739
     4  C   -0.291584
     5  C   -0.032083
     6  O   -0.300139
     7  C    0.281392
     8  C   -0.174452
     9  O   -0.408009
    10  H    0.129992
    11  H    0.121351
    12  H    0.147992
    13  H    0.092798
    14  H    0.107790
    15  H    0.125021
    16  H    0.089943
    17  H    0.102888
    18  H    0.119620
    19  H    0.285251
 Sum of Mulliken charges =   0.00000

 Dipole moment (field-independent basis, Debye):
    X=              0.7633    Y=             -0.1408    Z=             -1.7144  Tot=              1.8819
 Quadrupole moment (field-independent basis, Debye-Ang):
   XX=            -55.3747   YY=            -50.4745   ZZ=            -53.4260
   XY=              1.1172   XZ=             -3.4621   YZ=              3.8449

  Exact polarizability:  88.182  -3.587  78.627  -9.790   1.668  62.607
 Approx polarizability: 130.781  -7.075 107.646 -15.917  -0.344 103.500

                      1                      2                      3
                      A                      A                      A
 Frequencies --     96.9140               144.7310               186.0197
 Red. masses --      3.4676                 3.6209                 2.5187
 Frc consts  --      0.0192                 0.0447                 0.0514
 IR Inten    --      2.7811                 0.1168                 1.4175

                      4                      5                      6
                      A                      A                      A
 Frequencies --    204.0011               240.7772               295.6713
 Red. masses --      1.1732                 2.0893                 2.1447
 Frc consts  --      0.0288                 0.0714                 0.1105
 IR Inten    --      0.8753                 7.4765                 5.1118

                      7                      8                      9
                      A                      A                      A
 Frequencies --    330.6518               389.0583               403.4360
 Red. masses --      1.3091                 2.4964                 3.0573
 Frc consts  --      0.0843                 0.2226                 0.2932
 IR Inten    --     87.9796                 6.5487                32.1029

                     10                     11                     12
                      A                      A                      A
 Frequencies --    474.9564               564.0437               607.6540
 Red. masses --      4.7585                 4.7482                 4.0645
 Frc consts  --      0.6325                 0.8900                 0.8842
 IR Inten    --      6.6770                 8.6839                 1.7425

                     13                     14                     15
                      A                      A                      A
 Frequencies --    672.0123               758.8817               811.0210
 Red. masses --      3.6169                 4.6267                 1.3302
 Frc consts  --      0.9624                 1.5699                 0.5155
 IR Inten    --      9.8789                 4.3831                 1.9482

                     16                     17                     18
                      A                      A                      A
 Frequencies --    832.2707               875.9586               929.6108
 Red. masses --      3.6453                 2.5830                 2.3975
 Frc consts  --      1.4877                 1.1677                 1.2207
 IR Inten    --     12.1294                39.0814                 1.2621

                     19                     20                     21
                      A                      A                      A
 Frequencies --    947.6970               985.5325              1016.2970
 Red. masses --      2.0851                 1.4957                 2.0672
 Frc consts  --      1.1034                 0.8559                 1.2580
 IR Inten    --      8.1770                 6.4248                15.6802

                     22                     23                     24
                      A                      A                      A
 Frequencies --   1038.3441              1057.6932              1070.7414
 Red. masses --      1.4813                 2.8937                 1.5679
 Frc consts  --      0.9410                 1.9073                 1.0591
 IR Inten    --      4.6068                40.5491                 1.4889

                     25                     26                     27
                      A                      A                      A
 Frequencies --   1091.5235              1143.1741              1184.3070
 Red. masses --      2.3003                 3.4438                 1.2049
 Frc consts  --      1.6147                 2.6516                 0.9957
 IR Inten    --     28.4809                19.7011                 7.0181

                     28                     29                     30
                      A                      A                      A
 Frequencies --   1190.4574              1248.5990              1301.6330
 Red. masses --      1.2691                 1.6296                 1.6270
 Frc consts  --      1.0597                 1.4968                 1.6241
 IR Inten    --     18.3089                 2.9539                 5.6384

                     31                     32                     33
                      A                      A                      A
 Frequencies --   1313.4253              1343.3923              1369.2386
 Red. masses --      1.7274                 1.7802                 1.7093
 Frc consts  --      1.7558                 1.8928                 1.8881
 IR Inten    --      2.1913                 3.9289                 2.8608

                     34                     35                     36
                      A                      A                      A
 Frequencies --   1409.4261              1416.4925              1438.5515
 Red. masses --      1.2783                 1.3501                 3.3211
 Frc consts  --      1.4961                 1.5960                 4.0493
 IR Inten    --      8.9834                41.3645                 5.3879

                     37                     38                     39
                      A                      A                      A
 Frequencies --   1463.4706              1477.8415              1495.6783
 Red. masses --      1.1145                 1.0455                 1.0663
 Frc consts  --      1.4063                 1.3453                 1.4054
 IR Inten    --      1.9634                 5.8906                 9.2080

                     40                     41                     42
                      A                      A                      A
 Frequencies --   1506.2539              1705.8891              3006.6482
 Red. masses --      1.0807                 7.1596                 1.0664
 Frc consts  --      1.4446                12.2756                 5.6799
 IR Inten    --      0.0801                 0.7805                45.2274

                     43                     44                     45
                      A                      A                      A
 Frequencies --   3021.9839              3023.0860              3057.7910
 Red. masses --      1.0618                 1.0396                 1.0991
 Frc consts  --      5.7130                 5.5979                 6.0549
 IR Inten    --     30.5035                24.3651                14.4715

                     46                     47                     48
                      A                      A                      A
 Frequencies --   3072.1027              3079.2270              3115.9907
 Red. masses --      1.0967                 1.0952                 1.1011
 Frc consts  --      6.0982                 6.1184                 6.2988
 IR Inten    --     24.3138                11.1761                15.9033

                     49                     50                     51
                      A                      A                      A
 Frequencies --   3135.5006              3186.6418              3812.5214
 Red. masses --      1.0908                 1.0935                 1.0661
 Frc consts  --      6.3185                 6.5425                 9.1303
 IR Inten    --     29.4422                15.7332                14.6430

 - Thermochemistry -
 -------------------
 Temperature   298.150 Kelvin.  Pressure   1.00000 Atm.
 Atom     1 has atomic number  6 and mass  12.00000

 Molecular mass:   126.06808 amu.
 Principal axes and moments of inertia in atomic units:
                           1         2         3
     Eigenvalues --   810.849301109.530021500.86328
           X            0.99935  -0.00844  -0.03496
           Y            0.00988   0.99910   0.04130
           Z            0.03458  -0.04162   0.99854
 This molecule is an asymmetric top.
 Rotational symmetry number  1.
 Warning -- assumption of classical behavior for rotation
           may cause significant error
 Rotational temperatures (Kelvin)      0.10682     0.07806     0.05771
 Rotational constants (GHZ):           2.22574     1.62658     1.20247
 Zero-point vibrational energy     415970.4 (Joules/Mol)
                                   99.41931 (Kcal/Mol)
 Warning -- explicit consideration of  12 degrees of freedom as
           vibrations may cause significant error
 Vibrational temperatures:    139.44   208.24   267.64   293.51   346.42
          (Kelvin)            425.40   475.73   559.77   580.45   683.36
                              811.53   874.28   966.87  1091.86  1166.88
                             1197.45  1260.31  1337.50  1363.52  1417.96
                             1462.22  1493.94  1521.78  1540.56  1570.46
                             1644.77  1703.95  1712.80  1796.45  1872.76
                             1889.72  1932.84  1970.03  2027.85  2038.01
                             2069.75  2105.61  2126.28  2151.94  2167.16
                             2454.39  4325.89  4347.96  4349.54  4399.47
                             4420.07  4430.32  4483.21  4511.28  4584.86
                             5485.36

 Zero-point correction=                           0.158435 (Hartree/Particle)
 Thermal correction to Energy=                    0.167167
 Thermal correction to Enthalpy=                  0.168111
 Thermal correction to Gibbs Free Energy=         0.125323
 Sum of electronic and zero-point Energies=           -423.017722
 Sum of electronic and thermal Energies=              -423.008990
 Sum of electronic and thermal Enthalpies=            -423.008046
 Sum of electronic and thermal Free Energies=         -423.050833

                     E (Thermal)             CV                S
                      KCal/Mol        Cal/Mol-Kelvin    Cal/Mol-Kelvin
 Total                  104.899             33.275             90.054
 Electronic               0.000              0.000              0.000
 Translational            0.889              2.981             40.409
 Rotational               0.889              2.981             28.692
 Vibrational            103.121             27.313             20.953
 Vibration     1          0.603              1.951              3.515
 Vibration     2          0.616              1.908              2.740
 Vibration     3          0.632              1.859              2.267
 Vibration     4          0.640              1.834              2.097
 Vibration     5          0.658              1.778              1.797
 Vibration     6          0.690              1.682              1.441
 Vibration     7          0.713              1.614              1.257
 Vibration     8          0.757              1.494              1.004
 Vibration     9          0.769              1.463              0.950
 Vibration    10          0.832              1.306              0.724
 Vibration    11          0.920              1.109              0.516
 Vibration    12          0.966              1.016              0.437

 Optimization completed.
    -- Stationary point found.
 Normal termination of Gaussian 09 at Tue Jan 28 10:32:38 2020.
