 Gaussian 09, Revision D.01,
 Gaussian 09:  ES64L-G09RevD.01 24-Apr-2013

 -----------------------------
 # b3lyp 6-31G(2df,p) opt Freq
 -----------------------------

 -----
 titel
 -----
 Symbolic Z-matrix:
 Charge =  0 Multiplicity = 1

 SCF Done:  E(RB3LYP) =  -423.164052595     A.U. after   14 cycles
 Optimization completed.
    -- Stationary point found.
 Normal termination of Gaussian 09 at Mon Jan 27 16:17:07 2020.

 ----------------------------------------------------------------------
 #N Geom=AllCheck Guess=TCheck SCRF=Check GenChk RB3LYP/6-31G(2df,p) Fr
 eq
 ----------------------------------------------------------------------

 Structure from the checkpoint file:  "/scratch/puck/g09_6913a48b-8466-4dc4-adc6-3cfd83f4fb3b/Gau-176518.chk"
 -----
 titel
 -----
 Charge =  0 Multiplicity = 1

                         Standard orientation:
 ---------------------------------------------------------------------
 Center     Atomic      Atomic             Coordinates (Angstroms)
 Number     Number       Type             X           Y           Z
 ---------------------------------------------------------------------
      1          6           0        0.456181   -1.691326   -0.862412
      2          6           0        0.723085   -0.485163    0.027028
      3          6           0        1.461434   -0.860406    1.300300
      4          8           0        1.464372    0.524885   -0.764038
      5          6           0        0.351017    1.393157   -0.782535
      6          6           0       -0.011586    1.870937    0.564834
      7          6           0       -0.479020    0.474095    0.136494
      8          6           0       -1.902893    0.137819    0.093816
      9          8           0       -2.359818   -0.979511    0.180559
     10          1           0       -0.196447   -2.405682   -0.356374
     11          1           0       -0.029263   -1.386638   -1.792725
     12          1           0        1.405431   -2.176109   -1.109819
     13          1           0        2.423873   -1.318935    1.052508
     14          1           0        1.652489    0.008611    1.933463
     15          1           0        0.873230   -1.585102    1.871751
     16          1           0        0.083132    1.872044   -1.718051
     17          1           0        0.750474    1.972409    1.330215
     18          1           0       -0.816927    2.598784    0.612336
     19          1           0       -2.571729    1.022940   -0.020618
 ---------------------------------------------------------------------

 SCF Done:  E(RB3LYP) =  -423.164052595     A.U. after    1 cycles

 The electronic state is 1-A.
 Alpha  occ. eigenvalues --  -19.14843 -19.13425 -10.27231 -10.26333 -10.25589
 Alpha  occ. eigenvalues --  -10.21442 -10.21194 -10.18197 -10.17439  -1.06492
 Alpha  occ. eigenvalues --   -1.04069  -0.85469  -0.78800  -0.69919  -0.67396
 Alpha  occ. eigenvalues --   -0.62102  -0.61289  -0.52361  -0.51690  -0.49602
 Alpha  occ. eigenvalues --   -0.46160  -0.44569  -0.43423  -0.41831  -0.40506
 Alpha  occ. eigenvalues --   -0.39605  -0.38427  -0.37325  -0.36435  -0.36002
 Alpha  occ. eigenvalues --   -0.32823  -0.28223  -0.26050  -0.24429
 Alpha virt. eigenvalues --   -0.02500   0.07264   0.09222   0.10218   0.10471
 Alpha virt. eigenvalues --    0.12136   0.13033   0.14493   0.15454   0.17775
 Alpha virt. eigenvalues --    0.18177   0.18959   0.19721   0.20679   0.21860

 Mulliken charges:
               1
     1  C   -0.419407
     2  C    0.337904
     3  C   -0.437979
     4  O   -0.323818
     5  C    0.068467
     6  C   -0.361592
     7  C    0.150993
     8  C    0.055312
     9  O   -0.279081
    10  H    0.143114
    11  H    0.119887
    12  H    0.117784
    13  H    0.129386
    14  H    0.117726
    15  H    0.133810
    16  H    0.118847
    17  H    0.131618
    18  H    0.128279
    19  H    0.068750
 Sum of Mulliken charges =   0.00000

 Dipole moment (field-independent basis, Debye):
    X=              0.6234    Y=              1.9087    Z=              0.3620  Tot=              2.0403
 Quadrupole moment (field-independent basis, Debye-Ang):
   XX=            -60.5407   YY=            -51.0528   ZZ=            -51.9268
   XY=             -6.8353   XZ=              2.8349   YZ=             -0.0172

  Exact polarizability:  79.947  -0.409  85.628   0.899  -0.041  65.065
 Approx polarizability: 120.861  11.516 131.041  -5.581  -3.895  98.420

                      1                      2                      3
                      A                      A                      A
 Frequencies --     99.0109               168.3876               196.5685
 Red. masses --      4.5344                 2.3909                 1.3701
 Frc consts  --      0.0262                 0.0399                 0.0312
 IR Inten    --      6.0313                 5.4205                 1.2185

                      4                      5                      6
                      A                      A                      A
 Frequencies --    218.7716               228.9986               244.8596
 Red. masses --      2.3731                 2.5388                 1.1109
 Frc consts  --      0.0669                 0.0784                 0.0392
 IR Inten    --      2.0363                 2.2555                 0.4080

                      7                      8                      9
                      A                      A                      A
 Frequencies --    329.4965               352.8736               393.8514
 Red. masses --      2.6132                 2.3876                 2.5818
 Frc consts  --      0.1672                 0.1752                 0.2360
 IR Inten    --      0.1820                 0.7778                 4.0993

                     10                     11                     12
                      A                      A                      A
 Frequencies --    445.6345               487.1818               537.3818
 Red. masses --      3.2434                 2.9058                 3.7677
 Frc consts  --      0.3795                 0.4064                 0.6411
 IR Inten    --      1.2919                 9.4131                 9.6009

                     13                     14                     15
                      A                      A                      A
 Frequencies --    640.6813               705.7788               786.1359
 Red. masses --      3.6686                 3.7393                 4.6777
 Frc consts  --      0.8872                 1.0974                 1.7033
 IR Inten    --      1.0773                39.4201                 8.1582

                     16                     17                     18
                      A                      A                      A
 Frequencies --    824.0333               892.3170               919.8894
 Red. masses --      3.4957                 2.3677                 1.6275
 Frc consts  --      1.3986                 1.1107                 0.8114
 IR Inten    --     32.7644                23.3468                29.3892

                     19                     20                     21
                      A                      A                      A
 Frequencies --    944.9099               975.9198               993.2618
 Red. masses --      1.4463                 1.7410                 1.5151
 Frc consts  --      0.7608                 0.9769                 0.8807
 IR Inten    --      8.4890                17.5178                 5.1647

                     22                     23                     24
                      A                      A                      A
 Frequencies --   1008.7578              1029.8225              1057.3371
 Red. masses --      1.3651                 1.5866                 2.2034
 Frc consts  --      0.8184                 0.9914                 1.4514
 IR Inten    --      2.5646                16.6564                 2.4864

                     25                     26                     27
                      A                      A                      A
 Frequencies --   1060.9499              1100.4184              1157.1986
 Red. masses --      1.5937                 2.0603                 1.8439
 Frc consts  --      1.0569                 1.4699                 1.4548
 IR Inten    --     22.4401                40.7122                 5.0689

                     28                     29                     30
                      A                      A                      A
 Frequencies --   1222.9541              1233.3416              1260.4965
 Red. masses --      2.4100                 3.2984                 2.6521
 Frc consts  --      2.1237                 2.9561                 2.4827
 IR Inten    --      6.3736                14.5526                34.7324

                     31                     32                     33
                      A                      A                      A
 Frequencies --   1338.9553              1373.9035              1404.1439
 Red. masses --      2.4727                 2.2332                 1.3639
 Frc consts  --      2.6119                 2.4836                 1.5843
 IR Inten    --      7.8338                44.8096                19.9117

                     34                     35                     36
                      A                      A                      A
 Frequencies --   1415.6357              1439.2009              1466.9494
 Red. masses --      1.2320                 1.3256                 1.2004
 Frc consts  --      1.4547                 1.6177                 1.5220
 IR Inten    --      9.7620                11.6245                13.2929

                     37                     38                     39
                      A                      A                      A
 Frequencies --   1474.7149              1478.7707              1494.2755
 Red. masses --      1.1135                 1.0886                 1.0815
 Frc consts  --      1.4268                 1.4025                 1.4227
 IR Inten    --      4.7931                 4.0960                 4.2018

                     40                     41                     42
                      A                      A                      A
 Frequencies --   1503.2845              1792.3874              2853.1035
 Red. masses --      1.0613                10.3626                 1.0813
 Frc consts  --      1.4130                19.6147                 5.1861
 IR Inten    --      3.6587               234.1465               121.0216

                     43                     44                     45
                      A                      A                      A
 Frequencies --   3043.4868              3049.6326              3113.5016
 Red. masses --      1.0355                 1.0360                 1.1013
 Frc consts  --      5.6514                 5.6766                 6.2900
 IR Inten    --     12.0015                12.2496                 6.9889

                     46                     47                     48
                      A                      A                      A
 Frequencies --   3122.2261              3123.1229              3129.3162
 Red. masses --      1.0926                 1.0654                 1.0967
 Frc consts  --      6.2753                 6.1228                 6.3273
 IR Inten    --     18.8218                 6.0957                26.4896

                     49                     50                     51
                      A                      A                      A
 Frequencies --   3140.3315              3176.7822              3214.6168
 Red. masses --      1.1012                 1.0941                 1.1163
 Frc consts  --      6.3984                 6.5054                 6.7966
 IR Inten    --      8.8903                16.4503                 5.6886

 - Thermochemistry -
 -------------------
 Temperature   298.150 Kelvin.  Pressure   1.00000 Atm.
 Atom     1 has atomic number  6 and mass  12.00000

 Molecular mass:   126.06808 amu.
 Principal axes and moments of inertia in atomic units:
                           1         2         3
     Eigenvalues --   831.566261054.049111396.91053
           X            0.98506  -0.16767   0.03924
           Y            0.16700   0.98575   0.02000
           Z           -0.04204  -0.01315   0.99903
 This molecule is an asymmetric top.
 Rotational symmetry number  1.
 Warning -- assumption of classical behavior for rotation
           may cause significant error
 Rotational temperatures (Kelvin)      0.10416     0.08217     0.06200
 Rotational constants (GHZ):           2.17029     1.71220     1.29195
 Zero-point vibrational energy     410711.3 (Joules/Mol)
                                   98.16235 (Kcal/Mol)
 Warning -- explicit consideration of  12 degrees of freedom as
           vibrations may cause significant error
 Vibrational temperatures:    142.45   242.27   282.82   314.76   329.48
          (Kelvin)            352.30   474.07   507.71   566.66   641.17
                              700.95   773.17   921.80  1015.46  1131.07
                             1185.60  1283.84  1323.51  1359.51  1404.13
                             1429.08  1451.38  1481.68  1521.27  1526.47
                             1583.25  1664.95  1759.56  1774.50  1813.57
                             1926.46  1976.74  2020.25  2036.78  2070.69
                             2110.61  2121.78  2127.62  2149.93  2162.89
                             2578.84  4104.97  4378.89  4387.74  4479.63
                             4492.18  4493.47  4502.38  4518.23  4570.68
                             4625.11

 Zero-point correction=                           0.156432 (Hartree/Particle)
 Thermal correction to Energy=                    0.165392
 Thermal correction to Enthalpy=                  0.166337
 Thermal correction to Gibbs Free Energy=         0.123304
 Sum of electronic and zero-point Energies=           -423.007621
 Sum of electronic and thermal Energies=              -422.998660
 Sum of electronic and thermal Enthalpies=            -422.997716
 Sum of electronic and thermal Free Energies=         -423.040748

                     E (Thermal)             CV                S
                      KCal/Mol        Cal/Mol-Kelvin    Cal/Mol-Kelvin
 Total                  103.785             34.141             90.569
 Electronic               0.000              0.000              0.000
 Translational            0.889              2.981             40.409
 Rotational               0.889              2.981             28.595
 Vibrational            102.008             28.179             21.566
 Vibration     1          0.604              1.950              3.474
 Vibration     2          0.625              1.881              2.453
 Vibration     3          0.636              1.845              2.165
 Vibration     4          0.647              1.812              1.969
 Vibration     5          0.652              1.797              1.887
 Vibration     6          0.660              1.771              1.767
 Vibration     7          0.712              1.617              1.263
 Vibration     8          0.729              1.569              1.153
 Vibration     9          0.761              1.483              0.986
 Vibration    10          0.805              1.371              0.809
 Vibration    11          0.843              1.278              0.691
 Vibration    12          0.892              1.167              0.571

 Optimization completed.
    -- Stationary point found.
 Normal termination of Gaussian 09 at Mon Jan 27 16:59:15 2020.
