 Gaussian 09, Revision D.01,
 Gaussian 09:  ES64L-G09RevD.01 24-Apr-2013

 -----------------------------
 # b3lyp 6-31G(2df,p) opt Freq
 -----------------------------

 -----
 titel
 -----
 Symbolic Z-matrix:
 Charge =  0 Multiplicity = 1

 SCF Done:  E(RB3LYP) =  -423.191227874     A.U. after   14 cycles
 Optimization completed.
    -- Stationary point found.
 Normal termination of Gaussian 09 at Mon Jan 27 16:22:54 2020.

 ----------------------------------------------------------------------
 #N Geom=AllCheck Guess=TCheck SCRF=Check GenChk RB3LYP/6-31G(2df,p) Fr
 eq
 ----------------------------------------------------------------------

 Structure from the checkpoint file:  "/scratch/puck/g09_7ed45db1-2dca-4b48-a1a3-fd0f3449e2a3/Gau-83684.chk"
 -----
 titel
 -----
 Charge =  0 Multiplicity = 1

                         Standard orientation:
 ---------------------------------------------------------------------
 Center     Atomic      Atomic             Coordinates (Angstroms)
 Number     Number       Type             X           Y           Z
 ---------------------------------------------------------------------
      1          8           0       -0.709022   -1.506787   -0.001238
      2          6           0       -0.461708   -0.139074   -0.000971
      3          6           0       -1.772183    0.600088   -0.000784
      4          8           0       -2.825842    0.001106    0.001112
      5          6           0        0.601722    0.409190   -1.031759
      6          6           0        0.910539    1.528753   -0.000401
      7          6           0        0.600390    0.410053    1.031449
      8          6           0        1.760854   -0.575520    0.783759
      9          6           0        1.762041   -0.576018   -0.781671
     10          1           0       -1.676519   -1.596636    0.001765
     11          1           0       -1.750943    1.703808   -0.002079
     12          1           0        0.330167    0.621962   -2.066134
     13          1           0        1.930159    1.921615    0.000065
     14          1           0        0.205405    2.359741   -0.001205
     15          1           0        0.327265    0.623660    2.065233
     16          1           0        2.695723   -0.202985    1.211642
     17          1           0        1.554087   -1.563149    1.197792
     18          1           0        2.697444   -0.203459   -1.208359
     19          1           0        1.556201   -1.563945   -1.195450
 ---------------------------------------------------------------------

 SCF Done:  E(RB3LYP) =  -423.191227874     A.U. after    1 cycles

 The electronic state is 1-A.
 Alpha  occ. eigenvalues --  -19.15542 -19.13745 -10.27896 -10.24719 -10.20174
 Alpha  occ. eigenvalues --  -10.20173 -10.19251 -10.18264 -10.18246  -1.06947
 Alpha  occ. eigenvalues --   -1.02166  -0.89042  -0.73828  -0.69712  -0.68029
 Alpha  occ. eigenvalues --   -0.61234  -0.55961  -0.54094  -0.53045  -0.50892
 Alpha  occ. eigenvalues --   -0.48446  -0.44669  -0.43402  -0.41960  -0.38911
 Alpha  occ. eigenvalues --   -0.37334  -0.35313  -0.34948  -0.33876  -0.33529
 Alpha  occ. eigenvalues --   -0.33311  -0.31294  -0.26872  -0.26103
 Alpha virt. eigenvalues --   -0.03569   0.09044   0.10661   0.10850   0.13256
 Alpha virt. eigenvalues --    0.13753   0.13948   0.14776   0.15631   0.17008
 Alpha virt. eigenvalues --    0.18873   0.19627   0.20510   0.21435   0.22564

 Mulliken charges:
               1
     1  O   -0.498797
     2  C    0.393002
     3  C    0.082377
     4  O   -0.289136
     5  C   -0.091199
     6  C   -0.250021
     7  C   -0.091272
     8  C   -0.211901
     9  C   -0.211915
    10  H    0.291736
    11  H    0.101914
    12  H    0.069901
    13  H    0.101133
    14  H    0.102313
    15  H    0.069918
    16  H    0.095721
    17  H    0.120231
    18  H    0.095722
    19  H    0.120273
 Sum of Mulliken charges =   0.00000

 Dipole moment (field-independent basis, Debye):
    X=              1.6187    Y=              1.6920    Z=              0.0012  Tot=              2.3416
 Quadrupole moment (field-independent basis, Debye-Ang):
   XX=            -58.4742   YY=            -52.9968   ZZ=            -52.2209
   XY=             -0.3373   XZ=              0.0010   YZ=             -0.0099

  Exact polarizability:  90.546   0.836  73.773  -0.004  -0.009  64.292
 Approx polarizability: 132.718   6.596 112.740  -0.012  -0.009  97.754

                      1                      2                      3
                      A                      A                      A
 Frequencies --    100.6284               234.0744               238.7778
 Red. masses --      6.4417                 4.0757                 2.4728
 Frc consts  --      0.0384                 0.1316                 0.0831
 IR Inten    --      0.1002                 2.5741                 3.9881

                      4                      5                      6
                      A                      A                      A
 Frequencies --    297.0732               358.1549               407.7862
 Red. masses --      1.8127                 5.2601                 2.3970
 Frc consts  --      0.0943                 0.3975                 0.2348
 IR Inten    --      0.0440                16.1096                14.3338

                      7                      8                      9
                      A                      A                      A
 Frequencies --    415.6163               484.9055               530.3070
 Red. masses --      4.9451                 2.1452                 1.1262
 Frc consts  --      0.5033                 0.2972                 0.1866
 IR Inten    --      3.5301                 2.6467                53.7677

                     10                     11                     12
                      A                      A                      A
 Frequencies --    563.9265               696.5213               803.2783
 Red. masses --      3.9628                 4.0047                 3.7381
 Frc consts  --      0.7425                 1.1447                 1.4211
 IR Inten    --     15.3535                 0.0157                 0.3747

                     13                     14                     15
                      A                      A                      A
 Frequencies --    825.1761               833.9488               840.1751
 Red. masses --      2.4072                 1.6743                 2.9073
 Frc consts  --      0.9657                 0.6861                 1.2092
 IR Inten    --     13.8959                 5.0546                14.3833

                     16                     17                     18
                      A                      A                      A
 Frequencies --    861.7390               908.9343               950.4350
 Red. masses --      2.3370                 3.0220                 1.7638
 Frc consts  --      1.0225                 1.4710                 0.9388
 IR Inten    --      1.7908                 2.7185                 0.0392

                     19                     20                     21
                      A                      A                      A
 Frequencies --    952.2755               975.6780               990.8532
 Red. masses --      2.6097                 2.3698                 1.2920
 Frc consts  --      1.3943                 1.3291                 0.7474
 IR Inten    --     11.8549                 8.6863                 0.3941

                     22                     23                     24
                      A                      A                      A
 Frequencies --   1033.9540              1051.8600              1056.1445
 Red. masses --      1.5901                 1.7741                 2.3231
 Frc consts  --      1.0015                 1.1565                 1.5267
 IR Inten    --      3.5766                 0.4215                33.3732

                     25                     26                     27
                      A                      A                      A
 Frequencies --   1104.6678              1148.6822              1161.9767
 Red. masses --      1.2494                 1.2942                 1.7890
 Frc consts  --      0.8983                 1.0061                 1.4232
 IR Inten    --      0.1231                30.9748                 0.1777

                     28                     29                     30
                      A                      A                      A
 Frequencies --   1211.1806              1215.8038              1244.1562
 Red. masses --      1.7907                 1.5355                 2.4344
 Frc consts  --      1.5477                 1.3373                 2.2202
 IR Inten    --     16.2172                 2.7704                28.9972

                     31                     32                     33
                      A                      A                      A
 Frequencies --   1255.5361              1260.2087              1290.9909
 Red. masses --      1.3325                 1.3211                 2.5146
 Frc consts  --      1.2375                 1.2362                 2.4692
 IR Inten    --      0.2416                 0.3416                16.9201

                     34                     35                     36
                      A                      A                      A
 Frequencies --   1311.4537              1334.7155              1387.7987
 Red. masses --      1.4880                 1.5099                 1.2104
 Frc consts  --      1.5079                 1.5848                 1.3735
 IR Inten    --      2.2434                 7.5161               104.7580

                     37                     38                     39
                      A                      A                      A
 Frequencies --   1445.0793              1481.3362              1497.3464
 Red. masses --      1.4015                 1.0817                 1.1025
 Frc consts  --      1.7244                 1.3985                 1.4564
 IR Inten    --     20.4090                 0.7808                 2.5235

                     40                     41                     42
                      A                      A                      A
 Frequencies --   1520.3527              1786.1729              2979.5045
 Red. masses --      1.1115                10.1773                 1.0859
 Frc consts  --      1.5138                19.1307                 5.6799
 IR Inten    --      2.7458               210.5110                50.6352

                     43                     44                     45
                      A                      A                      A
 Frequencies --   3060.6345              3069.6302              3074.2913
 Red. masses --      1.0640                 1.0635                 1.0611
 Frc consts  --      5.8724                 5.9042                 5.9086
 IR Inten    --     19.5028                38.1730                35.9893

                     46                     47                     48
                      A                      A                      A
 Frequencies --   3110.9940              3114.4362              3119.1964
 Red. masses --      1.0883                 1.0926                 1.1008
 Frc consts  --      6.2060                 6.2438                 6.3102
 IR Inten    --     70.7622                 4.9420                 6.5750

                     49                     50                     51
                      A                      A                      A
 Frequencies --   3133.4669              3136.7223              3664.8400
 Red. masses --      1.1021                 1.1036                 1.0645
 Frc consts  --      6.3758                 6.3975                 8.4237
 IR Inten    --     28.3372                24.9905                94.5857

 - Thermochemistry -
 -------------------
 Temperature   298.150 Kelvin.  Pressure   1.00000 Atm.
 Atom     1 has atomic number  8 and mass  15.99491

 Molecular mass:   126.06808 amu.
 Principal axes and moments of inertia in atomic units:
                           1         2         3
     Eigenvalues --   557.637581259.795081426.88179
           X            0.99997  -0.00771   0.00001
           Y            0.00771   0.99997  -0.00019
           Z           -0.00001   0.00019   1.00000
 This molecule is an asymmetric top.
 Rotational symmetry number  1.
 Warning -- assumption of classical behavior for rotation
           may cause significant error
 Rotational temperatures (Kelvin)      0.15532     0.06875     0.06070
 Rotational constants (GHZ):           3.23641     1.43257     1.26481
 Zero-point vibrational energy     421883.4 (Joules/Mol)
                                  100.83255 (Kcal/Mol)
 Warning -- explicit consideration of  10 degrees of freedom as
           vibrations may cause significant error
 Vibrational temperatures:    144.78   336.78   343.55   427.42   515.30
          (Kelvin)            586.71   597.98   697.67   762.99   811.36
                             1002.14  1155.74  1187.24  1199.86  1208.82
                             1239.85  1307.75  1367.46  1370.11  1403.78
                             1425.62  1487.63  1513.39  1519.55  1589.37
                             1652.70  1671.82  1742.62  1749.27  1790.06
                             1806.43  1813.16  1857.45  1886.89  1920.36
                             1996.73  2079.14  2131.31  2154.34  2187.45
                             2569.90  4286.84  4403.56  4416.51  4423.21
                             4476.02  4480.97  4487.82  4508.35  4513.04
                             5272.88

 Zero-point correction=                           0.160687 (Hartree/Particle)
 Thermal correction to Energy=                    0.168229
 Thermal correction to Enthalpy=                  0.169173
 Thermal correction to Gibbs Free Energy=         0.128969
 Sum of electronic and zero-point Energies=           -423.030541
 Sum of electronic and thermal Energies=              -423.022999
 Sum of electronic and thermal Enthalpies=            -423.022055
 Sum of electronic and thermal Free Energies=         -423.062259

                     E (Thermal)             CV                S
                      KCal/Mol        Cal/Mol-Kelvin    Cal/Mol-Kelvin
 Total                  105.565             30.684             84.618
 Electronic               0.000              0.000              0.000
 Translational            0.889              2.981             40.409
 Rotational               0.889              2.981             28.396
 Vibrational            103.788             24.722             15.813
 Vibration     1          0.604              1.949              3.442
 Vibration     2          0.654              1.789              1.847
 Vibration     3          0.657              1.781              1.812
 Vibration     4          0.691              1.679              1.433
 Vibration     5          0.733              1.558              1.130
 Vibration     6          0.772              1.453              0.934
 Vibration     7          0.779              1.436              0.907
 Vibration     8          0.841              1.284              0.697
 Vibration     9          0.885              1.183              0.587
 Vibration    10          0.920              1.109              0.516

 Normal termination of Gaussian 09 at Mon Jan 27 17:09:41 2020.
