 Gaussian 09, Revision D.01,
 Gaussian 09:  ES64L-G09RevD.01 24-Apr-2013

 -----------------------------
 # b3lyp 6-31G(2df,p) opt Freq
 -----------------------------

 -----
 titel
 -----
 Symbolic Z-matrix:
 Charge =  0 Multiplicity = 1

 SCF Done:  E(RB3LYP) =  -423.218286150     A.U. after   14 cycles
 Optimization completed.
    -- Stationary point found.
 Normal termination of Gaussian 09 at Tue Jan 28 11:44:35 2020.

 ----------------------------------------------------------------------
 #N Geom=AllCheck Guess=TCheck SCRF=Check GenChk RB3LYP/6-31G(2df,p) Fr
 eq
 ----------------------------------------------------------------------

 Structure from the checkpoint file:  "/scratch/puck/g09_5164844f-5a20-4c31-ac36-52865652123a/Gau-26503.chk"
 -----
 titel
 -----
 Charge =  0 Multiplicity = 1

                         Standard orientation:
 ---------------------------------------------------------------------
 Center     Atomic      Atomic             Coordinates (Angstroms)
 Number     Number       Type             X           Y           Z
 ---------------------------------------------------------------------
      1          8           0       -1.758012   -0.336780    1.382925
      2          6           0       -2.255608    0.060192    0.115625
      3          6           0       -1.079253    0.289458   -0.848113
      4          6           0       -0.244303   -0.977213   -1.129912
      5          6           0        0.828205   -1.241563   -0.063548
      6          6           0        1.707393   -0.025819    0.187314
      7          8           0        2.872189   -0.120061    0.521207
      8          6           0        1.046316    1.292100    0.051969
      9          6           0       -0.209711    1.430478   -0.387128
     10          1           0       -2.504527   -0.498166    1.966891
     11          1           0       -2.914100   -0.711124   -0.314230
     12          1           0       -2.843077    0.989226    0.195103
     13          1           0       -1.555636    0.599555   -1.789498
     14          1           0       -0.905376   -1.845651   -1.224538
     15          1           0        0.246712   -0.851018   -2.102284
     16          1           0        0.343898   -1.482655    0.889251
     17          1           0        1.472695   -2.081994   -0.334067
     18          1           0        1.645401    2.148118    0.347612
     19          1           0       -0.657635    2.422628   -0.424539
 ---------------------------------------------------------------------

 SCF Done:  E(RB3LYP) =  -423.218286150     A.U. after    1 cycles

 The electronic state is 1-A.
 Alpha  occ. eigenvalues --  -19.14834 -19.11015 -10.25180 -10.24243 -10.20503
 Alpha  occ. eigenvalues --  -10.20436 -10.18955 -10.18321 -10.17581  -1.02983
 Alpha  occ. eigenvalues --   -1.01909  -0.83970  -0.75400  -0.74855  -0.66148
 Alpha  occ. eigenvalues --   -0.61502  -0.57782  -0.53416  -0.50059  -0.47867
 Alpha  occ. eigenvalues --   -0.46167  -0.44757  -0.42463  -0.41367  -0.40252
 Alpha  occ. eigenvalues --   -0.39923  -0.37430  -0.36861  -0.33796  -0.33198
 Alpha  occ. eigenvalues --   -0.31875  -0.28051  -0.26429  -0.22835
 Alpha virt. eigenvalues --   -0.04166   0.06054   0.07235   0.09278   0.12542
 Alpha virt. eigenvalues --    0.12744   0.13539   0.15598   0.16939   0.17331
 Alpha virt. eigenvalues --    0.18512   0.18879   0.20464   0.21124   0.21827

 Mulliken charges:
               1
     1  O   -0.406600
     2  C   -0.083835
     3  C   -0.050488
     4  C   -0.236658
     5  C   -0.308238
     6  C    0.378081
     7  O   -0.337159
     8  C   -0.147363
     9  C   -0.033663
    10  H    0.292319
    11  H    0.091666
    12  H    0.088899
    13  H    0.086753
    14  H    0.097783
    15  H    0.106302
    16  H    0.147175
    17  H    0.112083
    18  H    0.102333
    19  H    0.100609
 Sum of Mulliken charges =   0.00000

 Dipole moment (field-independent basis, Debye):
    X=             -5.0458    Y=              0.3217    Z=             -0.9424  Tot=              5.1431
 Quadrupole moment (field-independent basis, Debye-Ang):
   XX=            -57.3944   YY=            -50.3670   ZZ=            -51.5538
   XY=              0.9156   XZ=             -4.5041   YZ=             -0.3527

  Exact polarizability:  98.487  -3.501  75.165   7.880   0.126  62.280
 Approx polarizability: 155.369 -10.279 106.800  19.097  -3.083  95.818

                      1                      2                      3
                      A                      A                      A
 Frequencies --     62.9734               107.1738               188.2889
 Red. masses --      5.7090                 3.9007                 4.6266
 Frc consts  --      0.0133                 0.0264                 0.0966
 IR Inten    --      0.9750                 3.4424                 9.5361

                      4                      5                      6
                      A                      A                      A
 Frequencies --    210.8845               241.0056               302.8875
 Red. masses --      2.0818                 1.1656                 2.9916
 Frc consts  --      0.0545                 0.0399                 0.1617
 IR Inten    --      6.6889                87.5725                 5.0604

                      7                      8                      9
                      A                      A                      A
 Frequencies --    373.9824               413.3528               446.6027
 Red. masses --      2.1038                 2.8786                 4.9552
 Frc consts  --      0.1734                 0.2898                 0.5823
 IR Inten    --      3.8700                 5.2626                 4.2571

                     10                     11                     12
                      A                      A                      A
 Frequencies --    481.0200               580.5820               680.2867
 Red. masses --      3.2988                 3.2684                 2.9457
 Frc consts  --      0.4497                 0.6491                 0.8032
 IR Inten    --      5.7948                 0.2332                 4.6527

                     13                     14                     15
                      A                      A                      A
 Frequencies --    724.1912               750.4293               771.2731
 Red. masses --      3.0539                 2.2067                 2.7805
 Frc consts  --      0.9437                 0.7322                 0.9745
 IR Inten    --      0.4053                 5.5383                 3.5737

                     16                     17                     18
                      A                      A                      A
 Frequencies --    863.8563               916.2128               937.5271
 Red. masses --      1.8484                 1.9544                 2.3644
 Frc consts  --      0.8127                 0.9666                 1.2245
 IR Inten    --     46.1628                 8.2015                 1.3210

                     19                     20                     21
                      A                      A                      A
 Frequencies --    991.2647              1013.5683              1025.8652
 Red. masses --      2.7533                 2.0650                 1.4047
 Frc consts  --      1.5940                 1.2499                 0.8710
 IR Inten    --      2.0378                11.6290                 2.3544

                     22                     23                     24
                      A                      A                      A
 Frequencies --   1039.2906              1107.0723              1125.5978
 Red. masses --      1.7860                 3.0657                 1.7551
 Frc consts  --      1.1366                 2.2137                 1.3102
 IR Inten    --      5.7822                42.1936                 2.9800

                     25                     26                     27
                      A                      A                      A
 Frequencies --   1139.5293              1192.2864              1225.8249
 Red. masses --      1.2921                 1.1417                 1.1933
 Frc consts  --      0.9885                 0.9562                 1.0565
 IR Inten    --     20.1777                 4.9240                20.6352

                     28                     29                     30
                      A                      A                      A
 Frequencies --   1240.1147              1256.6222              1269.1032
 Red. masses --      1.3504                 1.5720                 1.2778
 Frc consts  --      1.2236                 1.4626                 1.2126
 IR Inten    --     19.4165                32.7463                 3.3670

                     31                     32                     33
                      A                      A                      A
 Frequencies --   1334.6046              1362.3035              1365.3374
 Red. masses --      1.4041                 1.4759                 1.6978
 Frc consts  --      1.4735                 1.6138                 1.8647
 IR Inten    --     12.3042                 9.4845                 6.7471

                     34                     35                     36
                      A                      A                      A
 Frequencies --   1384.2021              1408.2450              1447.2151
 Red. masses --      1.4271                 1.6842                 1.2937
 Frc consts  --      1.6110                 1.9678                 1.5964
 IR Inten    --      3.8595                10.8091                 7.4614

                     37                     38                     39
                      A                      A                      A
 Frequencies --   1462.9440              1493.2513              1517.6461
 Red. masses --      1.1445                 1.0987                 1.0835
 Frc consts  --      1.4432                 1.4434                 1.4703
 IR Inten    --      7.8108                 5.6929                 2.9466

                     40                     41                     42
                      A                      A                      A
 Frequencies --   1688.1817              1778.4264              2963.1201
 Red. masses --      7.0398                11.4532                 1.0556
 Frc consts  --     11.8209                21.3428                 5.4607
 IR Inten    --     13.7666               230.4201                58.0747

                     43                     44                     45
                      A                      A                      A
 Frequencies --   2995.3080              3001.1735              3031.9757
 Red. masses --      1.1067                 1.0806                 1.0622
 Frc consts  --      5.8500                 5.7345                 5.7530
 IR Inten    --     52.6226                29.6953                43.9591

                     46                     47                     48
                      A                      A                      A
 Frequencies --   3053.0979              3071.2430              3108.3248
 Red. masses --      1.0648                 1.0969                 1.1025
 Frc consts  --      5.8481                 6.0960                 6.2758
 IR Inten    --     12.5098                28.7565                13.7048

                     49                     50                     51
                      A                      A                      A
 Frequencies --   3135.1735              3183.5314              3834.8063
 Red. masses --      1.0869                 1.0944                 1.0665
 Frc consts  --      6.2947                 6.5352                 9.2402
 IR Inten    --     16.1548                11.8528                29.4353

 - Thermochemistry -
 -------------------
 Temperature   298.150 Kelvin.  Pressure   1.00000 Atm.
 Atom     1 has atomic number  8 and mass  15.99491

 Molecular mass:   126.06808 amu.
 Principal axes and moments of inertia in atomic units:
                           1         2         3
     Eigenvalues --   631.306981503.461121594.55046
           X            1.00000  -0.00201  -0.00145
           Y            0.00210   0.99821   0.05981
           Z            0.00133  -0.05981   0.99821
 This molecule is an asymmetric top.
 Rotational symmetry number  1.
 Warning -- assumption of classical behavior for rotation
           may cause significant error
 Rotational temperatures (Kelvin)      0.13720     0.05761     0.05432
 Rotational constants (GHZ):           2.85874     1.20039     1.13182
 Zero-point vibrational energy     420480.1 (Joules/Mol)
                                  100.49715 (Kcal/Mol)
 Warning -- explicit consideration of  11 degrees of freedom as
           vibrations may cause significant error
 Vibrational temperatures:     90.60   154.20   270.91   303.42   346.75
          (Kelvin)            435.79   538.08   594.72   642.56   692.08
                              835.33   978.78  1041.95  1079.70  1109.69
                             1242.89  1318.22  1348.89  1426.21  1458.30
                             1475.99  1495.31  1592.83  1619.48  1639.53
                             1715.43  1763.69  1784.25  1808.00  1825.95
                             1920.20  1960.05  1964.41  1991.56  2026.15
                             2082.22  2104.85  2148.45  2183.55  2428.91
                             2558.76  4263.26  4309.57  4318.01  4362.33
                             4392.72  4418.83  4472.18  4510.81  4580.39
                             5517.42

 Zero-point correction=                           0.160152 (Hartree/Particle)
 Thermal correction to Energy=                    0.168772
 Thermal correction to Enthalpy=                  0.169716
 Thermal correction to Gibbs Free Energy=         0.126615
 Sum of electronic and zero-point Energies=           -423.058134
 Sum of electronic and thermal Energies=              -423.049514
 Sum of electronic and thermal Enthalpies=            -423.048570
 Sum of electronic and thermal Free Energies=         -423.091671

                     E (Thermal)             CV                S
                      KCal/Mol        Cal/Mol-Kelvin    Cal/Mol-Kelvin
 Total                  105.906             32.375             90.713
 Electronic               0.000              0.000              0.000
 Translational            0.889              2.981             40.409
 Rotational               0.889              2.981             28.805
 Vibrational            104.129             26.413             21.500
 Vibration     1          0.597              1.972              4.362
 Vibration     2          0.606              1.943              3.319
 Vibration     3          0.633              1.856              2.245
 Vibration     4          0.643              1.824              2.036
 Vibration     5          0.658              1.778              1.795
 Vibration     6          0.694              1.668              1.401
 Vibration     7          0.745              1.525              1.063
 Vibration     8          0.777              1.441              0.915
 Vibration     9          0.806              1.368              0.806
 Vibration    10          0.837              1.292              0.707
 Vibration    11          0.937              1.073              0.484

 Normal termination of Gaussian 09 at Tue Jan 28 12:27:31 2020.
