 Gaussian 09, Revision D.01,
 Gaussian 09:  ES64L-G09RevD.01 24-Apr-2013

 -----------------------------
 # b3lyp 6-31G(2df,p) opt Freq
 -----------------------------

 -----
 titel
 -----
 Symbolic Z-matrix:
 Charge =  0 Multiplicity = 1

 SCF Done:  E(RB3LYP) =  -423.128380182     A.U. after   14 cycles
 Optimization completed.
    -- Stationary point found.
 Normal termination of Gaussian 09 at Tue Jan 28 08:53:43 2020.

 ----------------------------------------------------------------------
 #N Geom=AllCheck Guess=TCheck SCRF=Check GenChk RB3LYP/6-31G(2df,p) Fr
 eq
 ----------------------------------------------------------------------

 Structure from the checkpoint file:  "/scratch/puck/g09_677dd2bf-760d-4b4a-9659-e98c1dfa5e61/Gau-103812.chk"
 -----
 titel
 -----
 Charge =  0 Multiplicity = 1

                         Standard orientation:
 ---------------------------------------------------------------------
 Center     Atomic      Atomic             Coordinates (Angstroms)
 Number     Number       Type             X           Y           Z
 ---------------------------------------------------------------------
      1          6           0       -2.713209    1.006608    0.071271
      2          6           0       -1.257317    0.969259   -0.406401
      3          6           0       -0.543615   -0.300713   -0.000935
      4          8           0       -1.055558   -1.461277   -0.620947
      5          6           0        0.064542   -0.455642    1.369819
      6          6           0        0.976285   -0.371397    0.141918
      7          8           0        1.576276   -1.556716   -0.285833
      8          6           0        1.784428    0.800732   -0.058900
      9          6           0        2.463807    1.780904   -0.213504
     10          1           0       -3.279813    0.164725   -0.339235
     11          1           0       -2.775343    0.957467    1.163987
     12          1           0       -3.206802    1.927744   -0.251029
     13          1           0       -1.221411    1.047847   -1.499527
     14          1           0       -0.703161    1.826278   -0.012355
     15          1           0       -1.634391   -1.915455   -0.000588
     16          1           0        0.023344    0.390691    2.046581
     17          1           0        0.033721   -1.434227    1.838447
     18          1           0        0.878938   -2.040478   -0.753852
     19          1           0        3.069646    2.640842   -0.357799
 ---------------------------------------------------------------------

 SCF Done:  E(RB3LYP) =  -423.128380182     A.U. after    1 cycles

 The electronic state is 1-A.
 Alpha  occ. eigenvalues --  -19.16745 -19.13684 -10.25987 -10.25284 -10.19339
 Alpha  occ. eigenvalues --  -10.18795 -10.18070 -10.18037 -10.17328  -1.05930
 Alpha  occ. eigenvalues --   -1.01932  -0.85302  -0.76678  -0.74325  -0.65231
 Alpha  occ. eigenvalues --   -0.63561  -0.59440  -0.53279  -0.52757  -0.49655
 Alpha  occ. eigenvalues --   -0.49068  -0.44588  -0.42863  -0.41188  -0.40257
 Alpha  occ. eigenvalues --   -0.38739  -0.36287  -0.35803  -0.34700  -0.31579
 Alpha  occ. eigenvalues --   -0.29856  -0.27551  -0.26845  -0.23036
 Alpha virt. eigenvalues --    0.03432   0.04486   0.06686   0.10628   0.12039
 Alpha virt. eigenvalues --    0.12946   0.13172   0.14192   0.15298   0.15490
 Alpha virt. eigenvalues --    0.16200   0.17927   0.18863   0.21479   0.22034

 Mulliken charges:
               1
     1  C   -0.389963
     2  C   -0.226368
     3  C    0.303127
     4  O   -0.476014
     5  C   -0.409308
     6  C    0.191324
     7  O   -0.464652
     8  C    0.330162
     9  C   -0.461954
    10  H    0.116540
    11  H    0.115349
    12  H    0.118609
    13  H    0.112292
    14  H    0.114383
    15  H    0.295747
    16  H    0.126912
    17  H    0.117923
    18  H    0.291443
    19  H    0.194449
 Sum of Mulliken charges =   0.00000

 Dipole moment (field-independent basis, Debye):
    X=             -2.5598    Y=              0.3210    Z=              1.0053  Tot=              2.7688
 Quadrupole moment (field-independent basis, Debye-Ang):
   XX=            -54.9674   YY=            -47.9821   ZZ=            -53.6146
   XY=              6.2856   XZ=             -1.4449   YZ=             -1.6054

  Exact polarizability:  89.581  12.394  83.288  -3.176  -3.021  62.754
 Approx polarizability: 121.040  25.625 128.938  -5.790  -3.545  96.007

                      1                      2                      3
                      A                      A                      A
 Frequencies --     88.3818               120.2372               126.3259
 Red. masses --      2.2652                 3.5675                 4.1445
 Frc consts  --      0.0104                 0.0304                 0.0390
 IR Inten    --      0.2930                 0.4011                 3.0604

                      4                      5                      6
                      A                      A                      A
 Frequencies --    195.5943               207.5309               233.8820
 Red. masses --      1.4506                 2.3846                 1.1760
 Frc consts  --      0.0327                 0.0605                 0.0379
 IR Inten    --     27.6151                14.8464                15.5048

                      7                      8                      9
                      A                      A                      A
 Frequencies --    293.6894               301.2428               354.3629
 Red. masses --      3.3186                 3.9152                 3.9935
 Frc consts  --      0.1686                 0.2093                 0.2955
 IR Inten    --      4.5317                 6.0152                 0.0711

                     10                     11                     12
                      A                      A                      A
 Frequencies --    393.1805               441.8131               468.3187
 Red. masses --      1.9645                 1.7674                 2.0519
 Frc consts  --      0.1789                 0.2033                 0.2651
 IR Inten    --     11.8878                20.2975                53.5215

                     13                     14                     15
                      A                      A                      A
 Frequencies --    477.7659               553.6421               584.8683
 Red. masses --      2.7609                 4.8856                 1.2594
 Frc consts  --      0.3713                 0.8823                 0.2538
 IR Inten    --      6.0628                 4.9339                41.2144

                     16                     17                     18
                      A                      A                      A
 Frequencies --    631.6271               676.8997               713.3553
 Red. masses --      4.0538                 1.2642                 3.5747
 Frc consts  --      0.9529                 0.3413                 1.0718
 IR Inten    --      4.0706                32.9958                 8.0672

                     19                     20                     21
                      A                      A                      A
 Frequencies --    752.1873               791.8548               876.2544
 Red. masses --      3.2878                 1.3622                 2.8948
 Frc consts  --      1.0960                 0.5032                 1.3096
 IR Inten    --     21.0695                 3.0644                18.7849

                     22                     23                     24
                      A                      A                      A
 Frequencies --    903.1637               922.1794               989.3322
 Red. masses --      1.6181                 1.7574                 1.9753
 Frc consts  --      0.7777                 0.8806                 1.1391
 IR Inten    --     15.7443                14.4483                 8.5538

                     25                     26                     27
                      A                      A                      A
 Frequencies --   1026.2479              1049.3523              1090.5427
 Red. masses --      1.6974                 1.6234                 1.9538
 Frc consts  --      1.0532                 1.0532                 1.3690
 IR Inten    --      6.6489                15.1409                10.2080

                     28                     29                     30
                      A                      A                      A
 Frequencies --   1133.6508              1190.9545              1247.2791
 Red. masses --      2.6367                 2.6151                 2.0715
 Frc consts  --      1.9965                 2.1854                 1.8987
 IR Inten    --     26.8696               158.6618                42.4015

                     31                     32                     33
                      A                      A                      A
 Frequencies --   1279.2267              1327.5566              1349.9910
 Red. masses --      1.6758                 1.6765                 1.6139
 Frc consts  --      1.6157                 1.7409                 1.7330
 IR Inten    --      5.6413                19.8673                19.3241

                     34                     35                     36
                      A                      A                      A
 Frequencies --   1381.7844              1405.6089              1416.3945
 Red. masses --      1.8480                 1.2462                 1.3650
 Frc consts  --      2.0789                 1.4506                 1.6135
 IR Inten    --      1.5725                 4.2997                61.3370

                     37                     38                     39
                      A                      A                      A
 Frequencies --   1458.6625              1477.9381              1499.7696
 Red. masses --      1.4794                 1.0788                 1.0458
 Frc consts  --      1.8546                 1.3883                 1.3860
 IR Inten    --     23.5081                 3.0016                 4.5828

                     40                     41                     42
                      A                      A                      A
 Frequencies --   1510.2918              2236.1754              3034.3508
 Red. masses --      1.0616                 6.0166                 1.0376
 Frc consts  --      1.4267                17.7262                 5.6287
 IR Inten    --      3.0790                 4.1057                20.4803

                     43                     44                     45
                      A                      A                      A
 Frequencies --   3041.4369              3085.8829              3106.8832
 Red. masses --      1.0619                 1.0975                 1.1019
 Frc consts  --      5.7875                 6.1578                 6.2667
 IR Inten    --     19.7281                 0.4962                37.2108

                     46                     47                     48
                      A                      A                      A
 Frequencies --   3112.6184              3126.9685              3224.5976
 Red. masses --      1.1008                 1.0538                 1.1181
 Frc consts  --      6.2837                 6.0707                 6.8499
 IR Inten    --     27.5829                 4.2551                 3.7639

                     49                     50                     51
                      A                      A                      A
 Frequencies --   3503.5160              3712.9480              3819.7929
 Red. masses --      1.1605                 1.0647                 1.0667
 Frc consts  --      8.3930                 8.6477                 9.1698
 IR Inten    --     75.1759                72.0066                32.9952

 - Thermochemistry -
 -------------------
 Temperature   298.150 Kelvin.  Pressure   1.00000 Atm.
 Atom     1 has atomic number  6 and mass  12.00000

 Molecular mass:   126.06808 amu.
 Principal axes and moments of inertia in atomic units:
                           1         2         3
     Eigenvalues --   780.186811354.440151813.68446
           X            0.99984  -0.01734  -0.00412
           Y            0.01727   0.99971  -0.01691
           Z            0.00441   0.01684   0.99985
 This molecule is an asymmetric top.
 Rotational symmetry number  1.
 Warning -- assumption of classical behavior for rotation
           may cause significant error
 Rotational temperatures (Kelvin)      0.11102     0.06395     0.04776
 Rotational constants (GHZ):           2.31322     1.33246     0.99507
 Zero-point vibrational energy     406420.0 (Joules/Mol)
                                   97.13670 (Kcal/Mol)
 Warning -- explicit consideration of  15 degrees of freedom as
           vibrations may cause significant error
 Vibrational temperatures:    127.16   172.99   181.75   281.42   298.59
          (Kelvin)            336.50   422.55   433.42   509.85   565.70
                              635.67   673.81   687.40   796.57   841.49
                              908.77   973.91  1026.36  1082.23  1139.30
                             1260.73  1299.45  1326.81  1423.43  1476.54
                             1509.78  1569.05  1631.07  1713.52  1794.55
                             1840.52  1910.06  1942.33  1988.08  2022.36
                             2037.87  2098.69  2126.42  2157.83  2172.97
                             3217.35  4365.75  4375.94  4439.89  4470.11
                             4478.36  4499.00  4639.47  5040.77  5342.10
                             5495.82

 Zero-point correction=                           0.154797 (Hartree/Particle)
 Thermal correction to Energy=                    0.164996
 Thermal correction to Enthalpy=                  0.165940
 Thermal correction to Gibbs Free Energy=         0.120250
 Sum of electronic and zero-point Energies=           -422.973583
 Sum of electronic and thermal Energies=              -422.963385
 Sum of electronic and thermal Enthalpies=            -422.962440
 Sum of electronic and thermal Free Energies=         -423.008130

                     E (Thermal)             CV                S
                      KCal/Mol        Cal/Mol-Kelvin    Cal/Mol-Kelvin
 Total                  103.536             38.433             96.162
 Electronic               0.000              0.000              0.000
 Translational            0.889              2.981             40.409
 Rotational               0.889              2.981             29.040
 Vibrational            101.759             32.471             26.713
 Vibration     1          0.601              1.957              3.696
 Vibration     2          0.609              1.932              3.097
 Vibration     3          0.611              1.927              3.001
 Vibration     4          0.636              1.846              2.174
 Vibration     5          0.641              1.829              2.065
 Vibration     6          0.654              1.789              1.849
 Vibration     7          0.688              1.686              1.453
 Vibration     8          0.693              1.671              1.410
 Vibration     9          0.730              1.566              1.147
 Vibration    10          0.760              1.485              0.988
 Vibration    11          0.802              1.379              0.821
 Vibration    12          0.826              1.320              0.742
 Vibration    13          0.834              1.299              0.716
 Vibration    14          0.909              1.132              0.537
 Vibration    15          0.942              1.064              0.476

 Optimization completed.
    -- Stationary point found.
 Normal termination of Gaussian 09 at Tue Jan 28 09:34:13 2020.
