 Gaussian 09, Revision D.01,
 Gaussian 09:  ES64L-G09RevD.01 24-Apr-2013

 -----------------------------
 # b3lyp 6-31G(2df,p) opt Freq
 -----------------------------

 -----
 titel
 -----
 Symbolic Z-matrix:
 Charge =  0 Multiplicity = 1

 SCF Done:  E(RB3LYP) =  -423.145526778     A.U. after   12 cycles
 Optimization completed.
    -- Stationary point found.
 Normal termination of Gaussian 09 at Mon Jan 27 18:07:18 2020.

 ----------------------------------------------------------------------
 #N Geom=AllCheck Guess=TCheck SCRF=Check GenChk RB3LYP/6-31G(2df,p) Fr
 eq
 ----------------------------------------------------------------------

 Structure from the checkpoint file:  "/scratch/puck/g09_39e5b478-2a9a-45a2-8ead-5d3505f0d2ba/Gau-88991.chk"
 -----
 titel
 -----
 Charge =  0 Multiplicity = 1

                         Standard orientation:
 ---------------------------------------------------------------------
 Center     Atomic      Atomic             Coordinates (Angstroms)
 Number     Number       Type             X           Y           Z
 ---------------------------------------------------------------------
      1          6           0       -1.569806   -0.803119   -1.360454
      2          6           0       -0.819655   -0.322613   -0.149228
      3          6           0       -1.369690    0.311752    1.155771
      4          6           0        0.160021    0.293121    1.374306
      5          6           0        0.217051   -1.106953    0.712917
      6          8           0        1.431786   -1.282911   -0.007223
      7          6           0        1.596526   -0.009255   -0.637672
      8          6           0        0.350443    0.720067   -0.127073
      9          8           0        0.079597    2.003041   -0.589940
     10          1           0       -0.891662   -1.278951   -2.077157
     11          1           0       -2.332452   -1.539292   -1.084715
     12          1           0       -2.070433    0.028484   -1.867499
     13          1           0       -1.825103    1.297191    1.048012
     14          1           0       -1.968751   -0.336469    1.802281
     15          1           0        0.732065    0.639362    2.236128
     16          1           0       -0.053869   -2.011660    1.254014
     17          1           0        2.536442    0.460961   -0.316041
     18          1           0        1.609621   -0.111282   -1.729973
     19          1           0        0.783733    2.592621   -0.299148
 ---------------------------------------------------------------------

 SCF Done:  E(RB3LYP) =  -423.145526778     A.U. after    1 cycles

 The electronic state is 1-A.
 Alpha  occ. eigenvalues --  -19.15248 -19.13568 -10.24246 -10.23253 -10.22308
 Alpha  occ. eigenvalues --  -10.19778 -10.19147 -10.18295 -10.17461  -1.05174
 Alpha  occ. eigenvalues --   -1.02919  -0.89190  -0.72742  -0.72148  -0.65834
 Alpha  occ. eigenvalues --   -0.60765  -0.59516  -0.55515  -0.50494  -0.46925
 Alpha  occ. eigenvalues --   -0.45936  -0.44863  -0.42877  -0.40808  -0.40093
 Alpha  occ. eigenvalues --   -0.39653  -0.36143  -0.34558  -0.34455  -0.31834
 Alpha  occ. eigenvalues --   -0.30900  -0.28908  -0.26458  -0.23559
 Alpha virt. eigenvalues --    0.06290   0.10497   0.11665   0.12765   0.13416
 Alpha virt. eigenvalues --    0.14515   0.14970   0.16008   0.17223   0.17396
 Alpha virt. eigenvalues --    0.17993   0.18819   0.18907   0.20571   0.21706

 Mulliken charges:
               1
     1  C   -0.529822
     2  C    0.267249
     3  C   -0.306061
     4  C   -0.169928
     5  C    0.104510
     6  O   -0.281926
     7  C   -0.156501
     8  C    0.347259
     9  O   -0.486585
    10  H    0.126728
    11  H    0.119800
    12  H    0.130035
    13  H    0.108794
    14  H    0.087451
    15  H    0.068188
    16  H    0.087915
    17  H    0.090386
    18  H    0.106069
    19  H    0.286439
 Sum of Mulliken charges =   0.00000

 Dipole moment (field-independent basis, Debye):
    X=              0.1204    Y=              1.1362    Z=              0.5167  Tot=              1.2540
 Quadrupole moment (field-independent basis, Debye-Ang):
   XX=            -53.1253   YY=            -52.5427   ZZ=            -52.7818
   XY=              6.6493   XZ=             -0.5688   YZ=              0.7442

  Exact polarizability:  78.182   3.852  71.579  -2.219   0.237  73.781
 Approx polarizability: 111.379   2.670 109.368  -2.526  -1.751 107.834

                      1                      2                      3
                      A                      A                      A
 Frequencies --    175.7870               190.6297               217.4465
 Red. masses --      1.0463                 3.0212                 2.5226
 Frc consts  --      0.0190                 0.0647                 0.0703
 IR Inten    --      0.1734                 4.4383                 1.7733

                      4                      5                      6
                      A                      A                      A
 Frequencies --    258.4832               275.4507               324.1081
 Red. masses --      1.1497                 2.5657                 3.5515
 Frc consts  --      0.0453                 0.1147                 0.2198
 IR Inten    --     60.5059                14.2120                20.9069

                      7                      8                      9
                      A                      A                      A
 Frequencies --    433.0055               452.6220               456.6722
 Red. masses --      2.9211                 3.0387                 2.5611
 Frc consts  --      0.3227                 0.3668                 0.3147
 IR Inten    --      7.0692                 1.7854                 1.9689

                     10                     11                     12
                      A                      A                      A
 Frequencies --    650.6920               661.5182               692.1242
 Red. masses --      5.2122                 3.2181                 4.6707
 Frc consts  --      1.3002                 0.8297                 1.3182
 IR Inten    --      2.4836                 1.5807                 0.6172

                     13                     14                     15
                      A                      A                      A
 Frequencies --    736.7323               741.2348               833.0238
 Red. masses --      3.6863                 3.7018                 2.3397
 Frc consts  --      1.1789                 1.1983                 0.9566
 IR Inten    --      2.2019                 3.3103                 1.9468

                     16                     17                     18
                      A                      A                      A
 Frequencies --    910.5579               926.4444               957.4226
 Red. masses --      2.0710                 2.1987                 2.1433
 Frc consts  --      1.0117                 1.1119                 1.1576
 IR Inten    --      7.4411                 8.4526                29.3564

                     19                     20                     21
                      A                      A                      A
 Frequencies --    965.8329              1014.8335              1024.8747
 Red. masses --      2.2104                 1.1970                 2.3102
 Frc consts  --      1.2148                 0.7263                 1.4297
 IR Inten    --      3.9238                 4.1132                14.2372

                     22                     23                     24
                      A                      A                      A
 Frequencies --   1054.6037              1073.0316              1095.4659
 Red. masses --      2.3814                 2.1465                 1.5216
 Frc consts  --      1.5605                 1.4561                 1.0758
 IR Inten    --     75.6767                49.0062                 9.9934

                     25                     26                     27
                      A                      A                      A
 Frequencies --   1118.4016              1148.9861              1173.1412
 Red. masses --      2.1088                 1.9886                 1.3590
 Frc consts  --      1.5541                 1.5468                 1.1020
 IR Inten    --      8.0165                 4.7359                 5.0806

                     28                     29                     30
                      A                      A                      A
 Frequencies --   1189.1842              1206.5017              1219.4118
 Red. masses --      1.2631                 2.3424                 1.8981
 Frc consts  --      1.0524                 2.0089                 1.6629
 IR Inten    --      1.1191                13.8429                14.2243

                     31                     32                     33
                      A                      A                      A
 Frequencies --   1233.1205              1264.0341              1295.6655
 Red. masses --      1.8755                 2.6373                 1.9938
 Frc consts  --      1.6803                 2.4827                 1.9721
 IR Inten    --      2.7001               101.0634                34.0166

                     34                     35                     36
                      A                      A                      A
 Frequencies --   1326.9533              1353.2751              1404.0475
 Red. masses --      1.8202                 1.8655                 1.4268
 Frc consts  --      1.8883                 2.0129                 1.6572
 IR Inten    --     13.8878                19.6045                 2.6530

                     37                     38                     39
                      A                      A                      A
 Frequencies --   1413.4624              1488.2048              1490.6510
 Red. masses --      1.9417                 1.0472                 1.0511
 Frc consts  --      2.2856                 1.3665                 1.3761
 IR Inten    --      8.5993                 5.2136                 4.7788

                     40                     41                     42
                      A                      A                      A
 Frequencies --   1515.2952              1522.1289              3002.4203
 Red. masses --      1.1794                 1.0977                 1.0596
 Frc consts  --      1.5955                 1.4984                 5.6278
 IR Inten    --      2.1840                 1.9195                72.3092

                     43                     44                     45
                      A                      A                      A
 Frequencies --   3029.1770              3047.7623              3055.4663
 Red. masses --      1.0352                 1.1046                 1.0580
 Frc consts  --      5.5966                 6.0450                 5.8194
 IR Inten    --     22.4993                38.3077                48.8739

                     46                     47                     48
                      A                      A                      A
 Frequencies --   3096.6563              3099.3142              3105.4208
 Red. masses --      1.1007                 1.1011                 1.0908
 Frc consts  --      6.2187                 6.2318                 6.1976
 IR Inten    --     18.7422                15.0267                49.5283

                     49                     50                     51
                      A                      A                      A
 Frequencies --   3128.4422              3146.2374              3804.1548
 Red. masses --      1.1064                 1.0918                 1.0660
 Frc consts  --      6.3801                 6.3675                 9.0888
 IR Inten    --     22.1408                29.7820                26.1666

 - Thermochemistry -
 -------------------
 Temperature   298.150 Kelvin.  Pressure   1.00000 Atm.
 Atom     1 has atomic number  6 and mass  12.00000

 Molecular mass:   126.06808 amu.
 Principal axes and moments of inertia in atomic units:
                           1         2         3
     Eigenvalues --   851.89048 919.354451050.72580
           X            0.93019   0.36648   0.02086
           Y           -0.36689   0.92643   0.08445
           Z            0.01163  -0.08621   0.99621
 This molecule is an asymmetric top.
 Rotational symmetry number  1.
 Warning -- assumption of classical behavior for rotation
           may cause significant error
 Rotational temperatures (Kelvin)      0.10167     0.09421     0.08243
 Rotational constants (GHZ):           2.11851     1.96305     1.71761
 Zero-point vibrational energy     418693.7 (Joules/Mol)
                                  100.07019 (Kcal/Mol)
 Warning -- explicit consideration of   9 degrees of freedom as
           vibrations may cause significant error
 Vibrational temperatures:    252.92   274.27   312.86   371.90   396.31
          (Kelvin)            466.32   623.00   651.22   657.05   936.20
                              951.78   995.81  1059.99  1066.47  1198.53
                             1310.09  1332.95  1377.52  1389.62  1460.12
                             1474.56  1517.34  1543.85  1576.13  1609.13
                             1653.13  1687.89  1710.97  1735.88  1754.46
                             1774.18  1818.66  1864.17  1909.19  1947.06
                             2020.11  2033.65  2141.19  2144.71  2180.17
                             2190.00  4319.81  4358.30  4385.04  4396.13
                             4455.39  4459.22  4468.00  4501.12  4526.73
                             5473.32

 Zero-point correction=                           0.159472 (Hartree/Particle)
 Thermal correction to Energy=                    0.167315
 Thermal correction to Enthalpy=                  0.168259
 Thermal correction to Gibbs Free Energy=         0.127765
 Sum of electronic and zero-point Energies=           -422.986055
 Sum of electronic and thermal Energies=              -422.978212
 Sum of electronic and thermal Enthalpies=            -422.977268
 Sum of electronic and thermal Free Energies=         -423.017762

                     E (Thermal)             CV                S
                      KCal/Mol        Cal/Mol-Kelvin    Cal/Mol-Kelvin
 Total                  104.991             31.492             85.226
 Electronic               0.000              0.000              0.000
 Translational            0.889              2.981             40.409
 Rotational               0.889              2.981             28.200
 Vibrational            103.214             25.530             16.618
 Vibration     1          0.628              1.872              2.373
 Vibration     2          0.634              1.853              2.222
 Vibration     3          0.646              1.814              1.980
 Vibration     4          0.667              1.748              1.672
 Vibration     5          0.677              1.719              1.562
 Vibration     6          0.709              1.627              1.289
 Vibration     7          0.794              1.398              0.849
 Vibration     8          0.811              1.355              0.788
 Vibration     9          0.815              1.346              0.776

 Normal termination of Gaussian 09 at Mon Jan 27 18:57:12 2020.
