 Gaussian 09, Revision D.01,
 Gaussian 09:  ES64L-G09RevD.01 24-Apr-2013

 -----------------------------
 # b3lyp 6-31G(2df,p) opt Freq
 -----------------------------

 -----
 titel
 -----
 Symbolic Z-matrix:
 Charge =  0 Multiplicity = 1

 SCF Done:  E(RB3LYP) =  -423.217544470     A.U. after   14 cycles
 Optimization completed.
    -- Stationary point found.
 Normal termination of Gaussian 09 at Tue Jan 28 03:55:28 2020.

 ----------------------------------------------------------------------
 #N Geom=AllCheck Guess=TCheck SCRF=Check GenChk RB3LYP/6-31G(2df,p) Fr
 eq
 ----------------------------------------------------------------------

 Structure from the checkpoint file:  "/scratch/puck/g09_72b4e295-9034-49e1-a9e9-0a72f2f972c3/Gau-43613.chk"
 -----
 titel
 -----
 Charge =  0 Multiplicity = 1

                         Standard orientation:
 ---------------------------------------------------------------------
 Center     Atomic      Atomic             Coordinates (Angstroms)
 Number     Number       Type             X           Y           Z
 ---------------------------------------------------------------------
      1          8           0        2.303364   -0.956794    0.139066
      2          6           0        0.975665   -0.609921    0.420232
      3          6           0        0.011650   -1.506539   -0.408756
      4          6           0       -1.430573   -1.473636    0.023718
      5          6           0       -2.203217   -0.387395    0.059057
      6          6           0       -1.766494    1.004175   -0.328108
      7          6           0       -0.549842    1.541141    0.471991
      8          6           0        0.757603    0.872454    0.107261
      9          8           0        1.650997    1.481494   -0.447993
     10          1           0        2.685243   -0.167815   -0.280852
     11          1           0        0.761765   -0.773234    1.487718
     12          1           0        0.115860   -1.222626   -1.464967
     13          1           0        0.409456   -2.520568   -0.325001
     14          1           0       -1.860551   -2.421231    0.338097
     15          1           0       -3.231651   -0.492953    0.394988
     16          1           0       -1.526982    1.050429   -1.399292
     17          1           0       -2.594565    1.701525   -0.174285
     18          1           0       -0.421457    2.609662    0.280878
     19          1           0       -0.740750    1.397533    1.541752
 ---------------------------------------------------------------------

 SCF Done:  E(RB3LYP) =  -423.217544470     A.U. after    1 cycles

 The electronic state is 1-A.
 Alpha  occ. eigenvalues --  -19.14728 -19.12674 -10.27663 -10.24087 -10.20574
 Alpha  occ. eigenvalues --  -10.20326 -10.19373 -10.19132 -10.19024  -1.06281
 Alpha  occ. eigenvalues --   -1.00930  -0.83232  -0.77297  -0.74746  -0.65376
 Alpha  occ. eigenvalues --   -0.64782  -0.55748  -0.53322  -0.50646  -0.49176
 Alpha  occ. eigenvalues --   -0.47575  -0.45275  -0.43688  -0.42835  -0.40119
 Alpha  occ. eigenvalues --   -0.39167  -0.38652  -0.36925  -0.35073  -0.34258
 Alpha  occ. eigenvalues --   -0.33365  -0.27261  -0.26176  -0.25157
 Alpha virt. eigenvalues --   -0.02697   0.00436   0.08372   0.10362   0.11043
 Alpha virt. eigenvalues --    0.12229   0.13656   0.15696   0.16181   0.16983
 Alpha virt. eigenvalues --    0.18698   0.18880   0.20243   0.21998   0.22900

 Mulliken charges:
               1
     1  O   -0.436012
     2  C    0.049580
     3  C   -0.278216
     4  C   -0.062339
     5  C   -0.052346
     6  C   -0.265868
     7  C   -0.283789
     8  C    0.361058
     9  O   -0.328684
    10  H    0.290643
    11  H    0.089664
    12  H    0.117459
    13  H    0.124328
    14  H    0.095294
    15  H    0.093404
    16  H    0.126054
    17  H    0.114372
    18  H    0.123925
    19  H    0.121476
 Sum of Mulliken charges =   0.00000

 Dipole moment (field-independent basis, Debye):
    X=             -2.9295    Y=              0.2469    Z=              0.5905  Tot=              2.9986
 Quadrupole moment (field-independent basis, Debye-Ang):
   XX=            -56.9512   YY=            -54.2899   ZZ=            -52.6604
   XY=             -0.7521   XZ=             -0.4843   YZ=              1.3446

  Exact polarizability:  88.422  -2.830  84.941  -4.766  -1.984  57.015
 Approx polarizability: 126.518  -5.354 127.078 -10.697  -6.311  92.053

                      1                      2                      3
                      A                      A                      A
 Frequencies --     73.6392               121.7996               182.0526
 Red. masses --      4.8630                 3.0500                 2.1203
 Frc consts  --      0.0155                 0.0267                 0.0414
 IR Inten    --      0.1656                 0.8749                 0.2801

                      4                      5                      6
                      A                      A                      A
 Frequencies --    277.0599               304.4943               335.5518
 Red. masses --      3.4578                 4.1213                 3.0392
 Frc consts  --      0.1564                 0.2251                 0.2016
 IR Inten    --      0.2444                 4.2006                 3.5403

                      7                      8                      9
                      A                      A                      A
 Frequencies --    381.3264               442.7186               483.8618
 Red. masses --      5.4817                 2.4448                 1.6153
 Frc consts  --      0.4696                 0.2823                 0.2228
 IR Inten    --     16.6659                20.8934                26.0672

                     10                     11                     12
                      A                      A                      A
 Frequencies --    508.3232               595.0758               649.0954
 Red. masses --      1.6675                 3.6364                 2.5032
 Frc consts  --      0.2539                 0.7587                 0.6214
 IR Inten    --     11.2863                 5.4143                12.2487

                     13                     14                     15
                      A                      A                      A
 Frequencies --    683.6183               761.5778               777.7622
 Red. masses --      1.8652                 1.8697                 2.8218
 Frc consts  --      0.5136                 0.6389                 1.0057
 IR Inten    --     17.3660                12.5452                 0.3819

                     16                     17                     18
                      A                      A                      A
 Frequencies --    864.2867               895.4922               947.4126
 Red. masses --      2.8735                 2.1991                 2.6553
 Frc consts  --      1.2647                 1.0390                 1.4043
 IR Inten    --      4.5920                13.3920                 4.3019

                     19                     20                     21
                      A                      A                      A
 Frequencies --    985.1415               999.8947              1014.6229
 Red. masses --      1.8083                 1.5094                 2.2515
 Frc consts  --      1.0340                 0.8891                 1.3656
 IR Inten    --      0.3163                 1.1874                 2.4780

                     22                     23                     24
                      A                      A                      A
 Frequencies --   1045.0780              1065.7848              1108.2815
 Red. masses --      2.8944                 2.0966                 3.4083
 Frc consts  --      1.8626                 1.4032                 2.4666
 IR Inten    --      3.5333                 2.5999               107.9116

                     25                     26                     27
                      A                      A                      A
 Frequencies --   1143.1683              1186.4802              1215.3036
 Red. masses --      1.8510                 1.2405                 1.4835
 Frc consts  --      1.4252                 1.0289                 1.2909
 IR Inten    --     38.7264                 5.4996                17.7724

                     28                     29                     30
                      A                      A                      A
 Frequencies --   1254.2898              1267.8542              1286.2233
 Red. masses --      1.1937                 1.1449                 1.3331
 Frc consts  --      1.1065                 1.0844                 1.2994
 IR Inten    --      1.6580                12.7527                19.9782

                     31                     32                     33
                      A                      A                      A
 Frequencies --   1322.2351              1328.4330              1349.5176
 Red. masses --      1.3273                 1.2706                 1.3766
 Frc consts  --      1.3672                 1.3211                 1.4771
 IR Inten    --      2.6982                17.3402                 5.8808

                     34                     35                     36
                      A                      A                      A
 Frequencies --   1372.2821              1420.0176              1450.2540
 Red. masses --      1.4306                 1.4531                 1.3749
 Frc consts  --      1.5873                 1.7263                 1.7038
 IR Inten    --      9.9873                 0.3787                84.4661

                     37                     38                     39
                      A                      A                      A
 Frequencies --   1471.0963              1483.7689              1492.7544
 Red. masses --      1.1029                 1.0991                 1.0888
 Frc consts  --      1.4062                 1.4256                 1.4295
 IR Inten    --     11.6091                 1.3449                 6.3610

                     40                     41                     42
                      A                      A                      A
 Frequencies --   1719.1329              1781.9616              2988.4008
 Red. masses --      6.8244                10.6755                 1.0810
 Frc consts  --     11.8832                19.9727                 5.6881
 IR Inten    --      1.3540               146.6509                17.3202

                     43                     44                     45
                      A                      A                      A
 Frequencies --   3017.0332              3021.2320              3044.0003
 Red. masses --      1.0690                 1.0695                 1.0603
 Frc consts  --      5.7331                 5.7515                 5.7885
 IR Inten    --     27.8647                14.0018                13.5469

                     46                     47                     48
                      A                      A                      A
 Frequencies --   3084.5319              3099.4948              3108.0413
 Red. masses --      1.0939                 1.0931                 1.1019
 Frc consts  --      6.1318                 6.1874                 6.2715
 IR Inten    --     19.4381                 9.2652                15.3193

                     49                     50                     51
                      A                      A                      A
 Frequencies --   3147.1103              3170.2167              3661.2392
 Red. masses --      1.0840                 1.0962                 1.0642
 Frc consts  --      6.3254                 6.4909                 8.4045
 IR Inten    --      4.6186                31.2009                74.7103

 - Thermochemistry -
 -------------------
 Temperature   298.150 Kelvin.  Pressure   1.00000 Atm.
 Atom     1 has atomic number  8 and mass  15.99491

 Molecular mass:   126.06808 amu.
 Principal axes and moments of inertia in atomic units:
                           1         2         3
     Eigenvalues --   741.236331155.282271745.75768
           X            0.99934  -0.03614  -0.00199
           Y            0.03616   0.99930   0.00969
           Z            0.00164  -0.00976   0.99995
 This molecule is an asymmetric top.
 Rotational symmetry number  1.
 Warning -- assumption of classical behavior for rotation
           may cause significant error
 Rotational temperatures (Kelvin)      0.11685     0.07497     0.04961
 Rotational constants (GHZ):           2.43477     1.56216     1.03379
 Zero-point vibrational energy     421025.8 (Joules/Mol)
                                  100.62759 (Kcal/Mol)
 Warning -- explicit consideration of  11 degrees of freedom as
           vibrations may cause significant error
 Vibrational temperatures:    105.95   175.24   261.93   398.63   438.10
          (Kelvin)            482.78   548.64   636.97   696.17   731.36
                              856.18   933.90   983.57  1095.74  1119.02
                             1243.51  1288.41  1363.11  1417.40  1438.62
                             1459.81  1503.63  1533.42  1594.57  1644.76
                             1707.08  1748.55  1804.64  1824.16  1850.59
                             1902.40  1911.32  1941.65  1974.41  2043.09
                             2086.59  2116.58  2134.81  2147.74  2473.45
                             2563.84  4299.64  4340.83  4346.87  4379.63
                             4437.95  4459.48  4471.77  4527.98  4561.23
                             5267.70

 Zero-point correction=                           0.160360 (Hartree/Particle)
 Thermal correction to Energy=                    0.168667
 Thermal correction to Enthalpy=                  0.169611
 Thermal correction to Gibbs Free Energy=         0.127357
 Sum of electronic and zero-point Energies=           -423.057184
 Sum of electronic and thermal Energies=              -423.048877
 Sum of electronic and thermal Enthalpies=            -423.047933
 Sum of electronic and thermal Free Energies=         -423.090187

                     E (Thermal)             CV                S
                      KCal/Mol        Cal/Mol-Kelvin    Cal/Mol-Kelvin
 Total                  105.840             32.041             88.931
 Electronic               0.000              0.000              0.000
 Translational            0.889              2.981             40.409
 Rotational               0.889              2.981             28.793
 Vibrational            104.063             26.079             19.729
 Vibration     1          0.599              1.966              4.054
 Vibration     2          0.609              1.931              3.072
 Vibration     3          0.630              1.864              2.307
 Vibration     4          0.678              1.716              1.552
 Vibration     5          0.695              1.665              1.392
 Vibration     6          0.717              1.605              1.233
 Vibration     7          0.751              1.510              1.034
 Vibration     8          0.802              1.377              0.818
 Vibration     9          0.840              1.286              0.700
 Vibration    10          0.863              1.232              0.638
 Vibration    11          0.953              1.042              0.458

 Optimization completed.
    -- Stationary point found.
 Normal termination of Gaussian 09 at Tue Jan 28 04:41:53 2020.
