 Gaussian 09, Revision D.01,
 Gaussian 09:  ES64L-G09RevD.01 24-Apr-2013

 -----------------------------
 # b3lyp 6-31G(2df,p) opt Freq
 -----------------------------

 -----
 titel
 -----
 Symbolic Z-matrix:
 Charge =  0 Multiplicity = 1

 SCF Done:  E(RB3LYP) =  -423.204771798     A.U. after   14 cycles
 Optimization completed.
    -- Stationary point found.
 Normal termination of Gaussian 09 at Mon Jan 27 22:53:02 2020.

 ----------------------------------------------------------------------
 #N Geom=AllCheck Guess=TCheck SCRF=Check GenChk RB3LYP/6-31G(2df,p) Fr
 eq
 ----------------------------------------------------------------------

 Structure from the checkpoint file:  "/scratch/puck/g09_fc7ba7bd-b88d-4483-85d9-6334b0410395/Gau-82994.chk"
 -----
 titel
 -----
 Charge =  0 Multiplicity = 1

                         Standard orientation:
 ---------------------------------------------------------------------
 Center     Atomic      Atomic             Coordinates (Angstroms)
 Number     Number       Type             X           Y           Z
 ---------------------------------------------------------------------
      1          6           0       -1.664830    1.577696    0.473931
      2          6           0       -0.595903    0.601539    0.047484
      3          6           0        0.748716    1.133992   -0.418709
      4          6           0        1.784124    0.043729   -0.095559
      5          8           0        2.907341   -0.000665   -0.522574
      6          6           0        1.149644   -0.979118    0.861609
      7          6           0       -0.337422   -0.707812    0.803963
      8          6           0       -0.990043   -0.738750   -0.547366
      9          8           0       -2.334066   -1.121757   -0.550708
     10          1           0       -1.928118    2.262241   -0.341969
     11          1           0       -2.572817    1.050817    0.776899
     12          1           0       -1.326842    2.190343    1.317459
     13          1           0        0.799716    1.394085   -1.481368
     14          1           0        1.027039    2.037411    0.141494
     15          1           0        1.447999   -1.992589    0.575427
     16          1           0        1.552053   -0.797591    1.866705
     17          1           0       -0.969181   -0.970678    1.644878
     18          1           0       -0.406831   -1.118705   -1.390851
     19          1           0       -2.774928   -0.663615   -1.274530
 ---------------------------------------------------------------------

 SCF Done:  E(RB3LYP) =  -423.204771798     A.U. after    1 cycles

 The electronic state is 1-A.
 Alpha  occ. eigenvalues --  -19.15206 -19.12999 -10.26960 -10.23916 -10.20219
 Alpha  occ. eigenvalues --  -10.19397 -10.19323 -10.19294 -10.18382  -1.04167
 Alpha  occ. eigenvalues --   -1.03634  -0.88467  -0.75169  -0.73987  -0.69804
 Alpha  occ. eigenvalues --   -0.59199  -0.56440  -0.53718  -0.51703  -0.47727
 Alpha  occ. eigenvalues --   -0.45703  -0.44532  -0.43521  -0.41408  -0.40837
 Alpha  occ. eigenvalues --   -0.40480  -0.38635  -0.37773  -0.36045  -0.34871
 Alpha  occ. eigenvalues --   -0.32069  -0.27607  -0.25334  -0.24101
 Alpha virt. eigenvalues --   -0.01801   0.06793   0.09695   0.11225   0.11778
 Alpha virt. eigenvalues --    0.13077   0.13775   0.15638   0.16323   0.17044
 Alpha virt. eigenvalues --    0.17506   0.18970   0.19241   0.20227   0.22900

 Mulliken charges:
               1
     1  C   -0.491450
     2  C    0.278515
     3  C   -0.392076
     4  C    0.383227
     5  O   -0.304090
     6  C   -0.340715
     7  C   -0.116899
     8  C    0.055084
     9  O   -0.425387
    10  H    0.113260
    11  H    0.131978
    12  H    0.117983
    13  H    0.125235
    14  H    0.128774
    15  H    0.132373
    16  H    0.131544
    17  H    0.098921
    18  H    0.084908
    19  H    0.288817
 Sum of Mulliken charges =   0.00000

 Dipole moment (field-independent basis, Debye):
    X=             -2.3218    Y=              1.0979    Z=              0.1341  Tot=              2.5718
 Quadrupole moment (field-independent basis, Debye-Ang):
   XX=            -63.0758   YY=            -53.4741   ZZ=            -49.3459
   XY=             -2.6319   XZ=              5.9781   YZ=             -0.1362

  Exact polarizability:  85.283  -3.079  73.956  -0.099  -2.599  66.769
 Approx polarizability: 118.788  -1.500 107.522  -2.515  -3.825 104.026

                      1                      2                      3
                      A                      A                      A
 Frequencies --     72.2941               182.0596               200.5499
 Red. masses --      4.8133                 1.5468                 1.4488
 Frc consts  --      0.0148                 0.0302                 0.0343
 IR Inten    --      4.7168                 0.5745                 5.6408

                      4                      5                      6
                      A                      A                      A
 Frequencies --    251.3471               274.3362               295.4987
 Red. masses --      2.3646                 2.5226                 2.2978
 Frc consts  --      0.0880                 0.1119                 0.1182
 IR Inten    --      6.0083                 1.5898                26.2135

                      7                      8                      9
                      A                      A                      A
 Frequencies --    332.9450               364.0450               441.7024
 Red. masses --      1.6063                 1.9066                 3.4855
 Frc consts  --      0.1049                 0.1489                 0.4007
 IR Inten    --     56.4662                33.1552                 2.4977

                     10                     11                     12
                      A                      A                      A
 Frequencies --    480.7698               491.8757               598.4605
 Red. masses --      3.2063                 4.2167                 3.5096
 Frc consts  --      0.4366                 0.6011                 0.7406
 IR Inten    --      6.1193                 5.9867                 0.4245

                     13                     14                     15
                      A                      A                      A
 Frequencies --    659.1587               704.4756               782.5180
 Red. masses --      3.9525                 2.7992                 4.0411
 Frc consts  --      1.0118                 0.8185                 1.4579
 IR Inten    --      2.8762                 4.7757                 6.9303

                     16                     17                     18
                      A                      A                      A
 Frequencies --    807.2611               835.3654               904.5362
 Red. masses --      1.8926                 3.4339                 1.8994
 Frc consts  --      0.7267                 1.4119                 0.9156
 IR Inten    --      2.0048                 9.5390                 3.3457

                     19                     20                     21
                      A                      A                      A
 Frequencies --    968.4823               984.3927              1036.8491
 Red. masses --      1.5781                 1.5259                 1.6824
 Frc consts  --      0.8721                 0.8712                 1.0656
 IR Inten    --      6.3962                11.9469                 0.9101

                     22                     23                     24
                      A                      A                      A
 Frequencies --   1048.5539              1077.8642              1099.0824
 Red. masses --      1.2609                 1.7221                 1.6689
 Frc consts  --      0.8168                 1.1788                 1.1878
 IR Inten    --      5.0707                 2.8218                16.8077

                     25                     26                     27
                      A                      A                      A
 Frequencies --   1139.9330              1154.5697              1170.3130
 Red. masses --      3.2529                 3.4604                 1.8433
 Frc consts  --      2.4905                 2.7178                 1.4875
 IR Inten    --     64.6341                64.2265                 7.9208

                     28                     29                     30
                      A                      A                      A
 Frequencies --   1210.4791              1223.4801              1272.8273
 Red. masses --      1.3948                 1.4795                 1.9257
 Frc consts  --      1.2042                 1.3048                 1.8382
 IR Inten    --      0.1202                 2.0608                 5.7788

                     31                     32                     33
                      A                      A                      A
 Frequencies --   1283.3019              1297.6913              1303.0041
 Red. masses --      2.1086                 1.7514                 1.2615
 Frc consts  --      2.0460                 1.7377                 1.2620
 IR Inten    --      5.4235                12.0733                54.8783

                     34                     35                     36
                      A                      A                      A
 Frequencies --   1375.6291              1414.1092              1448.5546
 Red. masses --      1.7328                 1.3979                 1.1059
 Frc consts  --      1.9320                 1.6470                 1.3672
 IR Inten    --      3.3488                 1.6446                10.9923

                     37                     38                     39
                      A                      A                      A
 Frequencies --   1450.3391              1468.9173              1496.4203
 Red. masses --      1.2666                 1.6273                 1.0632
 Frc consts  --      1.5697                 2.0688                 1.4027
 IR Inten    --      1.5506                 5.5221                 3.4853

                     40                     41                     42
                      A                      A                      A
 Frequencies --   1504.4674              1847.8110              3021.1876
 Red. masses --      1.1010                12.7420                 1.0520
 Frc consts  --      1.4682                25.6331                 5.6576
 IR Inten    --      7.3003               218.3154                16.0647

                     43                     44                     45
                      A                      A                      A
 Frequencies --   3024.1559              3034.2784              3057.1505
 Red. masses --      1.0513                 1.0639                 1.0874
 Frc consts  --      5.6648                 5.7710                 5.9876
 IR Inten    --     37.8582                16.1012                31.4305

                     46                     47                     48
                      A                      A                      A
 Frequencies --   3075.4823              3076.6693              3084.5183
 Red. masses --      1.0965                 1.0992                 1.0977
 Frc consts  --      6.1105                 6.1303                 6.1533
 IR Inten    --      5.5523                30.8681                11.2786

                     49                     50                     51
                      A                      A                      A
 Frequencies --   3120.8919              3178.3896              3798.8765
 Red. masses --      1.0980                 1.0901                 1.0662
 Frc consts  --      6.3011                 6.4885                 9.0655
 IR Inten    --     12.2140                 6.7817                22.1906

 - Thermochemistry -
 -------------------
 Temperature   298.150 Kelvin.  Pressure   1.00000 Atm.
 Atom     1 has atomic number  6 and mass  12.00000

 Molecular mass:   126.06808 amu.
 Principal axes and moments of inertia in atomic units:
                           1         2         3
     Eigenvalues --   597.477791465.464041711.29715
           X            0.99948  -0.03167   0.00673
           Y            0.03173   0.99945  -0.00975
           Z           -0.00641   0.00996   0.99993
 This molecule is an asymmetric top.
 Rotational symmetry number  1.
 Warning -- assumption of classical behavior for rotation
           may cause significant error
 Rotational temperatures (Kelvin)      0.14497     0.05910     0.05061
 Rotational constants (GHZ):           3.02060     1.23152     1.05460
 Zero-point vibrational energy     415270.9 (Joules/Mol)
                                   99.25212 (Kcal/Mol)
 Warning -- explicit consideration of  12 degrees of freedom as
           vibrations may cause significant error
 Vibrational temperatures:    104.02   261.94   288.55   361.63   394.71
          (Kelvin)            425.16   479.03   523.78   635.51   691.72
                              707.70   861.05   948.38  1013.58  1125.87
                             1161.47  1201.90  1301.42  1393.43  1416.32
                             1491.79  1508.63  1550.80  1581.33  1640.11
                             1661.17  1683.82  1741.61  1760.31  1831.31
                             1846.38  1867.09  1874.73  1979.22  2034.59
                             2084.14  2086.71  2113.44  2153.01  2164.59
                             2658.58  4346.81  4351.08  4365.64  4398.55
                             4424.93  4426.64  4437.93  4490.26  4572.99
                             5465.73

 Zero-point correction=                           0.158168 (Hartree/Particle)
 Thermal correction to Energy=                    0.166831
 Thermal correction to Enthalpy=                  0.167775
 Thermal correction to Gibbs Free Energy=         0.125102
 Sum of electronic and zero-point Energies=           -423.046603
 Sum of electronic and thermal Energies=              -423.037941
 Sum of electronic and thermal Enthalpies=            -423.036997
 Sum of electronic and thermal Free Energies=         -423.079670

                     E (Thermal)             CV                S
                      KCal/Mol        Cal/Mol-Kelvin    Cal/Mol-Kelvin
 Total                  104.688             33.478             89.813
 Electronic               0.000              0.000              0.000
 Translational            0.889              2.981             40.409
 Rotational               0.889              2.981             28.795
 Vibrational            102.910             27.517             20.609
 Vibration     1          0.598              1.967              4.090
 Vibration     2          0.630              1.864              2.307
 Vibration     3          0.638              1.839              2.128
 Vibration     4          0.663              1.761              1.721
 Vibration     5          0.677              1.721              1.569
 Vibration     6          0.690              1.682              1.442
 Vibration     7          0.715              1.610              1.246
 Vibration     8          0.738              1.546              1.105
 Vibration     9          0.801              1.379              0.821
 Vibration    10          0.837              1.293              0.708
 Vibration    11          0.848              1.268              0.679
 Vibration    12          0.956              1.035              0.452

 Optimization completed.
    -- Stationary point found.
 Normal termination of Gaussian 09 at Mon Jan 27 23:38:01 2020.
