 Gaussian 09, Revision D.01,
 Gaussian 09:  ES64L-G09RevD.01 24-Apr-2013

 -----------------------------
 # b3lyp 6-31G(2df,p) opt Freq
 -----------------------------

 -----
 titel
 -----
 Symbolic Z-matrix:
 Charge =  0 Multiplicity = 1

 SCF Done:  E(RB3LYP) =  -423.123832653     A.U. after   13 cycles
 Optimization completed.
    -- Stationary point found.
 Normal termination of Gaussian 09 at Mon Jan 27 16:03:55 2020.

 ----------------------------------------------------------------------
 #N Geom=AllCheck Guess=TCheck SCRF=Check GenChk RB3LYP/6-31G(2df,p) Fr
 eq
 ----------------------------------------------------------------------

 Structure from the checkpoint file:  "/scratch/puck/g09_cdcf1cdd-9f29-4d83-83fe-ae9194d53527/Gau-55196.chk"
 -----
 titel
 -----
 Charge =  0 Multiplicity = 1

                         Standard orientation:
 ---------------------------------------------------------------------
 Center     Atomic      Atomic             Coordinates (Angstroms)
 Number     Number       Type             X           Y           Z
 ---------------------------------------------------------------------
      1          6           0       -0.935446   -1.389192    1.229823
      2          6           0       -0.531505   -0.657816   -0.042616
      3          8           0       -0.368101   -1.563985   -1.119222
      4          6           0       -1.343546    0.590687   -0.474444
      5          6           0       -1.156685    1.743494    0.470544
      6          6           0       -0.071733    1.439421   -0.529681
      7          6           0        0.728701    0.255508   -0.028496
      8          6           0        1.941758    0.207443    0.791461
      9          8           0        1.944705   -0.156345   -0.599707
     10          1           0       -0.196034   -2.158858    1.471535
     11          1           0       -1.024274   -0.710516    2.082460
     12          1           0       -1.906403   -1.882650    1.096057
     13          1           0       -1.203120   -2.031729   -1.231440
     14          1           0       -2.157445    0.550332   -1.188871
     15          1           0       -1.757675    2.620974    0.253180
     16          1           0       -0.986307    1.581095    1.531956
     17          1           0        0.260883    2.143069   -1.281815
     18          1           0        2.464700    1.131554    1.035259
     19          1           0        2.103583   -0.617891    1.483565
 ---------------------------------------------------------------------

 SCF Done:  E(RB3LYP) =  -423.123832653     A.U. after    1 cycles

 The electronic state is 1-A.
 Alpha  occ. eigenvalues --  -19.14737 -19.13561 -10.24224 -10.23814 -10.22668
 Alpha  occ. eigenvalues --  -10.19445 -10.19403 -10.19356 -10.17905  -1.07127
 Alpha  occ. eigenvalues --   -1.02052  -0.89176  -0.74542  -0.68378  -0.65970
 Alpha  occ. eigenvalues --   -0.61898  -0.58447  -0.53643  -0.51696  -0.49555
 Alpha  occ. eigenvalues --   -0.46816  -0.46097  -0.42700  -0.41585  -0.40555
 Alpha  occ. eigenvalues --   -0.39442  -0.36733  -0.35300  -0.33267  -0.32045
 Alpha  occ. eigenvalues --   -0.29602  -0.26646  -0.26295  -0.24957
 Alpha virt. eigenvalues --    0.06871   0.08558   0.10255   0.10590   0.11553
 Alpha virt. eigenvalues --    0.12082   0.14626   0.14838   0.15643   0.17400
 Alpha virt. eigenvalues --    0.17702   0.18885   0.19211   0.21033   0.22266

 Mulliken charges:
               1
     1  C   -0.456975
     2  C    0.303342
     3  O   -0.463781
     4  C   -0.102566
     5  C   -0.308293
     6  C   -0.147153
     7  C    0.450877
     8  C   -0.272866
     9  O   -0.271826
    10  H    0.129811
    11  H    0.118290
    12  H    0.107089
    13  H    0.275925
    14  H    0.086355
    15  H    0.117676
    16  H    0.108862
    17  H    0.100610
    18  H    0.112432
    19  H    0.112190
 Sum of Mulliken charges =   0.00000

 Dipole moment (field-independent basis, Debye):
    X=             -2.3025    Y=              0.6616    Z=              1.6822  Tot=              2.9273
 Quadrupole moment (field-independent basis, Debye-Ang):
   XX=            -52.4554   YY=            -50.3721   ZZ=            -53.4909
   XY=              3.2827   XZ=              5.3606   YZ=             -1.4352

  Exact polarizability:  79.985   0.589  77.358   4.510  -0.547  68.148
 Approx polarizability: 115.382   0.865 107.301   3.280   4.099 105.762

                      1                      2                      3
                      A                      A                      A
 Frequencies --    113.4171               201.1644               220.9556
 Red. masses --      3.4038                 2.6657                 1.8570
 Frc consts  --      0.0258                 0.0636                 0.0534
 IR Inten    --      1.2154                 1.6591                 0.9172

                      4                      5                      6
                      A                      A                      A
 Frequencies --    240.4257               259.1845               281.2325
 Red. masses --      1.3790                 1.2098                 2.9496
 Frc consts  --      0.0470                 0.0479                 0.1374
 IR Inten    --     13.5153                62.0737                13.1026

                      7                      8                      9
                      A                      A                      A
 Frequencies --    312.1214               373.2005               429.3945
 Red. masses --      2.9353                 3.5609                 2.9498
 Frc consts  --      0.1685                 0.2922                 0.3204
 IR Inten    --      3.0504                10.6819                 4.9873

                     10                     11                     12
                      A                      A                      A
 Frequencies --    497.0855               563.0923               591.3352
 Red. masses --      3.4878                 4.5075                 3.5611
 Frc consts  --      0.5078                 0.8421                 0.7337
 IR Inten    --      4.4564                11.6454                 6.1764

                     13                     14                     15
                      A                      A                      A
 Frequencies --    655.6319               779.8628               791.4167
 Red. masses --      3.4965                 1.6604                 1.6572
 Frc consts  --      0.8855                 0.5950                 0.6116
 IR Inten    --      0.4115                 6.5620                16.0780

                     16                     17                     18
                      A                      A                      A
 Frequencies --    863.3871               899.5930               932.4672
 Red. masses --      1.6116                 4.1964                 2.1798
 Frc consts  --      0.7078                 2.0009                 1.1167
 IR Inten    --      1.9722                11.2889                13.7501

                     19                     20                     21
                      A                      A                      A
 Frequencies --    940.5829               960.5033               970.2494
 Red. masses --      2.0410                 2.0684                 3.0296
 Frc consts  --      1.0638                 1.1243                 1.6804
 IR Inten    --      8.5434                31.9127                26.6428

                     22                     23                     24
                      A                      A                      A
 Frequencies --   1010.1860              1030.9545              1060.6363
 Red. masses --      1.4811                 1.7476                 1.2722
 Frc consts  --      0.8905                 1.0944                 0.8432
 IR Inten    --      0.5451                26.5021                 0.1948

                     25                     26                     27
                      A                      A                      A
 Frequencies --   1086.1975              1098.9509              1123.5242
 Red. masses --      1.3495                 1.6850                 1.2737
 Frc consts  --      0.9381                 1.1990                 0.9473
 IR Inten    --      3.5779                 5.9837                 3.3683

                     28                     29                     30
                      A                      A                      A
 Frequencies --   1149.0994              1160.2917              1172.3393
 Red. masses --      1.5917                 1.5965                 1.9595
 Frc consts  --      1.2383                 1.2663                 1.5867
 IR Inten    --      7.2281                12.8138                49.5047

                     31                     32                     33
                      A                      A                      A
 Frequencies --   1195.7996              1217.7017              1286.7026
 Red. masses --      3.7705                 3.0474                 1.8808
 Frc consts  --      3.1766                 2.6623                 1.8346
 IR Inten    --     24.8808                14.0142                26.0454

                     34                     35                     36
                      A                      A                      A
 Frequencies --   1310.8842              1374.2908              1403.9084
 Red. masses --      2.3938                 1.9701                 1.2915
 Frc consts  --      2.4237                 2.1923                 1.4997
 IR Inten    --      9.5659                35.3827                10.2006

                     37                     38                     39
                      A                      A                      A
 Frequencies --   1443.5812              1484.5307              1489.1197
 Red. masses --      1.9911                 1.0847                 1.1122
 Frc consts  --      2.4447                 1.4085                 1.4531
 IR Inten    --     13.1286                 0.3558                 3.3124

                     40                     41                     42
                      A                      A                      A
 Frequencies --   1498.3478              1535.4517              3024.9619
 Red. masses --      1.1431                 1.6787                 1.0398
 Frc consts  --      1.5120                 2.3318                 5.6059
 IR Inten    --      7.7826                12.3370                21.4943

                     43                     44                     45
                      A                      A                      A
 Frequencies --   3078.3041              3092.8838              3111.1562
 Red. masses --      1.0500                 1.0952                 1.0581
 Frc consts  --      5.8623                 6.1724                 6.0341
 IR Inten    --     21.4031                22.2780                13.5628

                     46                     47                     48
                      A                      A                      A
 Frequencies --   3118.9998              3165.8004              3179.2513
 Red. masses --      1.0992                 1.1194                 1.0927
 Frc consts  --      6.3005                 6.6102                 6.5072
 IR Inten    --     25.7726                21.3593                13.6195

                     49                     50                     51
                      A                      A                      A
 Frequencies --   3194.0008              3204.0391              3799.7819
 Red. masses --      1.1064                 1.1016                 1.0659
 Frc consts  --      6.6502                 6.6628                 9.0677
 IR Inten    --      3.2308                17.5903                14.4514

 - Thermochemistry -
 -------------------
 Temperature   298.150 Kelvin.  Pressure   1.00000 Atm.
 Atom     1 has atomic number  6 and mass  12.00000

 Molecular mass:   126.06808 amu.
 Principal axes and moments of inertia in atomic units:
                           1         2         3
     Eigenvalues --   862.68805 962.323301269.13566
           X            0.99722   0.07093   0.02304
           Y           -0.06975   0.99639  -0.04848
           Z           -0.02639   0.04674   0.99856
 This molecule is an asymmetric top.
 Rotational symmetry number  1.
 Warning -- assumption of classical behavior for rotation
           may cause significant error
 Rotational temperatures (Kelvin)      0.10040     0.09000     0.06825
 Rotational constants (GHZ):           2.09200     1.87540     1.42202
 Zero-point vibrational energy     412579.9 (Joules/Mol)
                                   98.60897 (Kcal/Mol)
 Warning -- explicit consideration of  12 degrees of freedom as
           vibrations may cause significant error
 Vibrational temperatures:    163.18   289.43   317.91   345.92   372.91
          (Kelvin)            404.63   449.07   536.95   617.80   715.19
                              810.16   850.80   943.31  1122.05  1138.67
                             1242.22  1294.31  1341.61  1353.29  1381.95
                             1395.97  1453.43  1483.31  1526.02  1562.79
                             1581.14  1616.50  1653.30  1669.40  1686.73
                             1720.49  1752.00  1851.28  1886.07  1977.30
                             2019.91  2076.99  2135.91  2142.51  2155.79
                             2209.17  4352.24  4428.99  4449.96  4476.25
                             4487.54  4554.88  4574.23  4595.45  4609.89
                             5467.03

 Zero-point correction=                           0.157143 (Hartree/Particle)
 Thermal correction to Energy=                    0.165705
 Thermal correction to Enthalpy=                  0.166649
 Thermal correction to Gibbs Free Energy=         0.124634
 Sum of electronic and zero-point Energies=           -422.966689
 Sum of electronic and thermal Energies=              -422.958128
 Sum of electronic and thermal Enthalpies=            -422.957184
 Sum of electronic and thermal Free Energies=         -422.999199

                     E (Thermal)             CV                S
                      KCal/Mol        Cal/Mol-Kelvin    Cal/Mol-Kelvin
 Total                  103.981             33.705             88.428
 Electronic               0.000              0.000              0.000
 Translational            0.889              2.981             40.409
 Rotational               0.889              2.981             28.446
 Vibrational            102.204             27.743             19.574
 Vibration     1          0.607              1.938              3.210
 Vibration     2          0.638              1.838              2.122
 Vibration     3          0.648              1.809              1.951
 Vibration     4          0.658              1.779              1.800
 Vibration     5          0.668              1.747              1.667
 Vibration     6          0.681              1.708              1.526
 Vibration     7          0.700              1.651              1.351
 Vibration     8          0.745              1.527              1.067
 Vibration     9          0.791              1.406              0.861
 Vibration    10          0.853              1.256              0.665
 Vibration    11          0.919              1.111              0.518
 Vibration    12          0.949              1.050              0.465

 Optimization completed.
    -- Stationary point found.
 Normal termination of Gaussian 09 at Mon Jan 27 16:44:33 2020.
