 Gaussian 09, Revision D.01,
 Gaussian 09:  ES64L-G09RevD.01 24-Apr-2013

 -----------------------------
 # b3lyp 6-31G(2df,p) opt Freq
 -----------------------------

 -----
 titel
 -----
 Symbolic Z-matrix:
 Charge =  0 Multiplicity = 1

 SCF Done:  E(RB3LYP) =  -423.229297965     A.U. after   14 cycles
 Optimization completed.
    -- Stationary point found.
 Normal termination of Gaussian 09 at Tue Jan 28 03:54:59 2020.

 ----------------------------------------------------------------------
 #N Geom=AllCheck Guess=TCheck SCRF=Check GenChk RB3LYP/6-31G(2df,p) Fr
 eq
 ----------------------------------------------------------------------

 Structure from the checkpoint file:  "/scratch/puck/g09_c9b60a2c-11b4-4369-bbb0-e07912137c90/Gau-116361.chk"
 -----
 titel
 -----
 Charge =  0 Multiplicity = 1

                         Standard orientation:
 ---------------------------------------------------------------------
 Center     Atomic      Atomic             Coordinates (Angstroms)
 Number     Number       Type             X           Y           Z
 ---------------------------------------------------------------------
      1          6           0       -1.822041   -1.167814   -0.853589
      2          6           0       -1.081452   -0.628777    0.376739
      3          6           0       -1.504264    0.819739    0.710430
      4          8           0       -0.567216    1.683725    0.041624
      5          6           0        0.585759    1.013620   -0.232001
      6          8           0        1.555487    1.552282   -0.687991
      7          6           0        0.408390   -0.427116    0.138787
      8          6           0        1.362743   -1.435822   -0.445024
      9          6           0        1.510760   -1.037568    0.990776
     10          1           0       -1.458762   -2.160892   -1.132935
     11          1           0       -2.896140   -1.245666   -0.656244
     12          1           0       -1.683644   -0.506446   -1.715531
     13          1           0       -1.271433   -1.282178    1.233449
     14          1           0       -2.502901    1.070864    0.345633
     15          1           0       -1.457397    1.024974    1.785993
     16          1           0        0.972026   -2.422597   -0.667478
     17          1           0        2.087662   -1.050904   -1.153665
     18          1           0        1.205421   -1.741193    1.757972
     19          1           0        2.339631   -0.391588    1.257033
 ---------------------------------------------------------------------

 SCF Done:  E(RB3LYP) =  -423.229297965     A.U. after    1 cycles

 The electronic state is 1-A.
 Alpha  occ. eigenvalues --  -19.17731 -19.11656 -10.29692 -10.24721 -10.21200
 Alpha  occ. eigenvalues --  -10.21083 -10.20334 -10.19962 -10.18875  -1.09498
 Alpha  occ. eigenvalues --   -1.01540  -0.88074  -0.79556  -0.70590  -0.68276
 Alpha  occ. eigenvalues --   -0.61526  -0.59380  -0.54600  -0.51002  -0.49367
 Alpha  occ. eigenvalues --   -0.48766  -0.45478  -0.43251  -0.42068  -0.40767
 Alpha  occ. eigenvalues --   -0.39845  -0.38337  -0.37284  -0.36535  -0.33885
 Alpha  occ. eigenvalues --   -0.31220  -0.29228  -0.28961  -0.26267
 Alpha virt. eigenvalues --    0.01420   0.07382   0.10419   0.10673   0.10870
 Alpha virt. eigenvalues --    0.11261   0.13566   0.13768   0.15735   0.16645
 Alpha virt. eigenvalues --    0.17843   0.18704   0.19881   0.21002   0.22435

 Mulliken charges:
               1
     1  C   -0.394858
     2  C   -0.121800
     3  C   -0.092860
     4  O   -0.232594
     5  C    0.417930
     6  O   -0.364586
     7  C    0.192691
     8  C   -0.309891
     9  C   -0.307510
    10  H    0.120927
    11  H    0.117133
    12  H    0.132893
    13  H    0.084214
    14  H    0.121299
    15  H    0.115492
    16  H    0.118731
    17  H    0.143725
    18  H    0.119192
    19  H    0.139872
 Sum of Mulliken charges =   0.00000

 Dipole moment (field-independent basis, Debye):
    X=             -2.3974    Y=             -3.2415    Z=              1.6230  Tot=              4.3461
 Quadrupole moment (field-independent basis, Debye-Ang):
   XX=            -53.2828   YY=            -57.9486   ZZ=            -51.8631
   XY=             -3.4433   XZ=              1.0247   YZ=              2.1326

  Exact polarizability:  84.566  -1.519  73.938  -2.193  -0.177  66.449
 Approx polarizability: 120.445  -0.379 108.367  -7.212  -3.899 101.029

                      1                      2                      3
                      A                      A                      A
 Frequencies --     74.4507               173.1695               207.4818
 Red. masses --      3.5089                 4.4517                 2.5632
 Frc consts  --      0.0115                 0.0787                 0.0650
 IR Inten    --      1.6627                 0.7314                 0.6968

                      4                      5                      6
                      A                      A                      A
 Frequencies --    238.2629               246.8670               253.1593
 Red. masses --      2.1946                 1.4514                 2.0310
 Frc consts  --      0.0734                 0.0521                 0.0767
 IR Inten    --      1.4965                 0.8863                 2.8203

                      7                      8                      9
                      A                      A                      A
 Frequencies --    334.8557               459.2145               498.9535
 Red. masses --      2.4129                 3.0069                 3.5559
 Frc consts  --      0.1594                 0.3736                 0.5216
 IR Inten    --      1.6118                 1.1105                 4.7407

                     10                     11                     12
                      A                      A                      A
 Frequencies --    571.7451               705.5784               717.0905
 Red. masses --      5.9352                 6.1691                 3.9695
 Frc consts  --      1.1431                 1.8095                 1.2026
 IR Inten    --      5.1216                 1.2022                 0.7386

                     13                     14                     15
                      A                      A                      A
 Frequencies --    754.7131               787.5439               844.0713
 Red. masses --      4.7052                 1.1031                 2.0307
 Frc consts  --      1.5790                 0.4031                 0.8524
 IR Inten    --      8.8765                 1.1638                 0.1648

                     16                     17                     18
                      A                      A                      A
 Frequencies --    891.8688               917.0037               959.4418
 Red. masses --      2.1772                 4.1075                 1.5747
 Frc consts  --      1.0203                 2.0350                 0.8540
 IR Inten    --      3.1767                 1.8137                 0.9884

                     19                     20                     21
                      A                      A                      A
 Frequencies --    964.2593               994.3527              1018.2406
 Red. masses --      1.2914                 2.8705                 2.5904
 Frc consts  --      0.7075                 1.6722                 1.5824
 IR Inten    --      0.8807                13.7858                44.8366

                     22                     23                     24
                      A                      A                      A
 Frequencies --   1061.2234              1064.8505              1093.5029
 Red. masses --      1.9160                 1.4992                 1.4234
 Frc consts  --      1.2713                 1.0016                 1.0028
 IR Inten    --     14.5443                 9.9267                 5.3360

                     25                     26                     27
                      A                      A                      A
 Frequencies --   1105.6374              1133.4590              1161.2096
 Red. masses --      1.8469                 3.0189                 1.9995
 Frc consts  --      1.3302                 2.2851                 1.5885
 IR Inten    --     40.9411               158.9899                 3.7010

                     28                     29                     30
                      A                      A                      A
 Frequencies --   1201.1016              1241.8952              1261.6520
 Red. masses --      1.2920                 1.4543                 1.4357
 Frc consts  --      1.0982                 1.3215                 1.3464
 IR Inten    --      0.5148                37.7707                 4.1859

                     31                     32                     33
                      A                      A                      A
 Frequencies --   1302.7513              1349.4075              1367.1751
 Red. masses --      2.5169                 1.8354                 1.5973
 Frc consts  --      2.5167                 1.9690                 1.7591
 IR Inten    --     38.7990                 9.5254                 3.9798

                     34                     35                     36
                      A                      A                      A
 Frequencies --   1401.4610              1420.6472              1455.8011
 Red. masses --      1.4864                 1.3782                 1.0910
 Frc consts  --      1.7201                 1.6388                 1.3624
 IR Inten    --     32.7886                22.8037                 3.5613

                     37                     38                     39
                      A                      A                      A
 Frequencies --   1487.5718              1498.5621              1498.8134
 Red. masses --      1.2878                 1.0764                 1.1039
 Frc consts  --      1.6790                 1.4242                 1.4611
 IR Inten    --      3.6527                 3.8445                 3.3896

                     40                     41                     42
                      A                      A                      A
 Frequencies --   1519.6305              1868.6585              3035.3169
 Red. masses --      1.0902                12.5233                 1.0392
 Frc consts  --      1.4834                25.7649                 5.6412
 IR Inten    --      1.6542               312.1836                24.0476

                     43                     44                     45
                      A                      A                      A
 Frequencies --   3037.8116              3060.8506              3104.6448
 Red. masses --      1.0616                 1.0838                 1.1029
 Frc consts  --      5.7723                 5.9824                 6.2632
 IR Inten    --     28.0048                23.9791                12.5512

                     46                     47                     48
                      A                      A                      A
 Frequencies --   3106.0882              3113.0424              3133.8465
 Red. masses --      1.1017                 1.1012                 1.0515
 Frc consts  --      6.2622                 6.2879                 6.0843
 IR Inten    --     34.4099                27.1106                12.1479

                     49                     50                     51
                      A                      A                      A
 Frequencies --   3137.3411              3220.4363              3234.5041
 Red. masses --      1.0560                 1.1187                 1.1167
 Frc consts  --      6.1238                 6.8356                 6.8832
 IR Inten    --      9.8029                 0.3049                 5.1673

 - Thermochemistry -
 -------------------
 Temperature   298.150 Kelvin.  Pressure   1.00000 Atm.
 Atom     1 has atomic number  6 and mass  12.00000

 Molecular mass:   126.06808 amu.
 Principal axes and moments of inertia in atomic units:
                           1         2         3
     Eigenvalues --   857.91256 969.863691434.94872
           X            0.99720  -0.07197   0.02028
           Y            0.07135   0.99701   0.02975
           Z           -0.02236  -0.02822   0.99935
 This molecule is an asymmetric top.
 Rotational symmetry number  1.
 Warning -- assumption of classical behavior for rotation
           may cause significant error
 Rotational temperatures (Kelvin)      0.10096     0.08931     0.06036
 Rotational constants (GHZ):           2.10364     1.86082     1.25770
 Zero-point vibrational energy     420434.8 (Joules/Mol)
                                  100.48634 (Kcal/Mol)
 Warning -- explicit consideration of  10 degrees of freedom as
           vibrations may cause significant error
 Vibrational temperatures:    107.12   249.15   298.52   342.81   355.19
          (Kelvin)            364.24   481.78   660.71   717.88   822.61
                             1015.17  1031.73  1085.86  1133.10  1214.43
                             1283.20  1319.36  1380.42  1387.35  1430.65
                             1465.02  1526.86  1532.08  1573.30  1590.76
                             1630.79  1670.72  1728.12  1786.81  1815.23
                             1874.37  1941.49  1967.06  2016.39  2043.99
                             2094.57  2140.28  2156.09  2156.46  2186.41
                             2688.58  4367.14  4370.73  4403.88  4466.89
                             4468.96  4478.97  4508.90  4513.93  4633.48
                             4653.72

 Zero-point correction=                           0.160135 (Hartree/Particle)
 Thermal correction to Energy=                    0.168401
 Thermal correction to Enthalpy=                  0.169345
 Thermal correction to Gibbs Free Energy=         0.127310
 Sum of electronic and zero-point Energies=           -423.069163
 Sum of electronic and thermal Energies=              -423.060897
 Sum of electronic and thermal Enthalpies=            -423.059953
 Sum of electronic and thermal Free Energies=         -423.101988

                     E (Thermal)             CV                S
                      KCal/Mol        Cal/Mol-Kelvin    Cal/Mol-Kelvin
 Total                  105.673             31.622             88.470
 Electronic               0.000              0.000              0.000
 Translational            0.889              2.981             40.409
 Rotational               0.889              2.981             28.570
 Vibrational            103.896             25.660             19.492
 Vibration     1          0.599              1.966              4.032
 Vibration     2          0.627              1.875              2.401
 Vibration     3          0.641              1.829              2.066
 Vibration     4          0.656              1.782              1.816
 Vibration     5          0.661              1.768              1.753
 Vibration     6          0.664              1.757              1.708
 Vibration     7          0.716              1.606              1.237
 Vibration     8          0.817              1.341              0.768
 Vibration     9          0.854              1.252              0.661
 Vibration    10          0.928              1.092              0.501

 Optimization completed.
    -- Stationary point found.
 Normal termination of Gaussian 09 at Tue Jan 28 04:37:05 2020.
