 Gaussian 09, Revision D.01,
 Gaussian 09:  ES64L-G09RevD.01 24-Apr-2013

 -----------------------------
 # b3lyp 6-31G(2df,p) opt Freq
 -----------------------------

 -----
 titel
 -----
 Symbolic Z-matrix:
 Charge =  0 Multiplicity = 1

 SCF Done:  E(RB3LYP) =  -423.176542499     A.U. after   14 cycles
 Optimization completed.
    -- Stationary point found.
 Normal termination of Gaussian 09 at Tue Jan 28 03:18:45 2020.

 ----------------------------------------------------------------------
 #N Geom=AllCheck Guess=TCheck SCRF=Check GenChk RB3LYP/6-31G(2df,p) Fr
 eq
 ----------------------------------------------------------------------

 Structure from the checkpoint file:  "/scratch/puck/g09_ef987e7d-c09c-400c-9a6b-8faf33d24fa2/Gau-66937.chk"
 -----
 titel
 -----
 Charge =  0 Multiplicity = 1

                         Standard orientation:
 ---------------------------------------------------------------------
 Center     Atomic      Atomic             Coordinates (Angstroms)
 Number     Number       Type             X           Y           Z
 ---------------------------------------------------------------------
      1          6           0        2.793279   -0.764104   -0.038402
      2          6           0        1.473203   -0.289650   -0.640204
      3          6           0        1.190192    1.241657   -0.463827
      4          6           0       -0.103015    1.116617    0.363480
      5          8           0        0.240014    0.071975    1.326455
      6          6           0        0.234942   -0.787887    0.144877
      7          6           0       -0.936005    0.063241   -0.428054
      8          6           0       -2.273026   -0.244354    0.182773
      9          8           0       -3.290606   -0.353466   -0.456343
     10          1           0        3.644501   -0.277678   -0.525330
     11          1           0        2.829483   -0.525750    1.028737
     12          1           0        2.917168   -1.846433   -0.153507
     13          1           0        1.407708   -0.590257   -1.690759
     14          1           0        1.973232    1.745212    0.108448
     15          1           0        1.044938    1.774960   -1.406404
     16          1           0       -0.545457    2.006730    0.810928
     17          1           0        0.142241   -1.851372    0.368759
     18          1           0       -1.024870    0.171053   -1.511466
     19          1           0       -2.261620   -0.367664    1.285837
 ---------------------------------------------------------------------

 SCF Done:  E(RB3LYP) =  -423.176542499     A.U. after    1 cycles

 The electronic state is 1-A.
 Alpha  occ. eigenvalues --  -19.14915 -19.13604 -10.26761 -10.25575 -10.25315
 Alpha  occ. eigenvalues --  -10.20540 -10.20223 -10.19464 -10.18096  -1.06562
 Alpha  occ. eigenvalues --   -1.04178  -0.81819  -0.76492  -0.73038  -0.67630
 Alpha  occ. eigenvalues --   -0.60530  -0.56783  -0.55610  -0.52923  -0.49326
 Alpha  occ. eigenvalues --   -0.46294  -0.44565  -0.43289  -0.41784  -0.40032
 Alpha  occ. eigenvalues --   -0.39739  -0.38852  -0.36437  -0.34889  -0.34057
 Alpha  occ. eigenvalues --   -0.32959  -0.31745  -0.27492  -0.24070
 Alpha virt. eigenvalues --   -0.02393   0.07658   0.09841   0.10693   0.11032
 Alpha virt. eigenvalues --    0.12913   0.13660   0.14935   0.15487   0.16134
 Alpha virt. eigenvalues --    0.16565   0.17017   0.18276   0.19513   0.19926

 Mulliken charges:
               1
     1  C   -0.416244
     2  C    0.033187
     3  C   -0.245035
     4  C    0.060082
     5  O   -0.296623
     6  C    0.050872
     7  C   -0.094428
     8  C    0.142161
     9  O   -0.264031
    10  H    0.117666
    11  H    0.134419
    12  H    0.113828
    13  H    0.078956
    14  H    0.113451
    15  H    0.107297
    16  H    0.091714
    17  H    0.088608
    18  H    0.088029
    19  H    0.096088
 Sum of Mulliken charges =   0.00000

 Dipole moment (field-independent basis, Debye):
    X=              2.7502    Y=              0.5420    Z=             -0.6455  Tot=              2.8764
 Quadrupole moment (field-independent basis, Debye-Ang):
   XX=            -64.3462   YY=            -49.6015   ZZ=            -55.3262
   XY=             -1.6484   XZ=             -4.1543   YZ=             -0.1213

  Exact polarizability:  93.420   0.420  69.033   0.398  -0.388  66.318
 Approx polarizability: 123.211   2.178 103.596   6.721   0.429 109.094

                      1                      2                      3
                      A                      A                      A
 Frequencies --     85.0891               144.3905               203.8681
 Red. masses --      4.9116                 3.7978                 2.9844
 Frc consts  --      0.0210                 0.0467                 0.0731
 IR Inten    --      5.9381                 2.1034                 4.7267

                      4                      5                      6
                      A                      A                      A
 Frequencies --    236.9577               247.7747               330.6705
 Red. masses --      1.4576                 1.4716                 2.4152
 Frc consts  --      0.0482                 0.0532                 0.1556
 IR Inten    --      1.0209                 2.5627                 1.5315

                      7                      8                      9
                      A                      A                      A
 Frequencies --    387.0507               432.9681               503.2547
 Red. masses --      6.0617                 2.0881                 4.0492
 Frc consts  --      0.5350                 0.2306                 0.6042
 IR Inten    --      0.7938                 3.6618                17.1727

                     10                     11                     12
                      A                      A                      A
 Frequencies --    599.2032               695.3668               809.5028
 Red. masses --      4.4989                 3.1941                 3.5406
 Frc consts  --      0.9517                 0.9100                 1.3670
 IR Inten    --      3.6779                 1.9996                 5.2481

                     13                     14                     15
                      A                      A                      A
 Frequencies --    828.4380               869.4856               879.7599
 Red. masses --      3.0034                 2.8929                 2.5865
 Frc consts  --      1.2145                 1.2886                 1.1795
 IR Inten    --      4.5736                14.7561                17.5476

                     16                     17                     18
                      A                      A                      A
 Frequencies --    907.8326               930.8141               943.4755
 Red. masses --      2.7617                 1.7719                 2.7971
 Frc consts  --      1.3410                 0.9045                 1.4669
 IR Inten    --      4.8134                17.5122                13.6184

                     19                     20                     21
                      A                      A                      A
 Frequencies --    962.8299              1038.1966              1044.2256
 Red. masses --      2.7129                 1.4701                 1.8312
 Frc consts  --      1.4818                 0.9336                 1.1765
 IR Inten    --      6.5358                 1.0490                 2.1247

                     22                     23                     24
                      A                      A                      A
 Frequencies --   1057.2849              1068.7133              1093.2562
 Red. masses --      1.4839                 2.5882                 1.7158
 Frc consts  --      0.9773                 1.7417                 1.2083
 IR Inten    --     26.3634                13.7482                 0.7171

                     25                     26                     27
                      A                      A                      A
 Frequencies --   1147.1975              1182.3209              1196.4615
 Red. masses --      2.3929                 1.5068                 1.5816
 Frc consts  --      1.8555                 1.2411                 1.3340
 IR Inten    --     29.2623                10.7531                 0.4081

                     28                     29                     30
                      A                      A                      A
 Frequencies --   1207.5904              1216.9941              1255.6052
 Red. masses --      1.3920                 1.4494                 1.3855
 Frc consts  --      1.1960                 1.2648                 1.2870
 IR Inten    --      1.1189                25.8164                 1.5678

                     31                     32                     33
                      A                      A                      A
 Frequencies --   1273.5739              1291.2072              1317.7304
 Red. masses --      1.4556                 1.5062                 1.5612
 Frc consts  --      1.3911                 1.4795                 1.5972
 IR Inten    --      1.4748                 1.1881                 7.5945

                     34                     35                     36
                      A                      A                      A
 Frequencies --   1341.9558              1372.2706              1406.3664
 Red. masses --      1.4799                 1.5454                 1.2424
 Frc consts  --      1.5702                 1.7146                 1.4478
 IR Inten    --      8.6209                 1.5364                 3.8839

                     37                     38                     39
                      A                      A                      A
 Frequencies --   1422.1360              1487.3773              1496.1475
 Red. masses --      1.2744                 1.0972                 1.0430
 Frc consts  --      1.5186                 1.4302                 1.3756
 IR Inten    --      5.6022                 2.2710                 4.5486

                     40                     41                     42
                      A                      A                      A
 Frequencies --   1505.5968              1820.2969              2919.1913
 Red. masses --      1.0518                 9.9240                 1.0838
 Frc consts  --      1.4048                19.3742                 5.4414
 IR Inten    --      1.8883               223.3323                62.1725

                     43                     44                     45
                      A                      A                      A
 Frequencies --   3033.1824              3054.4949              3067.6630
 Red. masses --      1.0356                 1.0834                 1.0605
 Frc consts  --      5.6136                 5.9557                 5.8800
 IR Inten    --     26.6277                14.7479                20.0929

                     46                     47                     48
                      A                      A                      A
 Frequencies --   3094.1081              3098.3834              3114.7750
 Red. masses --      1.0867                 1.1009                 1.1032
 Frc consts  --      6.1293                 6.2269                 6.3059
 IR Inten    --     15.9730                21.6033                11.2496

                     49                     50                     51
                      A                      A                      A
 Frequencies --   3117.7750              3119.9468              3125.2510
 Red. masses --      1.0929                 1.1016                 1.0926
 Frc consts  --      6.2594                 6.3176                 6.2874
 IR Inten    --     39.8198                40.2229                20.1859

 - Thermochemistry -
 -------------------
 Temperature   298.150 Kelvin.  Pressure   1.00000 Atm.
 Atom     1 has atomic number  6 and mass  12.00000

 Molecular mass:   126.06808 amu.
 Principal axes and moments of inertia in atomic units:
                           1         2         3
     Eigenvalues --   443.364711718.646431774.33710
           X            0.99985  -0.01236  -0.01237
           Y            0.01142   0.99722  -0.07367
           Z            0.01325   0.07352   0.99721
 This molecule is an asymmetric top.
 Rotational symmetry number  1.
 Warning -- assumption of classical behavior for rotation
           may cause significant error
 Rotational temperatures (Kelvin)      0.19536     0.05040     0.04881
 Rotational constants (GHZ):           4.07056     1.05009     1.01714
 Zero-point vibrational energy     418609.3 (Joules/Mol)
                                  100.05002 (Kcal/Mol)
 Warning -- explicit consideration of  10 degrees of freedom as
           vibrations may cause significant error
 Vibrational temperatures:    122.42   207.75   293.32   340.93   356.49
          (Kelvin)            475.76   556.88   622.94   724.07   862.12
                             1000.48  1164.69  1191.94  1250.99  1265.78
                             1306.17  1339.23  1357.45  1385.30  1493.73
                             1502.41  1521.20  1537.64  1572.95  1650.56
                             1701.09  1721.44  1737.45  1750.98  1806.53
                             1832.39  1857.76  1895.92  1930.77  1974.39
                             2023.45  2046.13  2140.00  2152.62  2166.22
                             2619.00  4200.06  4364.07  4394.73  4413.68
                             4451.73  4457.88  4481.46  4485.78  4488.90
                             4496.53

 Zero-point correction=                           0.159440 (Hartree/Particle)
 Thermal correction to Energy=                    0.167503
 Thermal correction to Enthalpy=                  0.168447
 Thermal correction to Gibbs Free Energy=         0.126724
 Sum of electronic and zero-point Energies=           -423.017103
 Sum of electronic and thermal Energies=              -423.009040
 Sum of electronic and thermal Enthalpies=            -423.008096
 Sum of electronic and thermal Free Energies=         -423.049818

                     E (Thermal)             CV                S
                      KCal/Mol        Cal/Mol-Kelvin    Cal/Mol-Kelvin
 Total                  105.109             30.928             87.812
 Electronic               0.000              0.000              0.000
 Translational            0.889              2.981             40.409
 Rotational               0.889              2.981             28.693
 Vibrational            103.332             24.966             18.710
 Vibration     1          0.601              1.960              3.770
 Vibration     2          0.616              1.909              2.745
 Vibration     3          0.640              1.834              2.098
 Vibration     4          0.656              1.784              1.826
 Vibration     5          0.661              1.766              1.746
 Vibration     6          0.713              1.614              1.257
 Vibration     7          0.755              1.498              1.011
 Vibration     8          0.794              1.398              0.849
 Vibration     9          0.859              1.243              0.650
 Vibration    10          0.957              1.033              0.451

 Optimization completed.
    -- Stationary point found.
 Normal termination of Gaussian 09 at Tue Jan 28 04:11:12 2020.
