 Gaussian 09, Revision D.01,
 Gaussian 09:  ES64L-G09RevD.01 24-Apr-2013

 -----------------------------
 # b3lyp 6-31G(2df,p) opt Freq
 -----------------------------

 -----
 titel
 -----
 Symbolic Z-matrix:
 Charge =  0 Multiplicity = 1

 SCF Done:  E(RB3LYP) =  -423.089103149     A.U. after   13 cycles
 Optimization completed.
    -- Stationary point found.
 Normal termination of Gaussian 09 at Mon Jan 27 15:59:23 2020.

 ----------------------------------------------------------------------
 #N Geom=AllCheck Guess=TCheck SCRF=Check GenChk RB3LYP/6-31G(2df,p) Fr
 eq
 ----------------------------------------------------------------------

 Structure from the checkpoint file:  "/scratch/puck/g09_3ad1d6a9-ebca-499b-b281-1100a9802b1b/Gau-35541.chk"
 -----
 titel
 -----
 Charge =  0 Multiplicity = 1

                         Standard orientation:
 ---------------------------------------------------------------------
 Center     Atomic      Atomic             Coordinates (Angstroms)
 Number     Number       Type             X           Y           Z
 ---------------------------------------------------------------------
      1          6           0       -1.712860    1.336542   -0.550799
      2          6           0       -1.298462   -0.047643   -0.055124
      3          8           0       -2.409679   -0.927127    0.017735
      4          6           0       -0.371681   -0.400447    1.073766
      5          6           0        0.992215    0.334936    1.151481
      6          6           0        1.296643    1.327415    0.032030
      7          6           0        1.341987   -0.144898   -0.236098
      8          8           0        2.494382   -0.804523   -0.626172
      9          6           0       -0.041476   -0.852393   -0.350991
     10          1           0       -2.805678    1.372289   -0.551877
     11          1           0       -1.366481    2.137968    0.103658
     12          1           0       -1.362282    1.541331   -1.567399
     13          1           0       -2.669952   -1.138896   -0.885729
     14          1           0       -0.734244   -1.021157    1.883131
     15          1           0        1.599443    0.321397    2.047039
     16          1           0        0.581513    2.012554   -0.400917
     17          1           0        2.293497    1.746941    0.143070
     18          1           0        2.671061   -0.580843   -1.547407
     19          1           0       -0.122704   -1.859461   -0.741657
 ---------------------------------------------------------------------

 SCF Done:  E(RB3LYP) =  -423.089103149     A.U. after    1 cycles

 The electronic state is 1-A.
 Alpha  occ. eigenvalues --  -19.14661 -19.13829 -10.24560 -10.23955 -10.19037
 Alpha  occ. eigenvalues --  -10.18683 -10.18526 -10.18298 -10.17692  -1.03311
 Alpha  occ. eigenvalues --   -1.02511  -0.90070  -0.79239  -0.72079  -0.62850
 Alpha  occ. eigenvalues --   -0.62211  -0.56581  -0.53238  -0.52205  -0.49227
 Alpha  occ. eigenvalues --   -0.46845  -0.44583  -0.42235  -0.41770  -0.41022
 Alpha  occ. eigenvalues --   -0.38286  -0.36533  -0.34758  -0.34047  -0.30754
 Alpha  occ. eigenvalues --   -0.29056  -0.26451  -0.25679  -0.20763
 Alpha virt. eigenvalues --    0.07138   0.07832   0.08818   0.10011   0.11729
 Alpha virt. eigenvalues --    0.13621   0.13949   0.15671   0.16339   0.17114
 Alpha virt. eigenvalues --    0.19128   0.19966   0.20800   0.21847   0.23039

 Mulliken charges:
               1
     1  C   -0.491712
     2  C    0.382494
     3  O   -0.460959
     4  C   -0.088963
     5  C   -0.132626
     6  C   -0.377570
     7  C    0.385227
     8  O   -0.454072
     9  C   -0.221492
    10  H    0.121974
    11  H    0.140330
    12  H    0.119067
    13  H    0.279953
    14  H    0.099522
    15  H    0.100335
    16  H    0.109607
    17  H    0.114096
    18  H    0.283374
    19  H    0.091415
 Sum of Mulliken charges =   0.00000

 Dipole moment (field-independent basis, Debye):
    X=             -0.0015    Y=              0.9439    Z=             -2.0876  Tot=              2.2911
 Quadrupole moment (field-independent basis, Debye-Ang):
   XX=            -54.8977   YY=            -53.8469   ZZ=            -48.1729
   XY=              2.0218   XZ=              1.4177   YZ=              1.4825

  Exact polarizability:  84.960   2.212  71.076   0.922   0.196  69.209
 Approx polarizability: 114.172   1.973 105.014  -2.113   2.336 112.815

                      1                      2                      3
                      A                      A                      A
 Frequencies --     67.8152               171.8197               236.9607
 Red. masses --      1.6203                 1.7752                 1.9488
 Frc consts  --      0.0044                 0.0309                 0.0645
 IR Inten    --      0.2988                 1.6498                26.7906

                      4                      5                      6
                      A                      A                      A
 Frequencies --    239.0221               269.1849               303.1302
 Red. masses --      2.2359                 1.5257                 1.4333
 Frc consts  --      0.0753                 0.0651                 0.0776
 IR Inten    --     17.8458                46.7451                88.3514

                      7                      8                      9
                      A                      A                      A
 Frequencies --    327.4978               398.3331               419.6435
 Red. masses --      3.2127                 3.3713                 2.7729
 Frc consts  --      0.2030                 0.3152                 0.2877
 IR Inten    --     14.0472                 4.4260                15.1206

                     10                     11                     12
                      A                      A                      A
 Frequencies --    446.2209               492.7222               567.5997
 Red. masses --      3.7711                 2.8574                 2.8426
 Frc consts  --      0.4424                 0.4087                 0.5396
 IR Inten    --      7.1676                 2.9324                 4.1856

                     13                     14                     15
                      A                      A                      A
 Frequencies --    623.9513               682.4741               728.5238
 Red. masses --      3.2194                 4.7889                 2.3736
 Frc consts  --      0.7385                 1.3142                 0.7423
 IR Inten    --      1.7615                 2.1068                 3.6324

                     16                     17                     18
                      A                      A                      A
 Frequencies --    782.4269               854.8447               881.1169
 Red. masses --      1.5995                 2.5925                 2.2766
 Frc consts  --      0.5769                 1.1162                 1.0414
 IR Inten    --     10.5771                14.3399                10.0082

                     19                     20                     21
                      A                      A                      A
 Frequencies --    891.2838               942.5999               951.1196
 Red. masses --      1.7536                 2.7404                 1.5033
 Frc consts  --      0.8208                 1.4346                 0.8013
 IR Inten    --     17.4970                 2.8786                 2.1216

                     22                     23                     24
                      A                      A                      A
 Frequencies --    965.7287               989.3856              1017.8321
 Red. masses --      1.7501                 2.1465                 1.5689
 Frc consts  --      0.9617                 1.2380                 0.9576
 IR Inten    --     25.5591                 1.0521                 8.2627

                     25                     26                     27
                      A                      A                      A
 Frequencies --   1026.7955              1068.3698              1084.6533
 Red. masses --      1.6699                 1.3570                 1.8254
 Frc consts  --      1.0373                 0.9126                 1.2653
 IR Inten    --      0.7090                11.5309                21.9785

                     28                     29                     30
                      A                      A                      A
 Frequencies --   1088.8374              1136.0518              1175.7599
 Red. masses --      1.6752                 1.7717                 2.1037
 Frc consts  --      1.1702                 1.3472                 1.7134
 IR Inten    --     14.1694                71.7468                10.4254

                     31                     32                     33
                      A                      A                      A
 Frequencies --   1219.9204              1249.4998              1274.1483
 Red. masses --      1.6722                 2.0513                 2.2310
 Frc consts  --      1.4662                 1.8869                 2.1340
 IR Inten    --     27.1761                15.3277               112.5166

                     34                     35                     36
                      A                      A                      A
 Frequencies --   1302.4663              1308.9077              1390.7460
 Red. masses --      1.7634                 1.6767                 2.0767
 Frc consts  --      1.7625                 1.6925                 2.3665
 IR Inten    --     27.5797                36.8017                15.4284

                     37                     38                     39
                      A                      A                      A
 Frequencies --   1402.1897              1428.2579              1493.7692
 Red. masses --      1.3928                 2.0960                 1.2635
 Frc consts  --      1.6134                 2.5192                 1.6612
 IR Inten    --     10.8961                29.6880                 7.7576

                     40                     41                     42
                      A                      A                      A
 Frequencies --   1498.6355              1516.8374              3041.8515
 Red. masses --      1.1597                 1.1469                 1.0377
 Frc consts  --      1.5346                 1.5547                 5.6570
 IR Inten    --      0.5215                13.9423                19.5388

                     43                     44                     45
                      A                      A                      A
 Frequencies --   3110.4178              3128.9561              3135.5647
 Red. masses --      1.1009                 1.0911                 1.0674
 Frc consts  --      6.2752                 6.2940                 6.1831
 IR Inten    --     15.5593                 7.8901                19.9447

                     46                     47                     48
                      A                      A                      A
 Frequencies --   3185.0030              3194.1017              3202.6981
 Red. masses --      1.0891                 1.0927                 1.0949
 Frc consts  --      6.5094                 6.5684                 6.6169
 IR Inten    --      7.7513                10.1205                 9.3927

                     49                     50                     51
                      A                      A                      A
 Frequencies --   3235.9211              3777.1903              3793.8360
 Red. masses --      1.1079                 1.0661                 1.0662
 Frc consts  --      6.8350                 8.9615                 9.0415
 IR Inten    --     10.3168                15.8428                17.9942

 - Thermochemistry -
 -------------------
 Temperature   298.150 Kelvin.  Pressure   1.00000 Atm.
 Atom     1 has atomic number  6 and mass  12.00000

 Molecular mass:   126.06808 amu.
 Principal axes and moments of inertia in atomic units:
                           1         2         3
     Eigenvalues --   562.274721407.877601568.27648
           X            0.99990  -0.00271   0.01370
           Y            0.00318   0.99941  -0.03424
           Z           -0.01360   0.03428   0.99932
 This molecule is an asymmetric top.
 Rotational symmetry number  1.
 Warning -- assumption of classical behavior for rotation
           may cause significant error
 Rotational temperatures (Kelvin)      0.15404     0.06152     0.05523
 Rotational constants (GHZ):           3.20971     1.28189     1.15078
 Zero-point vibrational energy     411052.6 (Joules/Mol)
                                   98.24392 (Kcal/Mol)
 Warning -- explicit consideration of  12 degrees of freedom as
           vibrations may cause significant error
 Vibrational temperatures:     97.57   247.21   340.93   343.90   387.30
          (Kelvin)            436.14   471.20   573.11   603.77   642.01
                              708.92   816.65   897.73   981.93  1048.18
                             1125.74  1229.93  1267.73  1282.36  1356.19
                             1368.45  1389.47  1423.50  1464.43  1477.33
                             1537.14  1560.57  1566.59  1634.52  1691.65
                             1755.19  1797.75  1833.21  1873.96  1883.22
                             2000.97  2017.44  2054.94  2149.20  2156.20
                             2182.39  4376.54  4475.19  4501.86  4511.37
                             4582.50  4595.59  4607.96  4655.76  5434.53
                             5458.48

 Zero-point correction=                           0.156562 (Hartree/Particle)
 Thermal correction to Energy=                    0.165435
 Thermal correction to Enthalpy=                  0.166379
 Thermal correction to Gibbs Free Energy=         0.123494
 Sum of electronic and zero-point Energies=           -422.932541
 Sum of electronic and thermal Energies=              -422.923668
 Sum of electronic and thermal Enthalpies=            -422.922724
 Sum of electronic and thermal Free Energies=         -422.965610

                     E (Thermal)             CV                S
                      KCal/Mol        Cal/Mol-Kelvin    Cal/Mol-Kelvin
 Total                  103.812             35.039             90.261
 Electronic               0.000              0.000              0.000
 Translational            0.889              2.981             40.409
 Rotational               0.889              2.981             28.609
 Vibrational            102.035             29.077             21.244
 Vibration     1          0.598              1.970              4.216
 Vibration     2          0.626              1.877              2.415
 Vibration     3          0.656              1.784              1.826
 Vibration     4          0.657              1.781              1.810
 Vibration     5          0.674              1.730              1.601
 Vibration     6          0.695              1.668              1.400
 Vibration     7          0.711              1.621              1.272
 Vibration     8          0.765              1.474              0.969
 Vibration     9          0.782              1.428              0.893
 Vibration    10          0.805              1.369              0.807
 Vibration    11          0.848              1.266              0.677
 Vibration    12          0.924              1.101              0.509

 Optimization completed.
    -- Stationary point found.
 Normal termination of Gaussian 09 at Mon Jan 27 16:47:41 2020.
