 Gaussian 09, Revision D.01,
 Gaussian 09:  ES64L-G09RevD.01 24-Apr-2013

 -----------------------------
 # b3lyp 6-31G(2df,p) opt Freq
 -----------------------------

 -----
 titel
 -----
 Symbolic Z-matrix:
 Charge =  0 Multiplicity = 1

 SCF Done:  E(RB3LYP) =  -423.177233977     A.U. after   15 cycles
 SCF Done:  E(RB3LYP) =  -423.177233584     A.U. after    8 cycles
 SCF Done:  E(RB3LYP) =  -423.177234032     A.U. after    8 cycles
 SCF Done:  E(RB3LYP) =  -423.177233909     A.U. after    8 cycles
 SCF Done:  E(RB3LYP) =  -423.177233825     A.U. after    8 cycles
 SCF Done:  E(RB3LYP) =  -423.177233660     A.U. after    8 cycles
 SCF Done:  E(RB3LYP) =  -423.177233729     A.U. after    9 cycles
 SCF Done:  E(RB3LYP) =  -423.177233427     A.U. after    8 cycles
 SCF Done:  E(RB3LYP) =  -423.177233801     A.U. after   11 cycles
 SCF Done:  E(RB3LYP) =  -423.176381802     A.U. after   12 cycles
 SCF Done:  E(RB3LYP) =  -423.172567402     A.U. after   13 cycles
 SCF Done:  E(RB3LYP) =  -423.177236906     A.U. after    9 cycles
 SCF Done:  E(RB3LYP) =  -423.177018633     A.U. after   12 cycles
 SCF Done:  E(RB3LYP) =  -423.177230207     A.U. after   12 cycles
 SCF Done:  E(RB3LYP) =  -423.177240843     A.U. after   11 cycles
 SCF Done:  E(RB3LYP) =  -423.177236459     A.U. after   10 cycles
 SCF Done:  E(RB3LYP) =  -423.177238344     A.U. after    9 cycles
 SCF Done:  E(RB3LYP) =  -423.177240412     A.U. after    9 cycles
 SCF Done:  E(RB3LYP) =  -423.177240737     A.U. after    8 cycles
 Optimization completed.
    -- Stationary point found.
 Normal termination of Gaussian 09 at Wed Jan 29 13:10:16 2020.

 ----------------------------------------------------------------------
 #N Geom=AllCheck Guess=TCheck SCRF=Check GenChk RB3LYP/6-31G(2df,p) Fr
 eq
 ----------------------------------------------------------------------

 Structure from the checkpoint file:  "/scratch/puck/g09_31420f42-8e02-40bb-874a-8446ee66c854/Gau-88178.chk"
 -----
 titel
 -----
 Charge =  0 Multiplicity = 1

                         Standard orientation:
 ---------------------------------------------------------------------
 Center     Atomic      Atomic             Coordinates (Angstroms)
 Number     Number       Type             X           Y           Z
 ---------------------------------------------------------------------
      1          6           0        3.468830    0.461585    0.912590
      2          6           0        2.982212   -0.072467   -0.446937
      3          6           0        1.540297   -0.290104   -0.497123
      4          6           0        0.350192   -0.478535   -0.517716
      5          6           0       -1.098409   -0.716615   -0.534215
      6          8           0       -1.466406   -1.900405    0.121875
      7          6           0       -1.824270    0.487920    0.120513
      8          6           0       -1.693017    1.838419   -0.533450
      9          8           0       -2.474425    0.287236    1.120807
     10          1           0        2.998563    1.420837    1.145517
     11          1           0        3.221820   -0.238508    1.714911
     12          1           0        4.553398    0.603572    0.899141
     13          1           0        3.270152    0.626427   -1.242778
     14          1           0        3.494322   -1.015540   -0.676638
     15          1           0       -1.435549   -0.763957   -1.583378
     16          1           0       -1.953276   -1.603195    0.909416
     17          1           0       -0.637920    2.090429   -0.669745
     18          1           0       -2.147580    1.807681   -1.530581
     19          1           0       -2.192288    2.596395    0.070718
 ---------------------------------------------------------------------

 SCF Done:  E(RB3LYP) =  -423.177240737     A.U. after    1 cycles

 The electronic state is 1-A.
 Alpha  occ. eigenvalues --  -19.15470 -19.13203 -10.28791 -10.26192 -10.21298
 Alpha  occ. eigenvalues --  -10.20101 -10.18672 -10.18295 -10.17626  -1.07063
 Alpha  occ. eigenvalues --   -1.01564  -0.80423  -0.78242  -0.73938  -0.69249
 Alpha  occ. eigenvalues --   -0.63828  -0.56761  -0.51734  -0.50386  -0.47985
 Alpha  occ. eigenvalues --   -0.47041  -0.46034  -0.44182  -0.43201  -0.41510
 Alpha  occ. eigenvalues --   -0.40104  -0.37561  -0.37208  -0.36703  -0.34526
 Alpha  occ. eigenvalues --   -0.29480  -0.27785  -0.26180  -0.24726
 Alpha virt. eigenvalues --   -0.02975   0.03751   0.05308   0.08965   0.10941
 Alpha virt. eigenvalues --    0.13260   0.14335   0.14519   0.15198   0.15606
 Alpha virt. eigenvalues --    0.16505   0.16981   0.19713   0.20581   0.20958

 Mulliken charges:
               1
     1  C   -0.365515
     2  C   -0.316163
     3  C    0.034129
     4  C    0.090444
     5  C   -0.121645
     6  O   -0.414299
     7  C    0.373927
     8  C   -0.481174
     9  O   -0.310468
    10  H    0.125934
    11  H    0.134351
    12  H    0.116962
    13  H    0.130205
    14  H    0.136905
    15  H    0.113105
    16  H    0.293371
    17  H    0.161466
    18  H    0.149331
    19  H    0.149134
 Sum of Mulliken charges =   0.00000

 Dipole moment (field-independent basis, Debye):
    X=              1.6436    Y=              2.4036    Z=             -1.4484  Tot=              3.2522
 Quadrupole moment (field-independent basis, Debye-Ang):
   XX=            -49.3397   YY=            -55.4003   ZZ=            -53.1844
   XY=             -2.0879   XZ=              3.7056   YZ=             -2.0780

  Exact polarizability: 107.575   2.188  70.635  -3.027  -1.780  66.313
 Approx polarizability: 151.425   7.996  98.791 -10.419  -3.574 102.145

                      1                      2                      3
                      A                      A                      A
 Frequencies --     25.1917                28.9956                72.2105
 Red. masses --      2.2786                 2.1138                 2.8676
 Frc consts  --      0.0009                 0.0010                 0.0088
 IR Inten    --      0.7926                 0.2711                 0.3940

                      4                      5                      6
                      A                      A                      A
 Frequencies --     91.5490               115.3850               200.4235
 Red. masses --      1.7249                 3.2033                 1.8706
 Frc consts  --      0.0085                 0.0251                 0.0443
 IR Inten    --      0.5462                 1.4555                 1.9970

                      7                      8                      9
                      A                      A                      A
 Frequencies --    237.0669               281.2436               343.5590
 Red. masses --      2.1106                 3.1335                 3.3709
 Frc consts  --      0.0699                 0.1460                 0.2344
 IR Inten    --      0.3820                13.7852                 1.3382

                     10                     11                     12
                      A                      A                      A
 Frequencies --    356.4834               406.5321               422.1205
 Red. masses --      4.2079                 3.1812                 1.4927
 Frc consts  --      0.3151                 0.3098                 0.1567
 IR Inten    --      2.7219                20.8176                44.2782

                     13                     14                     15
                      A                      A                      A
 Frequencies --    495.1092               556.1693               573.3014
 Red. masses --      2.6612                 4.5273                 3.9640
 Frc consts  --      0.3843                 0.8251                 0.7676
 IR Inten    --     12.6760                 6.4032                10.8378

                     16                     17                     18
                      A                      A                      A
 Frequencies --    636.7277               770.8558               785.1369
 Red. masses --      4.1545                 3.0100                 1.1836
 Frc consts  --      0.9924                 1.0538                 0.4299
 IR Inten    --     11.6754                 5.3993                 2.2301

                     19                     20                     21
                      A                      A                      A
 Frequencies --    815.7446               962.5199               969.2697
 Red. masses --      2.9075                 2.2775                 2.3545
 Frc consts  --      1.1399                 1.2431                 1.3033
 IR Inten    --      9.8065                 3.7088                13.8237

                     22                     23                     24
                      A                      A                      A
 Frequencies --   1038.9394              1078.1067              1102.5142
 Red. masses --      1.8534                 2.1036                 2.2128
 Frc consts  --      1.1787                 1.4406                 1.5848
 IR Inten    --      5.9765                 6.9924                37.1376

                     25                     26                     27
                      A                      A                      A
 Frequencies --   1105.0257              1162.6682              1197.4162
 Red. masses --      2.0322                 2.8923                 1.8663
 Frc consts  --      1.4620                 2.3036                 1.5766
 IR Inten    --     39.4541                50.8641                29.7389

                     28                     29                     30
                      A                      A                      A
 Frequencies --   1251.7132              1286.4283              1334.1543
 Red. masses --      1.7129                 1.1488                 1.3092
 Frc consts  --      1.5812                 1.1201                 1.3730
 IR Inten    --     58.7502                 0.0216                22.3577

                     31                     32                     33
                      A                      A                      A
 Frequencies --   1350.5889              1384.7791              1410.7027
 Red. masses --      1.5108                 1.3290                 1.2114
 Frc consts  --      1.6236                 1.5016                 1.4204
 IR Inten    --     28.4380                38.7720                 1.3115

                     34                     35                     36
                      A                      A                      A
 Frequencies --   1432.0020              1464.2654              1470.6852
 Red. masses --      1.2420                 1.0561                 1.0487
 Frc consts  --      1.5005                 1.3341                 1.3364
 IR Inten    --    105.4102                 7.9300                 7.9987

                     37                     38                     39
                      A                      A                      A
 Frequencies --   1472.6540              1495.3105              1505.1471
 Red. masses --      1.0733                 1.0395                 1.0562
 Frc consts  --      1.3714                 1.3694                 1.4098
 IR Inten    --      2.4684                 4.7540                 1.3203

                     40                     41                     42
                      A                      A                      A
 Frequencies --   1811.0305              2356.6914              2964.9606
 Red. masses --     10.5878                11.8788                 1.0800
 Frc consts  --     20.4601                38.8712                 5.5937
 IR Inten    --    151.0588                13.5699                27.6103

                     43                     44                     45
                      A                      A                      A
 Frequencies --   3022.3967              3045.0068              3046.0569
 Red. masses --      1.0591                 1.0387                 1.0348
 Frc consts  --      5.7000                 5.6743                 5.6570
 IR Inten    --     22.7400                 1.8618                26.7454

                     46                     47                     48
                      A                      A                      A
 Frequencies --   3050.3287              3113.4147              3119.5357
 Red. masses --      1.1003                 1.0941                 1.1023
 Frc consts  --      6.0320                 6.2487                 6.3199
 IR Inten    --      7.7246                 4.0069                29.6151

                     49                     50                     51
                      A                      A                      A
 Frequencies --   3126.0108              3159.6683              3658.1914
 Red. masses --      1.1029                 1.1037                 1.0643
 Frc consts  --      6.3497                 6.4922                 8.3916
 IR Inten    --     22.2780                 6.9444                89.2714

 - Thermochemistry -
 -------------------
 Temperature   298.150 Kelvin.  Pressure   1.00000 Atm.
 Atom     1 has atomic number  6 and mass  12.00000

 Molecular mass:   126.06808 amu.
 Principal axes and moments of inertia in atomic units:
                           1         2         3
     Eigenvalues --   697.633392285.452392562.36087
           X            0.99979  -0.00262   0.02023
           Y            0.00330   0.99943  -0.03371
           Z           -0.02013   0.03377   0.99923
 This molecule is an asymmetric top.
 Rotational symmetry number  1.
 Warning -- assumption of classical behavior for rotation
           may cause significant error
 Rotational temperatures (Kelvin)      0.12415     0.03790     0.03380
 Rotational constants (GHZ):           2.58695     0.78966     0.70433
 Zero-point vibrational energy     407699.2 (Joules/Mol)
                                   97.44245 (Kcal/Mol)
 Warning -- explicit consideration of  15 degrees of freedom as
           vibrations may cause significant error
 Vibrational temperatures:     36.25    41.72   103.89   131.72   166.01
          (Kelvin)            288.36   341.09   404.65   494.30   512.90
                              584.91   607.34   712.35   800.20   824.85
                              916.11  1109.09  1129.64  1173.67  1384.85
                             1394.56  1494.80  1551.15  1586.27  1589.88
                             1672.82  1722.81  1800.93  1850.88  1919.55
                             1943.19  1992.39  2029.68  2060.33  2106.75
                             2115.99  2118.82  2151.42  2165.57  2605.67
                             3390.75  4265.91  4348.55  4381.08  4382.59
                             4388.74  4479.50  4488.31  4497.63  4546.05
                             5263.31

 Zero-point correction=                           0.155284 (Hartree/Particle)
 Thermal correction to Energy=                    0.166250
 Thermal correction to Enthalpy=                  0.167194
 Thermal correction to Gibbs Free Energy=         0.116665
 Sum of electronic and zero-point Energies=           -423.021956
 Sum of electronic and thermal Energies=              -423.010991
 Sum of electronic and thermal Enthalpies=            -423.010047
 Sum of electronic and thermal Free Energies=         -423.060575

                     E (Thermal)             CV                S
                      KCal/Mol        Cal/Mol-Kelvin    Cal/Mol-Kelvin
 Total                  104.323             37.362            106.346
 Electronic               0.000              0.000              0.000
 Translational            0.889              2.981             40.409
 Rotational               0.889              2.981             29.792
 Vibrational            102.546             31.401             36.145
 Vibration     1          0.593              1.985              6.176
 Vibration     2          0.593              1.984              5.897
 Vibration     3          0.598              1.967              4.092
 Vibration     4          0.602              1.955              3.627
 Vibration     5          0.608              1.937              3.176
 Vibration     6          0.638              1.839              2.129
 Vibration     7          0.656              1.784              1.825
 Vibration     8          0.681              1.708              1.526
 Vibration     9          0.722              1.588              1.196
 Vibration    10          0.732              1.562              1.137
 Vibration    11          0.771              1.456              0.939
 Vibration    12          0.784              1.422              0.885
 Vibration    13          0.851              1.261              0.670
 Vibration    14          0.912              1.126              0.532
 Vibration    15          0.930              1.089              0.498

 Normal termination of Gaussian 09 at Wed Jan 29 13:44:14 2020.
