 Gaussian 09, Revision D.01,
 Gaussian 09:  ES64L-G09RevD.01 24-Apr-2013

 -----------------------------
 # b3lyp 6-31G(2df,p) opt Freq
 -----------------------------

 -----
 titel
 -----
 Symbolic Z-matrix:
 Charge =  0 Multiplicity = 1

 SCF Done:  E(RB3LYP) =  -423.138548277     A.U. after   14 cycles
 Optimization completed.
    -- Stationary point found.
 Normal termination of Gaussian 09 at Mon Jan 27 14:00:37 2020.

 ----------------------------------------------------------------------
 #N Geom=AllCheck Guess=TCheck SCRF=Check GenChk RB3LYP/6-31G(2df,p) Fr
 eq
 ----------------------------------------------------------------------

 Structure from the checkpoint file:  "/scratch/puck/g09_bd7d3cda-7862-43a1-833d-51267105326e/Gau-158429.chk"
 -----
 titel
 -----
 Charge =  0 Multiplicity = 1

                         Standard orientation:
 ---------------------------------------------------------------------
 Center     Atomic      Atomic             Coordinates (Angstroms)
 Number     Number       Type             X           Y           Z
 ---------------------------------------------------------------------
      1          6           0        3.757269   -0.097040   -0.414446
      2          6           0        2.332977   -0.012393   -0.126882
      3          6           0        1.156017    0.048627    0.124338
      4          6           0       -0.272064    0.132533    0.394036
      5          6           0       -0.639151    1.371526    1.204101
      6          8           0       -0.779342   -1.079669    1.037404
      7          6           0       -1.761415   -1.294904    0.005675
      8          6           0       -1.203913   -0.152054   -0.847069
      9          8           0       -2.170178    0.804435   -1.189454
     10          1           0        4.327961    0.632508    0.170549
     11          1           0        4.146903   -1.092644   -0.175257
     12          1           0        3.962481    0.092098   -1.474006
     13          1           0       -0.163938    1.315291    2.186850
     14          1           0       -0.289802    2.279559    0.703088
     15          1           0       -1.721834    1.435261    1.328714
     16          1           0       -1.702343   -2.302759   -0.418790
     17          1           0       -2.784313   -1.102004    0.352688
     18          1           0       -0.629054   -0.484303   -1.717907
     19          1           0       -1.768221    1.451089   -1.778051
 ---------------------------------------------------------------------

 SCF Done:  E(RB3LYP) =  -423.138548277     A.U. after    1 cycles

 The electronic state is 1-A.
 Alpha  occ. eigenvalues --  -19.15210 -19.12871 -10.25059 -10.23990 -10.22403
 Alpha  occ. eigenvalues --  -10.20585 -10.17815 -10.17361 -10.16597  -1.04699
 Alpha  occ. eigenvalues --   -1.02017  -0.78730  -0.75878  -0.72371  -0.69386
 Alpha  occ. eigenvalues --   -0.64351  -0.56987  -0.52857  -0.51231  -0.46773
 Alpha  occ. eigenvalues --   -0.45829  -0.44136  -0.42854  -0.42779  -0.41035
 Alpha  occ. eigenvalues --   -0.39518  -0.38302  -0.37353  -0.34277  -0.31189
 Alpha  occ. eigenvalues --   -0.28327  -0.26203  -0.24909  -0.23856
 Alpha virt. eigenvalues --    0.03214   0.05473   0.06827   0.10868   0.11464
 Alpha virt. eigenvalues --    0.12755   0.13724   0.14778   0.16326   0.17246
 Alpha virt. eigenvalues --    0.17608   0.18532   0.19433   0.19786   0.21567

 Mulliken charges:
               1
     1  C   -0.500723
     2  C    0.071985
     3  C    0.055706
     4  C    0.171548
     5  C   -0.424959
     6  O   -0.310543
     7  C   -0.088469
     8  C    0.022862
     9  O   -0.414612
    10  H    0.149936
    11  H    0.154293
    12  H    0.147217
    13  H    0.131405
    14  H    0.112972
    15  H    0.129791
    16  H    0.106499
    17  H    0.108499
    18  H    0.085620
    19  H    0.290971
 Sum of Mulliken charges =   0.00000

 Dipole moment (field-independent basis, Debye):
    X=              1.3385    Y=              1.1162    Z=             -2.0926  Tot=              2.7234
 Quadrupole moment (field-independent basis, Debye-Ang):
   XX=            -48.6139   YY=            -51.5416   ZZ=            -52.1027
   XY=              0.4499   XZ=             -0.6502   YZ=              0.5660

  Exact polarizability: 111.032   1.483  68.585  -4.715   1.878  64.475
 Approx polarizability: 154.607   0.716  96.417  -9.287  -1.114  94.361

                      1                      2                      3
                      A                      A                      A
 Frequencies --     23.2282                45.4402                90.0452
 Red. masses --      1.0213                 2.8843                 3.7018
 Frc consts  --      0.0003                 0.0035                 0.0177
 IR Inten    --      0.0371                 0.1240                 0.7234

                      4                      5                      6
                      A                      A                      A
 Frequencies --    116.4538               204.9398               243.4362
 Red. masses --      3.5105                 1.1966                 2.3559
 Frc consts  --      0.0280                 0.0296                 0.0823
 IR Inten    --      2.5871                 0.4531                 1.1946

                      7                      8                      9
                      A                      A                      A
 Frequencies --    273.3750               297.5376               310.2173
 Red. masses --      3.2640                 2.1728                 1.5328
 Frc consts  --      0.1437                 0.1133                 0.0869
 IR Inten    --     10.3312                23.7011                87.5083

                     10                     11                     12
                      A                      A                      A
 Frequencies --    353.7773               385.7378               476.5885
 Red. masses --      3.6842                 3.4418                 3.5927
 Frc consts  --      0.2717                 0.3017                 0.4808
 IR Inten    --      8.2583                 6.1092                 8.5146

                     13                     14                     15
                      A                      A                      A
 Frequencies --    507.6015               536.5906               618.4539
 Red. masses --      6.0702                 4.9809                 5.0222
 Frc consts  --      0.9215                 0.8450                 1.1318
 IR Inten    --      1.4370                 4.7580                 4.3921

                     16                     17                     18
                      A                      A                      A
 Frequencies --    776.8951               860.3875               875.6710
 Red. masses --      2.8650                 2.7282                 2.6684
 Frc consts  --      1.0188                 1.1899                 1.2055
 IR Inten    --      0.8393                11.5323                31.3440

                     19                     20                     21
                      A                      A                      A
 Frequencies --    937.3716              1011.4590              1027.1818
 Red. masses --      1.9932                 3.3967                 3.0629
 Frc consts  --      1.0319                 2.0474                 1.9040
 IR Inten    --     13.4124                55.8045                59.0934

                     22                     23                     24
                      A                      A                      A
 Frequencies --   1051.0524              1053.3536              1057.8071
 Red. masses --      1.4121                 1.4254                 2.2222
 Frc consts  --      0.9191                 0.9319                 1.4650
 IR Inten    --      3.5350                 4.8248                45.7395

                     25                     26                     27
                      A                      A                      A
 Frequencies --   1103.3574              1142.8890              1170.7059
 Red. masses --      2.4131                 1.8910                 1.5452
 Frc consts  --      1.7308                 1.4553                 1.2478
 IR Inten    --     32.4896                39.3555                24.9055

                     28                     29                     30
                      A                      A                      A
 Frequencies --   1180.6459              1240.1757              1254.0738
 Red. masses --      3.8099                 1.5479                 1.8137
 Frc consts  --      3.1290                 1.4027                 1.6806
 IR Inten    --     18.8932                16.9874                89.9560

                     31                     32                     33
                      A                      A                      A
 Frequencies --   1317.3151              1335.8415              1399.5676
 Red. masses --      1.7131                 1.3880                 1.2605
 Frc consts  --      1.7515                 1.4593                 1.4547
 IR Inten    --     14.9955                 2.4630                 4.7892

                     34                     35                     36
                      A                      A                      A
 Frequencies --   1413.7265              1445.0366              1476.5533
 Red. masses --      1.2459                 1.4671                 1.0396
 Frc consts  --      1.4672                 1.8049                 1.3354
 IR Inten    --      7.0169                 7.8208                 5.4634

                     37                     38                     39
                      A                      A                      A
 Frequencies --   1477.8776              1478.8295              1484.6859
 Red. masses --      1.0500                 1.0472                 1.0599
 Frc consts  --      1.3511                 1.3493                 1.3765
 IR Inten    --     12.5148                 0.8440                 0.5359

                     40                     41                     42
                      A                      A                      A
 Frequencies --   1518.0188              2362.2835              3021.6360
 Red. masses --      1.1108                11.8933                 1.0567
 Frc consts  --      1.5082                39.1037                 5.6847
 IR Inten    --      1.8061                12.2688                70.2270

                     43                     44                     45
                      A                      A                      A
 Frequencies --   3027.4573              3044.8278              3047.4310
 Red. masses --      1.0348                 1.0837                 1.0395
 Frc consts  --      5.5880                 5.9197                 5.6880
 IR Inten    --     27.5998                21.9858                 7.1655

                     46                     47                     48
                      A                      A                      A
 Frequencies --   3075.5304              3087.7106              3090.2271
 Red. masses --      1.1074                 1.1002                 1.1001
 Frc consts  --      6.1716                 6.1799                 6.1898
 IR Inten    --     48.9573                10.1494                 8.8285

                     49                     50                     51
                      A                      A                      A
 Frequencies --   3119.8952              3140.0331              3821.4048
 Red. masses --      1.1005                 1.1029                 1.0662
 Frc consts  --      6.3115                 6.4068                 9.1737
 IR Inten    --     15.7950                14.6701                26.9167

 - Thermochemistry -
 -------------------
 Temperature   298.150 Kelvin.  Pressure   1.00000 Atm.
 Atom     1 has atomic number  6 and mass  12.00000

 Molecular mass:   126.06808 amu.
 Principal axes and moments of inertia in atomic units:
                           1         2         3
     Eigenvalues --   634.874161958.368262001.89012
           X            0.99992   0.00641  -0.01059
           Y           -0.00019   0.86331   0.50468
           Z            0.01238  -0.50464   0.86324
 This molecule is an asymmetric top.
 Rotational symmetry number  1.
 Warning -- assumption of classical behavior for rotation
           may cause significant error
 Rotational temperatures (Kelvin)      0.13643     0.04423     0.04327
 Rotational constants (GHZ):           2.84268     0.92155     0.90152
 Zero-point vibrational energy     409196.7 (Joules/Mol)
                                   97.80035 (Kcal/Mol)
 Warning -- explicit consideration of  15 degrees of freedom as
           vibrations may cause significant error
 Vibrational temperatures:     33.42    65.38   129.55   167.55   294.86
          (Kelvin)            350.25   393.33   428.09   446.33   509.01
                              554.99   685.70   730.32   772.03   889.82
                             1117.78  1237.90  1259.89  1348.67  1455.26
                             1477.88  1512.23  1515.54  1521.95  1587.48
                             1644.36  1684.38  1698.68  1784.33  1804.33
                             1895.32  1921.98  2013.66  2034.03  2079.08
                             2124.43  2126.33  2127.70  2136.13  2184.09
                             3398.79  4347.45  4355.83  4380.82  4384.57
                             4425.00  4442.52  4446.14  4488.83  4517.80
                             5498.14

 Zero-point correction=                           0.155855 (Hartree/Particle)
 Thermal correction to Energy=                    0.166294
 Thermal correction to Enthalpy=                  0.167239
 Thermal correction to Gibbs Free Energy=         0.118720
 Sum of electronic and zero-point Energies=           -422.982694
 Sum of electronic and thermal Energies=              -422.972254
 Sum of electronic and thermal Enthalpies=            -422.971310
 Sum of electronic and thermal Free Energies=         -423.019828

                     E (Thermal)             CV                S
                      KCal/Mol        Cal/Mol-Kelvin    Cal/Mol-Kelvin
 Total                  104.351             36.437            102.116
 Electronic               0.000              0.000              0.000
 Translational            0.889              2.981             40.409
 Rotational               0.889              2.981             29.300
 Vibrational            102.574             30.475             32.408
 Vibration     1          0.593              1.985              6.337
 Vibration     2          0.595              1.979              5.007
 Vibration     3          0.602              1.956              3.659
 Vibration     4          0.608              1.936              3.158
 Vibration     5          0.640              1.833              2.088
 Vibration     6          0.659              1.774              1.778
 Vibration     7          0.676              1.722              1.575
 Vibration     8          0.691              1.678              1.431
 Vibration     9          0.699              1.654              1.361
 Vibration    10          0.730              1.568              1.149
 Vibration    11          0.754              1.501              1.017
 Vibration    12          0.833              1.302              0.719
 Vibration    13          0.863              1.233              0.639
 Vibration    14          0.892              1.169              0.573
 Vibration    15          0.978              0.993              0.419

 Optimization completed on the basis of negligible forces.
    -- Stationary point found.
 Normal termination of Gaussian 09 at Mon Jan 27 14:37:29 2020.
