 Gaussian 09, Revision D.01,
 Gaussian 09:  ES64L-G09RevD.01 24-Apr-2013

 -----------------------------
 # b3lyp 6-31G(2df,p) opt Freq
 -----------------------------

 -----
 titel
 -----
 Symbolic Z-matrix:
 Charge =  0 Multiplicity = 1

 SCF Done:  E(RB3LYP) =  -423.160166170     A.U. after   14 cycles
 Optimization completed.
    -- Stationary point found.
 Normal termination of Gaussian 09 at Tue Jan 28 02:19:32 2020.

 ----------------------------------------------------------------------
 #N Geom=AllCheck Guess=TCheck SCRF=Check GenChk RB3LYP/6-31G(2df,p) Fr
 eq
 ----------------------------------------------------------------------

 Structure from the checkpoint file:  "/scratch/puck/g09_ca7a92cc-f23b-4230-bc5c-96794eac7fbe/Gau-86100.chk"
 -----
 titel
 -----
 Charge =  0 Multiplicity = 1

                         Standard orientation:
 ---------------------------------------------------------------------
 Center     Atomic      Atomic             Coordinates (Angstroms)
 Number     Number       Type             X           Y           Z
 ---------------------------------------------------------------------
      1          6           0        3.001845    1.389418   -0.266468
      2          6           0        2.075360    0.439269    0.458332
      3          6           0        2.252656   -1.051353    0.352642
      4          6           0        1.068312   -0.382881   -0.314628
      5          6           0       -0.298038   -0.586021    0.238138
      6          8           0       -1.169589   -1.485022   -0.435744
      7          6           0       -1.504469   -0.090509   -0.470202
      8          6           0       -2.703717    0.294125    0.327699
      9          8           0       -3.375927    1.269164    0.109357
     10          1           0        2.516710    2.352767   -0.456968
     11          1           0        3.907743    1.579878    0.319056
     12          1           0        3.312168    0.975619   -1.231703
     13          1           0        1.731958    0.797707    1.426397
     14          1           0        3.037872   -1.430777   -0.292668
     15          1           0        2.064095   -1.660941    1.230317
     16          1           0        1.100626   -0.304350   -1.397468
     17          1           0       -0.351947   -0.655788    1.327581
     18          1           0       -1.385602    0.410415   -1.429337
     19          1           0       -2.921187   -0.409946    1.162811
 ---------------------------------------------------------------------

 SCF Done:  E(RB3LYP) =  -423.160166170     A.U. after    1 cycles

 The electronic state is 1-A.
 Alpha  occ. eigenvalues --  -19.17068 -19.14533 -10.27622 -10.26095 -10.24967
 Alpha  occ. eigenvalues --  -10.20674 -10.20637 -10.19666 -10.18817  -1.09224
 Alpha  occ. eigenvalues --   -1.05109  -0.87773  -0.73106  -0.71878  -0.68182
 Alpha  occ. eigenvalues --   -0.60065  -0.58935  -0.57970  -0.51821  -0.50252
 Alpha  occ. eigenvalues --   -0.46884  -0.45382  -0.43979  -0.42239  -0.41295
 Alpha  occ. eigenvalues --   -0.40059  -0.39992  -0.38151  -0.36474  -0.34120
 Alpha  occ. eigenvalues --   -0.30524  -0.28757  -0.28311  -0.25466
 Alpha virt. eigenvalues --   -0.03626   0.08190   0.09180   0.09354   0.11587
 Alpha virt. eigenvalues --    0.12082   0.13262   0.13535   0.13866   0.15783
 Alpha virt. eigenvalues --    0.16298   0.16712   0.18217   0.19206   0.22430

 Mulliken charges:
               1
     1  C   -0.409055
     2  C    0.004592
     3  C   -0.295320
     4  C   -0.031517
     5  C    0.063341
     6  O   -0.246766
     7  C   -0.065094
     8  C    0.148432
     9  O   -0.249383
    10  H    0.123898
    11  H    0.122810
    12  H    0.117879
    13  H    0.088657
    14  H    0.118667
    15  H    0.116672
    16  H    0.093305
    17  H    0.097291
    18  H    0.115338
    19  H    0.086253
 Sum of Mulliken charges =   0.00000

 Dipole moment (field-independent basis, Debye):
    X=              3.0835    Y=             -0.2365    Z=              0.5985  Tot=              3.1499
 Quadrupole moment (field-independent basis, Debye-Ang):
   XX=            -60.3107   YY=            -58.7544   ZZ=            -50.4035
   XY=              4.3178   XZ=             -1.2319   YZ=             -1.6825

  Exact polarizability: 100.306  -5.823  72.980   0.248  -4.037  65.525
 Approx polarizability: 125.925 -14.883 116.414   4.933  -4.438 100.455

                      1                      2                      3
                      A                      A                      A
 Frequencies --     52.8862                85.0083               130.6875
 Red. masses --      4.2849                 3.9096                 4.1000
 Frc consts  --      0.0071                 0.0166                 0.0413
 IR Inten    --      1.0883                 0.5422                 5.1846

                      4                      5                      6
                      A                      A                      A
 Frequencies --    163.3132               211.6735               263.2757
 Red. masses --      2.0771                 1.1725                 3.0400
 Frc consts  --      0.0326                 0.0310                 0.1241
 IR Inten    --      4.3874                 0.8956                 7.6165

                      7                      8                      9
                      A                      A                      A
 Frequencies --    288.0151               351.4024               379.4089
 Red. masses --      2.8151                 3.9092                 2.8353
 Frc consts  --      0.1376                 0.2844                 0.2405
 IR Inten    --      4.2051                 0.6756                 9.0868

                     10                     11                     12
                      A                      A                      A
 Frequencies --    409.1136               500.4278               528.3419
 Red. masses --      2.6584                 3.9796                 4.7659
 Frc consts  --      0.2622                 0.5872                 0.7838
 IR Inten    --      0.0829                 8.8310                 8.4259

                     13                     14                     15
                      A                      A                      A
 Frequencies --    795.9719               826.9957               860.1192
 Red. masses --      2.2758                 1.9841                 2.6286
 Frc consts  --      0.8495                 0.7995                 1.1458
 IR Inten    --      7.3868                 3.9023                26.6324

                     16                     17                     18
                      A                      A                      A
 Frequencies --    877.1910               905.9233               913.3791
 Red. masses --      4.1607                 1.8929                 1.7268
 Frc consts  --      1.8863                 0.9153                 0.8488
 IR Inten    --      7.3026                16.5741                25.3441

                     19                     20                     21
                      A                      A                      A
 Frequencies --    979.2129              1020.4093              1045.2070
 Red. masses --      1.7466                 1.5824                 1.6035
 Frc consts  --      0.9867                 0.9707                 1.0321
 IR Inten    --      1.1464                 4.6756                20.0134

                     22                     23                     24
                      A                      A                      A
 Frequencies --   1070.8053              1089.8655              1104.8023
 Red. masses --      1.6292                 1.8951                 1.2540
 Frc consts  --      1.1006                 1.3263                 0.9018
 IR Inten    --     14.8866                 2.4897                 3.2462

                     25                     26                     27
                      A                      A                      A
 Frequencies --   1111.6555              1137.3772              1157.2279
 Red. masses --      1.8222                 1.5460                 1.6434
 Frc consts  --      1.3267                 1.1784                 1.2967
 IR Inten    --      6.7823                 0.5151                21.6672

                     28                     29                     30
                      A                      A                      A
 Frequencies --   1199.9184              1205.4053              1228.9378
 Red. masses --      1.8067                 1.9616                 1.6654
 Frc consts  --      1.5327                 1.6793                 1.4819
 IR Inten    --      1.1236                 6.2554                 4.0791

                     31                     32                     33
                      A                      A                      A
 Frequencies --   1241.4449              1301.9793              1328.3340
 Red. masses --      1.5333                 1.2642                 1.4273
 Frc consts  --      1.3923                 1.2626                 1.4838
 IR Inten    --     20.9534                 3.3802                 6.8113

                     34                     35                     36
                      A                      A                      A
 Frequencies --   1396.6507              1415.0353              1427.8214
 Red. masses --      1.3047                 1.2412                 1.5913
 Frc consts  --      1.4994                 1.4642                 1.9114
 IR Inten    --      1.6610                 2.3495                 4.4935

                     37                     38                     39
                      A                      A                      A
 Frequencies --   1477.4089              1492.0699              1496.8614
 Red. masses --      1.5447                 1.0567                 1.1836
 Frc consts  --      1.9865                 1.3861                 1.5625
 IR Inten    --     31.8304                 1.0995                12.9819

                     40                     41                     42
                      A                      A                      A
 Frequencies --   1508.3636              1827.4943              2882.0554
 Red. masses --      1.6088                10.3627                 1.0837
 Frc consts  --      2.1566                20.3908                 5.3035
 IR Inten    --     14.4655               223.1758                82.0075

                     43                     44                     45
                      A                      A                      A
 Frequencies --   3029.2680              3079.6165              3094.3858
 Red. masses --      1.0350                 1.0866                 1.1014
 Frc consts  --      5.5961                 6.0716                 6.2134
 IR Inten    --     30.6172                15.5299                22.9773

                     46                     47                     48
                      A                      A                      A
 Frequencies --   3096.5749              3130.1354              3133.5996
 Red. masses --      1.0996                 1.0597                 1.0836
 Frc consts  --      6.2122                 6.1175                 6.2691
 IR Inten    --     13.9990                16.7124                15.0808

                     49                     50                     51
                      A                      A                      A
 Frequencies --   3140.2807              3153.8994              3216.3458
 Red. masses --      1.0891                 1.0882                 1.1162
 Frc consts  --      6.3276                 6.3778                 6.8034
 IR Inten    --      8.2188                11.1965                 8.8653

 - Thermochemistry -
 -------------------
 Temperature   298.150 Kelvin.  Pressure   1.00000 Atm.
 Atom     1 has atomic number  6 and mass  12.00000

 Molecular mass:   126.06808 amu.
 Principal axes and moments of inertia in atomic units:
                           1         2         3
     Eigenvalues --   530.489552289.565952631.47344
           X            0.99980   0.01910  -0.00606
           Y           -0.01932   0.99903  -0.03948
           Z            0.00530   0.03959   0.99920
 This molecule is an asymmetric top.
 Rotational symmetry number  1.
 Warning -- assumption of classical behavior for rotation
           may cause significant error
 Rotational temperatures (Kelvin)      0.16327     0.03783     0.03291
 Rotational constants (GHZ):           3.40203     0.78825     0.68583
 Zero-point vibrational energy     411297.6 (Joules/Mol)
                                   98.30248 (Kcal/Mol)
 Warning -- explicit consideration of  12 degrees of freedom as
           vibrations may cause significant error
 Vibrational temperatures:     76.09   122.31   188.03   234.97   304.55
          (Kelvin)            378.79   414.39   505.59   545.88   588.62
                              720.00   760.17  1145.22  1189.86  1237.52
                             1262.08  1303.42  1314.15  1408.87  1468.14
                             1503.82  1540.65  1568.07  1589.56  1599.42
                             1636.43  1664.99  1726.41  1734.31  1768.17
                             1786.16  1873.26  1911.17  2009.47  2035.92
                             2054.31  2125.66  2146.75  2153.65  2170.20
                             2629.35  4146.63  4358.44  4430.88  4452.13
                             4455.28  4503.56  4508.55  4518.16  4537.75
                             4627.60

 Zero-point correction=                           0.156655 (Hartree/Particle)
 Thermal correction to Energy=                    0.165993
 Thermal correction to Enthalpy=                  0.166937
 Thermal correction to Gibbs Free Energy=         0.121643
 Sum of electronic and zero-point Energies=           -423.003511
 Sum of electronic and thermal Energies=              -422.994173
 Sum of electronic and thermal Enthalpies=            -422.993229
 Sum of electronic and thermal Free Energies=         -423.038523

                     E (Thermal)             CV                S
                      KCal/Mol        Cal/Mol-Kelvin    Cal/Mol-Kelvin
 Total                  104.162             33.667             95.330
 Electronic               0.000              0.000              0.000
 Translational            0.889              2.981             40.409
 Rotational               0.889              2.981             29.548
 Vibrational            102.385             27.706             25.373
 Vibration     1          0.596              1.976              4.706
 Vibration     2          0.601              1.960              3.772
 Vibration     3          0.612              1.923              2.936
 Vibration     4          0.623              1.887              2.511
 Vibration     5          0.643              1.823              2.029
 Vibration     6          0.670              1.740              1.640
 Vibration     7          0.685              1.696              1.486
 Vibration     8          0.728              1.572              1.160
 Vibration     9          0.749              1.514              1.042
 Vibration    10          0.773              1.450              0.930
 Vibration    11          0.856              1.249              0.657
 Vibration    12          0.883              1.187              0.591

 Normal termination of Gaussian 09 at Tue Jan 28 02:54:42 2020.
