 Gaussian 09, Revision D.01,
 Gaussian 09:  ES64L-G09RevD.01 24-Apr-2013

 -----------------------------
 # b3lyp 6-31G(2df,p) opt Freq
 -----------------------------

 -----
 titel
 -----
 Symbolic Z-matrix:
 Charge =  0 Multiplicity = 1

 SCF Done:  E(RB3LYP) =  -423.161707325     A.U. after   14 cycles
 Optimization completed.
    -- Stationary point found.
 Normal termination of Gaussian 09 at Mon Jan 27 17:52:14 2020.

 ----------------------------------------------------------------------
 #N Geom=AllCheck Guess=TCheck SCRF=Check GenChk RB3LYP/6-31G(2df,p) Fr
 eq
 ----------------------------------------------------------------------

 Structure from the checkpoint file:  "/scratch/puck/g09_0a37ba0c-e43a-4693-994b-59e34ddcb6f4/Gau-51692.chk"
 -----
 titel
 -----
 Charge =  0 Multiplicity = 1

                         Standard orientation:
 ---------------------------------------------------------------------
 Center     Atomic      Atomic             Coordinates (Angstroms)
 Number     Number       Type             X           Y           Z
 ---------------------------------------------------------------------
      1          6           0       -1.021169    1.540328    0.893657
      2          6           0       -0.521743    0.466021   -0.079056
      3          6           0        0.304166    1.085108   -1.273494
      4          6           0        1.569637    0.427034   -0.707380
      5          6           0        1.380065   -1.073026   -0.679699
      6          6           0        0.761883   -0.234016    0.400129
      7          8           0        1.099151   -0.367401    1.733492
      8          6           0       -1.679617   -0.428812   -0.450337
      9          8           0       -1.791619   -1.581824   -0.114522
     10          1           0       -1.379552    1.090523    1.824042
     11          1           0       -0.207823    2.226448    1.146834
     12          1           0       -1.837142    2.121340    0.450060
     13          1           0        0.018940    0.760881   -2.280072
     14          1           0        0.309775    2.176703   -1.242587
     15          1           0        2.550308    0.883081   -0.665530
     16          1           0        0.779682   -1.578221   -1.431823
     17          1           0        2.250480   -1.628584   -0.345312
     18          1           0        0.764878   -1.219690    2.036210
     19          1           0       -2.469121    0.065502   -1.066511
 ---------------------------------------------------------------------

 SCF Done:  E(RB3LYP) =  -423.161707325     A.U. after    1 cycles

 The electronic state is 1-A.
 Alpha  occ. eigenvalues --  -19.15011 -19.14070 -10.26795 -10.24114 -10.20493
 Alpha  occ. eigenvalues --  -10.19688 -10.19528 -10.18754 -10.18640  -1.04729
 Alpha  occ. eigenvalues --   -1.03621  -0.89545  -0.78201  -0.69567  -0.65279
 Alpha  occ. eigenvalues --   -0.61951  -0.57626  -0.54840  -0.50727  -0.47559
 Alpha  occ. eigenvalues --   -0.47057  -0.44828  -0.43195  -0.41810  -0.40835
 Alpha  occ. eigenvalues --   -0.38738  -0.38543  -0.36915  -0.35262  -0.33469
 Alpha  occ. eigenvalues --   -0.31585  -0.27239  -0.26087  -0.23933
 Alpha virt. eigenvalues --   -0.02265   0.07987   0.09652   0.10701   0.11643
 Alpha virt. eigenvalues --    0.12565   0.13310   0.14934   0.15681   0.16461
 Alpha virt. eigenvalues --    0.16944   0.17741   0.19086   0.20689   0.22629

 Mulliken charges:
               1
     1  C   -0.448967
     2  C    0.141963
     3  C   -0.295208
     4  C   -0.103157
     5  C   -0.346483
     6  C    0.384447
     7  O   -0.462227
     8  C    0.105922
     9  O   -0.260798
    10  H    0.131582
    11  H    0.133277
    12  H    0.116699
    13  H    0.101781
    14  H    0.109018
    15  H    0.097334
    16  H    0.112904
    17  H    0.116061
    18  H    0.294034
    19  H    0.071819
 Sum of Mulliken charges =   0.00000

 Dipole moment (field-independent basis, Debye):
    X=              0.3284    Y=              1.3739    Z=             -0.6190  Tot=              1.5422
 Quadrupole moment (field-independent basis, Debye-Ang):
   XX=            -54.7643   YY=            -53.8908   ZZ=            -52.7016
   XY=             -5.0196   XZ=             -0.8456   YZ=             -2.5534

  Exact polarizability:  77.041  -1.892  78.102  -0.491  -2.620  70.644
 Approx polarizability: 105.853   2.797 122.315  -0.504  -7.729 106.749

                      1                      2                      3
                      A                      A                      A
 Frequencies --     76.9585               141.7377               156.3209
 Red. masses --      4.8601                 3.9379                 3.3805
 Frc consts  --      0.0170                 0.0466                 0.0487
 IR Inten    --      5.2122                 3.0944                 5.0603

                      4                      5                      6
                      A                      A                      A
 Frequencies --    222.9603               241.0549               306.8571
 Red. masses --      1.2388                 2.2199                 1.8846
 Frc consts  --      0.0363                 0.0760                 0.1046
 IR Inten    --      0.6492                 0.4273                14.8567

                      7                      8                      9
                      A                      A                      A
 Frequencies --    317.3459               355.9421               400.1059
 Red. masses --      1.3323                 2.1857                 2.9510
 Frc consts  --      0.0791                 0.1632                 0.2783
 IR Inten    --     66.4772                18.3225                 2.6844

                     10                     11                     12
                      A                      A                      A
 Frequencies --    427.1296               483.6554               519.1803
 Red. masses --      2.0559                 3.4213                 4.2326
 Frc consts  --      0.2210                 0.4715                 0.6722
 IR Inten    --      2.8795                13.2504                 4.6310

                     13                     14                     15
                      A                      A                      A
 Frequencies --    645.5627               718.1790               807.7535
 Red. masses --      3.6048                 3.6213                 2.5420
 Frc consts  --      0.8851                 1.1005                 0.9772
 IR Inten    --      8.2510                13.1106                 6.9739

                     16                     17                     18
                      A                      A                      A
 Frequencies --    854.8402               887.1977               903.6509
 Red. masses --      1.9401                 2.0489                 2.1208
 Frc consts  --      0.8353                 0.9502                 1.0203
 IR Inten    --      5.2542                 8.5615                 7.8721

                     19                     20                     21
                      A                      A                      A
 Frequencies --    932.8782               949.1500               984.8923
 Red. masses --      2.1044                 1.6638                 1.3611
 Frc consts  --      1.0790                 0.8831                 0.7779
 IR Inten    --     14.9618                 9.7222                 1.9066

                     22                     23                     24
                      A                      A                      A
 Frequencies --   1006.6137              1021.3154              1027.2284
 Red. masses --      1.7963                 1.3104                 1.5521
 Frc consts  --      1.0724                 0.8054                 0.9649
 IR Inten    --      9.4954                 2.6334                 1.9614

                     25                     26                     27
                      A                      A                      A
 Frequencies --   1079.7119              1145.5362              1146.8375
 Red. masses --      1.5871                 2.0152                 1.8288
 Frc consts  --      1.0901                 1.5581                 1.4172
 IR Inten    --      6.8139                 2.1313                 6.4290

                     28                     29                     30
                      A                      A                      A
 Frequencies --   1182.2985              1229.1579              1233.6578
 Red. masses --      3.1364                 1.9924                 1.7200
 Frc consts  --      2.5831                 1.7736                 1.5423
 IR Inten    --      1.8688                60.0631                 2.9351

                     31                     32                     33
                      A                      A                      A
 Frequencies --   1254.9459              1308.0832              1318.6932
 Red. masses --      1.9221                 1.7162                 2.7283
 Frc consts  --      1.7835                 1.7302                 2.7953
 IR Inten    --      2.7701                87.4075                 6.5359

                     34                     35                     36
                      A                      A                      A
 Frequencies --   1400.6642              1404.3656              1420.6433
 Red. masses --      1.5520                 1.5009                 1.2524
 Frc consts  --      1.7940                 1.7441                 1.4893
 IR Inten    --     10.0401                13.5747                 4.6401

                     37                     38                     39
                      A                      A                      A
 Frequencies --   1481.8460              1486.4892              1497.5674
 Red. masses --      1.1450                 1.0568                 1.0618
 Frc consts  --      1.4813                 1.3759                 1.4030
 IR Inten    --      2.2515                 5.0990                 5.9816

                     40                     41                     42
                      A                      A                      A
 Frequencies --   1507.4858              1818.0671              2840.3707
 Red. masses --      1.3749                10.9179                 1.0816
 Frc consts  --      1.8408                21.2623                 5.1414
 IR Inten    --     18.1150               145.9541               128.1000

                     43                     44                     45
                      A                      A                      A
 Frequencies --   3033.9861              3043.4005              3105.9275
 Red. masses --      1.0351                 1.0617                 1.1008
 Frc consts  --      5.6138                 5.7937                 6.2568
 IR Inten    --     21.2685                39.4675                17.0196

                     46                     47                     48
                      A                      A                      A
 Frequencies --   3107.1749              3113.1812              3116.8055
 Red. masses --      1.1037                 1.0557                 1.1018
 Frc consts  --      6.2780                 6.0286                 6.3061
 IR Inten    --     14.5690                13.7115                16.9941

                     49                     50                     51
                      A                      A                      A
 Frequencies --   3195.8611              3207.1362              3789.1163
 Red. masses --      1.0974                 1.1106                 1.0660
 Frc consts  --      6.6035                 6.7307                 9.0175
 IR Inten    --      6.7469                11.9917                30.5423

 - Thermochemistry -
 -------------------
 Temperature   298.150 Kelvin.  Pressure   1.00000 Atm.
 Atom     1 has atomic number  6 and mass  12.00000

 Molecular mass:   126.06808 amu.
 Principal axes and moments of inertia in atomic units:
                           1         2         3
     Eigenvalues --   862.124601139.571511196.56598
           X            0.99291  -0.11108  -0.04231
           Y            0.11356   0.99162   0.06161
           Z            0.03511  -0.06598   0.99720
 This molecule is an asymmetric top.
 Rotational symmetry number  1.
 Warning -- assumption of classical behavior for rotation
           may cause significant error
 Rotational temperatures (Kelvin)      0.10047     0.07601     0.07239
 Rotational constants (GHZ):           2.09336     1.58370     1.50827
 Zero-point vibrational energy     411859.4 (Joules/Mol)
                                   98.43677 (Kcal/Mol)
 Warning -- explicit consideration of  12 degrees of freedom as
           vibrations may cause significant error
 Vibrational temperatures:    110.73   203.93   224.91   320.79   346.82
          (Kelvin)            441.50   456.59   512.12   575.66   614.54
                              695.87   746.98   928.82  1033.30  1162.18
                             1229.92  1276.48  1300.15  1342.20  1365.61
                             1417.04  1448.29  1469.44  1477.95  1553.46
                             1648.17  1650.04  1701.06  1768.48  1774.96
                             1805.59  1882.04  1897.30  2015.24  2020.57
                             2043.99  2132.04  2138.72  2154.66  2168.93
                             2615.79  4086.65  4365.22  4378.77  4468.73
                             4470.53  4479.17  4484.38  4598.13  4614.35
                             5451.69

 Zero-point correction=                           0.156869 (Hartree/Particle)
 Thermal correction to Energy=                    0.165922
 Thermal correction to Enthalpy=                  0.166866
 Thermal correction to Gibbs Free Energy=         0.123435
 Sum of electronic and zero-point Energies=           -423.004838
 Sum of electronic and thermal Energies=              -422.995785
 Sum of electronic and thermal Enthalpies=            -422.994841
 Sum of electronic and thermal Free Energies=         -423.038272

                     E (Thermal)             CV                S
                      KCal/Mol        Cal/Mol-Kelvin    Cal/Mol-Kelvin
 Total                  104.118             34.329             91.408
 Electronic               0.000              0.000              0.000
 Translational            0.889              2.981             40.409
 Rotational               0.889              2.981             28.554
 Vibrational            102.340             28.367             22.445
 Vibration     1          0.599              1.965              3.967
 Vibration     2          0.615              1.912              2.780
 Vibration     3          0.620              1.896              2.594
 Vibration     4          0.649              1.806              1.935
 Vibration     5          0.658              1.778              1.795
 Vibration     6          0.697              1.661              1.379
 Vibration     7          0.704              1.640              1.324
 Vibration     8          0.731              1.563              1.140
 Vibration     9          0.766              1.470              0.962
 Vibration    10          0.789              1.411              0.868
 Vibration    11          0.840              1.286              0.700
 Vibration    12          0.874              1.208              0.612

 Optimization completed.
    -- Stationary point found.
 Normal termination of Gaussian 09 at Mon Jan 27 18:37:02 2020.
