 Gaussian 09, Revision D.01,
 Gaussian 09:  ES64L-G09RevD.01 24-Apr-2013

 -----------------------------
 # b3lyp 6-31G(2df,p) opt Freq
 -----------------------------

 -----
 titel
 -----
 Symbolic Z-matrix:
 Charge =  0 Multiplicity = 1

 SCF Done:  E(RB3LYP) =  -423.159545472     A.U. after   14 cycles
 Optimization completed.
    -- Stationary point found.
 Normal termination of Gaussian 09 at Tue Jan 28 00:01:27 2020.

 ----------------------------------------------------------------------
 #N Geom=AllCheck Guess=TCheck SCRF=Check GenChk RB3LYP/6-31G(2df,p) Fr
 eq
 ----------------------------------------------------------------------

 Structure from the checkpoint file:  "/scratch/puck/g09_24ee8cac-f3e9-4be3-8663-9610f1516a23/Gau-2000.chk"
 -----
 titel
 -----
 Charge =  0 Multiplicity = 1

                         Standard orientation:
 ---------------------------------------------------------------------
 Center     Atomic      Atomic             Coordinates (Angstroms)
 Number     Number       Type             X           Y           Z
 ---------------------------------------------------------------------
      1          6           0       -1.011751    2.367703   -0.059100
      2          6           0       -0.390743    1.005206   -0.337063
      3          6           0        1.135653    0.885355   -0.042875
      4          6           0        1.858935   -0.221547   -0.830643
      5          8           0        1.477969   -1.227869    0.144152
      6          6           0        0.857345   -0.241342    0.987426
      7          6           0       -0.675700   -0.093379    0.730912
      8          6           0       -1.365366   -1.355772    0.286304
      9          8           0       -1.853293   -1.520685   -0.802757
     10          1           0       -2.103865    2.319054   -0.124010
     11          1           0       -0.752217    2.729990    0.942781
     12          1           0       -0.664910    3.113652   -0.782263
     13          1           0       -0.659488    0.667352   -1.341898
     14          1           0        1.680364    1.802164    0.180473
     15          1           0        1.469050   -0.444306   -1.830813
     16          1           0        2.949905   -0.119470   -0.880136
     17          1           0        1.215146   -0.285448    2.019092
     18          1           0       -1.190305    0.290175    1.621938
     19          1           0       -1.391322   -2.162068    1.053911
 ---------------------------------------------------------------------

 SCF Done:  E(RB3LYP) =  -423.159545472     A.U. after    1 cycles

 The electronic state is 1-A.
 Alpha  occ. eigenvalues --  -19.14089 -19.13772 -10.26884 -10.24558 -10.23541
 Alpha  occ. eigenvalues --  -10.19778 -10.19707 -10.19614 -10.18362  -1.04941
 Alpha  occ. eigenvalues --   -1.04197  -0.84369  -0.73849  -0.72306  -0.66947
 Alpha  occ. eigenvalues --   -0.61349  -0.57224  -0.52272  -0.51461  -0.49570
 Alpha  occ. eigenvalues --   -0.47332  -0.45149  -0.42880  -0.42722  -0.40951
 Alpha  occ. eigenvalues --   -0.40047  -0.38084  -0.36994  -0.33924  -0.33143
 Alpha  occ. eigenvalues --   -0.30765  -0.29453  -0.25572  -0.24486
 Alpha virt. eigenvalues --   -0.01840   0.06442   0.08819   0.10464   0.10871
 Alpha virt. eigenvalues --    0.11895   0.13439   0.14743   0.15371   0.16381
 Alpha virt. eigenvalues --    0.16413   0.17158   0.18315   0.19813   0.21273

 Mulliken charges:
               1
     1  C   -0.422271
     2  C    0.010834
     3  C   -0.088784
     4  C   -0.088703
     5  O   -0.286184
     6  C    0.098982
     7  C   -0.134492
     8  C    0.159651
     9  O   -0.247711
    10  H    0.125222
    11  H    0.111608
    12  H    0.119030
    13  H    0.097855
    14  H    0.077870
    15  H    0.113693
    16  H    0.104778
    17  H    0.078907
    18  H    0.091160
    19  H    0.078555
 Sum of Mulliken charges =   0.00000

 Dipole moment (field-independent basis, Debye):
    X=              0.9885    Y=              2.5746    Z=              1.6722  Tot=              3.2252
 Quadrupole moment (field-independent basis, Debye-Ang):
   XX=            -55.2401   YY=            -56.5528   ZZ=            -51.3918
   XY=              0.0886   XZ=             -4.5227   YZ=             -2.6147

  Exact polarizability:  77.254   1.349  76.344  -0.928  -1.515  72.243
 Approx polarizability: 106.630   3.425 105.023   3.772   0.177 117.223

                      1                      2                      3
                      A                      A                      A
 Frequencies --     45.7545                99.7375               168.3625
 Red. masses --      4.0975                 3.9200                 3.8621
 Frc consts  --      0.0051                 0.0230                 0.0645
 IR Inten    --      1.6880                 3.7283                 6.0527

                      4                      5                      6
                      A                      A                      A
 Frequencies --    196.8390               237.5708               269.9069
 Red. masses --      3.2952                 1.1983                 2.1681
 Frc consts  --      0.0752                 0.0398                 0.0931
 IR Inten    --      3.4339                 0.2283                 0.9584

                      7                      8                      9
                      A                      A                      A
 Frequencies --    288.9906               401.5874               494.4709
 Red. masses --      2.2233                 3.3490                 3.7488
 Frc consts  --      0.1094                 0.3182                 0.5400
 IR Inten    --      3.0437                 0.7571                 1.4708

                     10                     11                     12
                      A                      A                      A
 Frequencies --    640.9738               684.6125               795.6286
 Red. masses --      4.2100                 4.0483                 2.5027
 Frc consts  --      1.0191                 1.1179                 0.9334
 IR Inten    --      5.2492                16.6432                 2.0066

                     13                     14                     15
                      A                      A                      A
 Frequencies --    805.2261               838.4557               863.3580
 Red. masses --      1.8742                 2.0140                 2.0735
 Frc consts  --      0.7160                 0.8342                 0.9106
 IR Inten    --      2.2676                 7.4707                 3.1322

                     16                     17                     18
                      A                      A                      A
 Frequencies --    919.3664               949.2220               983.6617
 Red. masses --      2.6075                 1.9158                 1.9955
 Frc consts  --      1.2985                 1.0170                 1.1376
 IR Inten    --      9.5412                 9.4459                11.4226

                     19                     20                     21
                      A                      A                      A
 Frequencies --    985.9175              1014.0478              1044.8840
 Red. masses --      1.4534                 3.4950                 2.9374
 Frc consts  --      0.8324                 2.1175                 1.8895
 IR Inten    --      6.2221                67.9670                13.8700

                     22                     23                     24
                      A                      A                      A
 Frequencies --   1080.6813              1102.1127              1112.2730
 Red. masses --      2.3681                 2.1726                 1.9468
 Frc consts  --      1.6295                 1.5548                 1.4190
 IR Inten    --     20.5306                 3.7596                18.6669

                     25                     26                     27
                      A                      A                      A
 Frequencies --   1146.0639              1150.2426              1172.8889
 Red. masses --      1.9734                 1.5074                 1.4487
 Frc consts  --      1.5272                 1.1751                 1.1742
 IR Inten    --      2.4699                 1.3172                 4.2573

                     28                     29                     30
                      A                      A                      A
 Frequencies --   1221.0582              1223.7884              1245.5327
 Red. masses --      1.6217                 1.5167                 1.6121
 Frc consts  --      1.4246                 1.3383                 1.4735
 IR Inten    --      9.0013                 3.8383                 6.3834

                     31                     32                     33
                      A                      A                      A
 Frequencies --   1283.2308              1306.4382              1312.6213
 Red. masses --      1.5058                 1.2702                 1.5917
 Frc consts  --      1.4609                 1.2773                 1.6159
 IR Inten    --      0.9194                 9.3357                 6.2256

                     34                     35                     36
                      A                      A                      A
 Frequencies --   1361.4416              1384.8513              1412.5331
 Red. masses --      1.4519                 1.6802                 1.2412
 Frc consts  --      1.5856                 1.8985                 1.4591
 IR Inten    --      5.1878                 7.3645                 1.4459

                     37                     38                     39
                      A                      A                      A
 Frequencies --   1423.8215              1497.1212              1498.1401
 Red. masses --      1.2093                 1.0453                 1.0486
 Frc consts  --      1.4444                 1.3804                 1.3866
 IR Inten    --      8.4195                 4.7137                 3.2809

                     40                     41                     42
                      A                      A                      A
 Frequencies --   1517.9040              1824.3745              2874.9747
 Red. masses --      1.0996                10.5051                 1.0829
 Frc consts  --      1.4927                20.6005                 5.2736
 IR Inten    --      1.0141               139.4912               128.4023

                     43                     44                     45
                      A                      A                      A
 Frequencies --   3016.4443              3023.6642              3028.1716
 Red. masses --      1.0556                 1.0411                 1.0776
 Frc consts  --      5.6588                 5.6079                 5.8221
 IR Inten    --     77.5259                19.4598                14.8415

                     46                     47                     48
                      A                      A                      A
 Frequencies --   3064.0800              3068.8381              3076.1047
 Red. masses --      1.1066                 1.0906                 1.0889
 Frc consts  --      6.1214                 6.0517                 6.0707
 IR Inten    --     24.0099                10.2835                48.4484

                     49                     50                     51
                      A                      A                      A
 Frequencies --   3093.2316              3099.6529              3116.4592
 Red. masses --      1.0985                 1.1015                 1.0905
 Frc consts  --      6.1927                 6.2356                 6.2401
 IR Inten    --     36.9155                17.9522                35.8967

 - Thermochemistry -
 -------------------
 Temperature   298.150 Kelvin.  Pressure   1.00000 Atm.
 Atom     1 has atomic number  6 and mass  12.00000

 Molecular mass:   126.06808 amu.
 Principal axes and moments of inertia in atomic units:
                           1         2         3
     Eigenvalues --   920.43251 993.982561523.88950
           X            0.96635  -0.25558  -0.02895
           Y            0.25530   0.96677  -0.01312
           Z            0.03134   0.00528   0.99949
 This molecule is an asymmetric top.
 Rotational symmetry number  1.
 Warning -- assumption of classical behavior for rotation
           may cause significant error
 Rotational temperatures (Kelvin)      0.09410     0.08714     0.05684
 Rotational constants (GHZ):           1.96075     1.81567     1.18430
 Zero-point vibrational energy     415506.8 (Joules/Mol)
                                   99.30851 (Kcal/Mol)
 Warning -- explicit consideration of   9 degrees of freedom as
           vibrations may cause significant error
 Vibrational temperatures:     65.83   143.50   242.24   283.21   341.81
          (Kelvin)            388.34   415.79   577.79   711.43   922.22
                              985.00  1144.73  1158.54  1206.35  1242.18
                             1322.76  1365.72  1415.27  1418.51  1458.99
                             1503.35  1554.86  1585.69  1600.31  1648.93
                             1654.94  1687.52  1756.83  1760.76  1792.04
                             1846.28  1879.67  1888.57  1958.81  1992.49
                             2032.32  2048.56  2154.02  2155.49  2183.92
                             2624.86  4136.44  4339.99  4350.37  4356.86
                             4408.52  4415.37  4425.82  4450.46  4459.70
                             4483.88

 Zero-point correction=                           0.158258 (Hartree/Particle)
 Thermal correction to Energy=                    0.166824
 Thermal correction to Enthalpy=                  0.167768
 Thermal correction to Gibbs Free Energy=         0.124322
 Sum of electronic and zero-point Energies=           -423.001287
 Sum of electronic and thermal Energies=              -422.992722
 Sum of electronic and thermal Enthalpies=            -422.991778
 Sum of electronic and thermal Free Energies=         -423.035223

                     E (Thermal)             CV                S
                      KCal/Mol        Cal/Mol-Kelvin    Cal/Mol-Kelvin
 Total                  104.683             31.418             91.440
 Electronic               0.000              0.000              0.000
 Translational            0.889              2.981             40.409
 Rotational               0.889              2.981             28.724
 Vibrational            102.906             25.457             22.307
 Vibration     1          0.595              1.979              4.993
 Vibration     2          0.604              1.949              3.459
 Vibration     3          0.625              1.881              2.454
 Vibration     4          0.636              1.844              2.162
 Vibration     5          0.656              1.783              1.821
 Vibration     6          0.674              1.729              1.597
 Vibration     7          0.686              1.694              1.480
 Vibration     8          0.767              1.467              0.957
 Vibration     9          0.850              1.262              0.672

 Optimization completed.
    -- Stationary point found.
 Normal termination of Gaussian 09 at Tue Jan 28 00:42:54 2020.
