 Gaussian 09, Revision D.01,
 Gaussian 09:  ES64L-G09RevD.01 24-Apr-2013

 -----------------------------
 # b3lyp 6-31G(2df,p) opt Freq
 -----------------------------

 -----
 titel
 -----
 Symbolic Z-matrix:
 Charge =  0 Multiplicity = 1

 SCF Done:  E(RB3LYP) =  -423.152475160     A.U. after   14 cycles
 Optimization completed.
    -- Stationary point found.
 Normal termination of Gaussian 09 at Mon Jan 27 17:35:45 2020.

 ----------------------------------------------------------------------
 #N Geom=AllCheck Guess=TCheck SCRF=Check GenChk RB3LYP/6-31G(2df,p) Fr
 eq
 ----------------------------------------------------------------------

 Structure from the checkpoint file:  "/scratch/puck/g09_49e5f708-8f7f-42fe-9f13-78e3a53eca9d/Gau-87202.chk"
 -----
 titel
 -----
 Charge =  0 Multiplicity = 1

                         Standard orientation:
 ---------------------------------------------------------------------
 Center     Atomic      Atomic             Coordinates (Angstroms)
 Number     Number       Type             X           Y           Z
 ---------------------------------------------------------------------
      1          6           0       -2.656692    0.656741    0.107250
      2          6           0       -1.279493    0.082628    0.052890
      3          8           0       -0.887009   -0.645125   -1.122808
      4          6           0       -0.756999   -1.291273    0.152389
      5          6           0        0.570683   -0.806210    0.774508
      6          6           0        1.843530   -0.801215   -0.085448
      7          8           0        2.222571    0.569573   -0.203655
      8          6           0        1.038242    1.364448   -0.254333
      9          6           0        0.027759    0.659473    0.661988
     10          1           0       -3.386728   -0.061116   -0.275932
     11          1           0       -2.926189    0.919203    1.135446
     12          1           0       -2.722754    1.567315   -0.499412
     13          1           0       -1.266394   -2.240613    0.277570
     14          1           0        0.725267   -1.150423    1.798094
     15          1           0        2.684351   -1.328966    0.372509
     16          1           0        1.643953   -1.236836   -1.074104
     17          1           0        1.310834    2.368461    0.081794
     18          1           0        0.653717    1.424198   -1.281950
     19          1           0       -0.122734    1.155645    1.622224
 ---------------------------------------------------------------------

 SCF Done:  E(RB3LYP) =  -423.152475160     A.U. after    1 cycles

 The electronic state is 1-A.
 Alpha  occ. eigenvalues --  -19.15251 -19.12695 -10.24398 -10.23641 -10.21872
 Alpha  occ. eigenvalues --  -10.21846 -10.19362 -10.19237 -10.19062  -1.07918
 Alpha  occ. eigenvalues --   -1.02113  -0.81011  -0.75202  -0.72818  -0.65617
 Alpha  occ. eigenvalues --   -0.62027  -0.57126  -0.54060  -0.51551  -0.48345
 Alpha  occ. eigenvalues --   -0.47049  -0.44928  -0.43027  -0.42426  -0.40133
 Alpha  occ. eigenvalues --   -0.39219  -0.37474  -0.35826  -0.34338  -0.32069
 Alpha  occ. eigenvalues --   -0.31590  -0.28306  -0.25777  -0.23623
 Alpha virt. eigenvalues --    0.07672   0.08738   0.10652   0.11227   0.13276
 Alpha virt. eigenvalues --    0.13715   0.14144   0.14803   0.15569   0.15897
 Alpha virt. eigenvalues --    0.16655   0.17024   0.19113   0.20277   0.21817

 Mulliken charges:
               1
     1  C   -0.505720
     2  C    0.404380
     3  O   -0.279075
     4  C   -0.066671
     5  C   -0.059390
     6  C   -0.095810
     7  O   -0.256929
     8  C   -0.099018
     9  C   -0.105602
    10  H    0.135854
    11  H    0.125748
    12  H    0.132366
    13  H    0.101322
    14  H    0.080975
    15  H    0.102496
    16  H    0.103074
    17  H    0.101738
    18  H    0.101436
    19  H    0.078826
 Sum of Mulliken charges =   0.00000

 Dipole moment (field-independent basis, Debye):
    X=             -1.8773    Y=             -0.2811    Z=              1.9745  Tot=              2.7389
 Quadrupole moment (field-independent basis, Debye-Ang):
   XX=            -55.7338   YY=            -49.4690   ZZ=            -54.3583
   XY=             -2.7916   XZ=             -0.4974   YZ=             -1.1960

  Exact polarizability:  81.706  -3.793  77.167   1.315  -0.647  62.919
 Approx polarizability: 106.273  -4.628 115.016   3.176   0.236 102.612

                      1                      2                      3
                      A                      A                      A
 Frequencies --    135.3695               165.5950               203.6572
 Red. masses --      2.9481                 3.0149                 1.1342
 Frc consts  --      0.0318                 0.0487                 0.0277
 IR Inten    --      0.4342                 4.2539                 0.6738

                      4                      5                      6
                      A                      A                      A
 Frequencies --    221.7567               280.5243               340.2598
 Red. masses --      2.6047                 2.4782                 3.2093
 Frc consts  --      0.0755                 0.1149                 0.2189
 IR Inten    --      0.3956                 5.8746                 2.5685

                      7                      8                      9
                      A                      A                      A
 Frequencies --    497.6680               558.5879               604.7152
 Red. masses --      2.6990                 4.4661                 3.6718
 Frc consts  --      0.3939                 0.8210                 0.7911
 IR Inten    --      1.0494                 8.5019                 2.7669

                     10                     11                     12
                      A                      A                      A
 Frequencies --    656.3649               706.1752               739.4508
 Red. masses --      5.4788                 4.0635                 3.5958
 Frc consts  --      1.3907                 1.1939                 1.1584
 IR Inten    --      9.9313                 1.4145                 4.8058

                     13                     14                     15
                      A                      A                      A
 Frequencies --    837.0291               842.6864               884.2703
 Red. masses --      2.7196                 2.7486                 2.5614
 Frc consts  --      1.1226                 1.1500                 1.1800
 IR Inten    --      5.5825                 9.8837                17.3455

                     16                     17                     18
                      A                      A                      A
 Frequencies --    928.8335               933.2858               977.1551
 Red. masses --      3.9919                 2.0221                 1.5372
 Frc consts  --      2.0291                 1.0377                 0.8648
 IR Inten    --     22.0011                 0.5134                 0.9137

                     19                     20                     21
                      A                      A                      A
 Frequencies --    994.0570              1015.6083              1038.1802
 Red. masses --      1.5534                 1.6029                 2.6356
 Frc consts  --      0.9044                 0.9741                 1.6737
 IR Inten    --      2.3173                 5.2563                 5.3386

                     22                     23                     24
                      A                      A                      A
 Frequencies --   1063.7071              1077.5589              1097.8611
 Red. masses --      2.4675                 3.4018                 2.9239
 Frc consts  --      1.6450                 2.3272                 2.0764
 IR Inten    --     12.9936                16.5624                48.4134

                     25                     26                     27
                      A                      A                      A
 Frequencies --   1121.2015              1160.0182              1192.3166
 Red. masses --      2.4982                 1.7405                 1.7232
 Frc consts  --      1.8503                 1.3799                 1.4433
 IR Inten    --     16.6413                 1.9866                 8.0365

                     28                     29                     30
                      A                      A                      A
 Frequencies --   1226.6199              1256.4006              1258.7846
 Red. masses --      1.1422                 1.3551                 1.6482
 Frc consts  --      1.0125                 1.2603                 1.5387
 IR Inten    --      3.3446                 9.3592                 5.8385

                     31                     32                     33
                      A                      A                      A
 Frequencies --   1274.3874              1305.2987              1320.3980
 Red. masses --      1.2388                 1.4490                 1.7866
 Frc consts  --      1.1853                 1.4546                 1.8352
 IR Inten    --      7.3892                 1.1838                 6.9541

                     34                     35                     36
                      A                      A                      A
 Frequencies --   1363.3493              1394.0979              1406.8035
 Red. masses --      1.3241                 1.3379                 1.2661
 Frc consts  --      1.4500                 1.5320                 1.4763
 IR Inten    --      0.7830                 6.4610                 0.5057

                     37                     38                     39
                      A                      A                      A
 Frequencies --   1466.6682              1484.3030              1494.9892
 Red. masses --      2.2940                 1.1667                 1.2086
 Frc consts  --      2.9074                 1.5144                 1.5915
 IR Inten    --     13.5516                10.6323                 3.4022

                     40                     41                     42
                      A                      A                      A
 Frequencies --   1501.2846              1516.5781              3007.3654
 Red. masses --      1.0840                 1.1268                 1.0654
 Frc consts  --      1.4395                 1.5269                 5.6773
 IR Inten    --      0.0235                 1.4611                51.7105

                     43                     44                     45
                      A                      A                      A
 Frequencies --   3013.2407              3032.7976              3082.6660
 Red. masses --      1.0670                 1.0366                 1.0937
 Frc consts  --      5.7081                 5.6175                 6.1237
 IR Inten    --     39.8458                22.5587                10.6454

                     46                     47                     48
                      A                      A                      A
 Frequencies --   3085.8491              3094.4860              3099.0841
 Red. masses --      1.0958                 1.0993                 1.0910
 Frc consts  --      6.1478                 6.2020                 6.1735
 IR Inten    --     20.7246                17.6504                27.9471

                     49                     50                     51
                      A                      A                      A
 Frequencies --   3110.3756              3121.0271              3176.9456
 Red. masses --      1.0903                 1.1010                 1.0939
 Frc consts  --      6.2146                 6.3190                 6.5052
 IR Inten    --     45.2241                14.8427                23.3684

 - Thermochemistry -
 -------------------
 Temperature   298.150 Kelvin.  Pressure   1.00000 Atm.
 Atom     1 has atomic number  6 and mass  12.00000

 Molecular mass:   126.06808 amu.
 Principal axes and moments of inertia in atomic units:
                           1         2         3
     Eigenvalues --   525.566131241.498051444.92421
           X            0.99946  -0.03229  -0.00649
           Y            0.03214   0.99924  -0.02200
           Z            0.00720   0.02178   0.99974
 This molecule is an asymmetric top.
 Rotational symmetry number  1.
 Warning -- assumption of classical behavior for rotation
           may cause significant error
 Rotational temperatures (Kelvin)      0.16480     0.06977     0.05994
 Rotational constants (GHZ):           3.43390     1.45368     1.24902
 Zero-point vibrational energy     420892.3 (Joules/Mol)
                                  100.59567 (Kcal/Mol)
 Warning -- explicit consideration of   9 degrees of freedom as
           vibrations may cause significant error
 Vibrational temperatures:    194.77   238.25   293.02   319.06   403.61
          (Kelvin)            489.56   716.03   803.68   870.05   944.36
                             1016.03  1063.90  1204.30  1212.44  1272.27
                             1336.38  1342.79  1405.91  1430.22  1461.23
                             1493.71  1530.44  1550.36  1579.58  1613.16
                             1669.01  1715.48  1764.83  1807.68  1811.11
                             1833.56  1878.03  1899.76  1961.55  2005.79
                             2024.07  2110.21  2135.58  2150.95  2160.01
                             2182.01  4326.92  4335.38  4363.51  4435.26
                             4439.84  4452.27  4458.89  4475.13  4490.46
                             4570.91

 Zero-point correction=                           0.160309 (Hartree/Particle)
 Thermal correction to Energy=                    0.167933
 Thermal correction to Enthalpy=                  0.168877
 Thermal correction to Gibbs Free Energy=         0.128391
 Sum of electronic and zero-point Energies=           -422.992166
 Sum of electronic and thermal Energies=              -422.984543
 Sum of electronic and thermal Enthalpies=            -422.983598
 Sum of electronic and thermal Free Energies=         -423.024084

                     E (Thermal)             CV                S
                      KCal/Mol        Cal/Mol-Kelvin    Cal/Mol-Kelvin
 Total                  105.379             29.986             85.209
 Electronic               0.000              0.000              0.000
 Translational            0.889              2.981             40.409
 Rotational               0.889              2.981             28.335
 Vibrational            103.602             24.025             16.466
 Vibration     1          0.613              1.918              2.868
 Vibration     2          0.624              1.885              2.485
 Vibration     3          0.639              1.835              2.100
 Vibration     4          0.648              1.808              1.945
 Vibration     5          0.680              1.710              1.530
 Vibration     6          0.720              1.595              1.211
 Vibration     7          0.853              1.255              0.664
 Vibration     8          0.914              1.121              0.527
 Vibration     9          0.963              1.022              0.442

 Optimization completed.
    -- Stationary point found.
 Normal termination of Gaussian 09 at Mon Jan 27 18:17:48 2020.
