 Gaussian 09, Revision D.01,
 Gaussian 09:  ES64L-G09RevD.01 24-Apr-2013

 -----------------------------
 # b3lyp 6-31G(2df,p) opt Freq
 -----------------------------

 -----
 titel
 -----
 Symbolic Z-matrix:
 Charge =  0 Multiplicity = 1

 SCF Done:  E(RB3LYP) =  -423.211150032     A.U. after   14 cycles
 SCF Done:  E(RB3LYP) =  -423.211150293     A.U. after    7 cycles
 SCF Done:  E(RB3LYP) =  -423.211150138     A.U. after    8 cycles
 SCF Done:  E(RB3LYP) =  -423.211150507     A.U. after    7 cycles
 Optimization completed.
    -- Stationary point found.
 Normal termination of Gaussian 09 at Mon Jan 27 18:34:25 2020.

 ----------------------------------------------------------------------
 #N Geom=AllCheck Guess=TCheck SCRF=Check GenChk RB3LYP/6-31G(2df,p) Fr
 eq
 ----------------------------------------------------------------------

 Structure from the checkpoint file:  "/scratch/puck/g09_2669db43-10d7-4af4-8a1f-a3ca04375f5b/Gau-16507.chk"
 -----
 titel
 -----
 Charge =  0 Multiplicity = 1

                         Standard orientation:
 ---------------------------------------------------------------------
 Center     Atomic      Atomic             Coordinates (Angstroms)
 Number     Number       Type             X           Y           Z
 ---------------------------------------------------------------------
      1          6           0        2.719128    0.222152   -0.219034
      2          6           0        1.235894    0.091321    0.043622
      3          6           0        0.461879    1.399387    0.178819
      4          6           0       -0.973617    1.345228   -0.383006
      5          6           0       -1.681819    0.035785   -0.077622
      6          8           0       -2.751377   -0.025072    0.477457
      7          6           0       -0.954108   -1.204352   -0.588104
      8          6           0        0.532184   -1.157761   -0.315438
      9          8           0        0.893787   -0.889356    1.042658
     10          1           0        3.190813    0.840787    0.552559
     11          1           0        3.201130   -0.758468   -0.210674
     12          1           0        2.904310    0.697456   -1.188377
     13          1           0        0.435031    1.651991    1.244686
     14          1           0        1.011188    2.204240   -0.319789
     15          1           0       -1.580849    2.171036   -0.006907
     16          1           0       -0.927273    1.432061   -1.477786
     17          1           0       -1.405517   -2.091579   -0.134650
     18          1           0       -1.120072   -1.268186   -1.673312
     19          1           0        1.114714   -1.954482   -0.782095
 ---------------------------------------------------------------------

 SCF Done:  E(RB3LYP) =  -423.211150507     A.U. after    1 cycles

 The electronic state is 1-A.
 Alpha  occ. eigenvalues --  -19.15025 -19.12835 -10.26937 -10.24984 -10.24462
 Alpha  occ. eigenvalues --  -10.20049 -10.19673 -10.19618 -10.18892  -1.07400
 Alpha  occ. eigenvalues --   -1.03903  -0.81078  -0.77288  -0.74055  -0.66692
 Alpha  occ. eigenvalues --   -0.63007  -0.58436  -0.51553  -0.49153  -0.48109
 Alpha  occ. eigenvalues --   -0.47310  -0.45140  -0.43081  -0.42284  -0.40871
 Alpha  occ. eigenvalues --   -0.39807  -0.39421  -0.38920  -0.36317  -0.34564
 Alpha  occ. eigenvalues --   -0.33933  -0.29173  -0.27012  -0.24135
 Alpha virt. eigenvalues --   -0.01414   0.08162   0.09491   0.10756   0.11533
 Alpha virt. eigenvalues --    0.11880   0.13708   0.14080   0.16066   0.16699
 Alpha virt. eigenvalues --    0.17268   0.17858   0.18636   0.19844   0.22060

 Mulliken charges:
               1
     1  C   -0.467998
     2  C    0.385208
     3  C   -0.277381
     4  C   -0.304146
     5  C    0.390218
     6  O   -0.304168
     7  C   -0.337454
     8  C   -0.002106
     9  O   -0.286527
    10  H    0.129791
    11  H    0.129732
    12  H    0.120756
    13  H    0.131687
    14  H    0.106956
    15  H    0.123924
    16  H    0.116152
    17  H    0.135018
    18  H    0.122679
    19  H    0.087661
 Sum of Mulliken charges =   0.00000

 Dipole moment (field-independent basis, Debye):
    X=              2.5503    Y=              0.8844    Z=             -2.7827  Tot=              3.8768
 Quadrupole moment (field-independent basis, Debye-Ang):
   XX=            -60.7302   YY=            -50.0121   ZZ=            -53.8837
   XY=              0.9301   XZ=              1.7984   YZ=              2.3839

  Exact polarizability:  86.322   3.383  76.810  -2.314   2.715  61.877
 Approx polarizability: 115.811   6.090 109.395  -6.872   1.427 104.139

                      1                      2                      3
                      A                      A                      A
 Frequencies --     65.8248               113.1640               203.3524
 Red. masses --      3.6773                 3.0987                 1.4342
 Frc consts  --      0.0094                 0.0234                 0.0349
 IR Inten    --      1.4664                 1.2386                 0.8442

                      4                      5                      6
                      A                      A                      A
 Frequencies --    233.7572               313.2650               360.1084
 Red. masses --      1.6033                 2.4206                 3.4761
 Frc consts  --      0.0516                 0.1400                 0.2656
 IR Inten    --      0.6060                 0.7142                 2.5558

                      7                      8                      9
                      A                      A                      A
 Frequencies --    391.0082               405.9547               486.5455
 Red. masses --      3.1700                 2.1876                 3.7398
 Frc consts  --      0.2856                 0.2124                 0.5216
 IR Inten    --      8.4967                 3.4547                 8.8024

                     10                     11                     12
                      A                      A                      A
 Frequencies --    519.3156               548.0735               680.5552
 Red. masses --      3.0655                 4.4714                 3.8940
 Frc consts  --      0.4871                 0.7914                 1.0626
 IR Inten    --      2.2654                 6.4012                 2.3091

                     13                     14                     15
                      A                      A                      A
 Frequencies --    710.2966               768.1425               775.9184
 Red. masses --      4.0990                 1.7748                 4.1345
 Frc consts  --      1.2184                 0.6170                 1.4666
 IR Inten    --      0.7939                 0.5824                13.0119

                     16                     17                     18
                      A                      A                      A
 Frequencies --    860.4278               905.4081               913.4281
 Red. masses --      2.6350                 2.0229                 2.2168
 Frc consts  --      1.1494                 0.9771                 1.0898
 IR Inten    --     10.6558                 3.5365                 9.1468

                     19                     20                     21
                      A                      A                      A
 Frequencies --    978.8194              1019.1626              1025.7976
 Red. masses --      2.2011                 1.7018                 1.7175
 Frc consts  --      1.2425                 1.0415                 1.0648
 IR Inten    --      8.0657                 6.7568                 7.0029

                     22                     23                     24
                      A                      A                      A
 Frequencies --   1054.0941              1072.0866              1121.2331
 Red. masses --      1.5303                 1.9235                 1.9645
 Frc consts  --      1.0018                 1.3026                 1.4551
 IR Inten    --      8.7933                 5.8300                10.0509

                     25                     26                     27
                      A                      A                      A
 Frequencies --   1169.6659              1207.9096              1231.5838
 Red. masses --      2.4231                 1.3872                 1.4005
 Frc consts  --      1.9532                 1.1925                 1.2516
 IR Inten    --     30.4066                 3.3503                 4.7720

                     28                     29                     30
                      A                      A                      A
 Frequencies --   1244.0908              1257.5314              1310.2257
 Red. masses --      1.8127                 1.6367                 1.6153
 Frc consts  --      1.6531                 1.5250                 1.6338
 IR Inten    --     32.7250                 6.6603                 0.3321

                     31                     32                     33
                      A                      A                      A
 Frequencies --   1329.6460              1352.0146              1386.0259
 Red. masses --      1.4045                 1.6125                 1.7154
 Frc consts  --      1.4630                 1.7367                 1.9416
 IR Inten    --      6.0588                13.3986                 2.2115

                     34                     35                     36
                      A                      A                      A
 Frequencies --   1413.5755              1449.1337              1464.6907
 Red. masses --      1.2864                 1.1545                 1.5311
 Frc consts  --      1.5145                 1.4284                 1.9352
 IR Inten    --      5.2562                 7.2799                 3.8473

                     37                     38                     39
                      A                      A                      A
 Frequencies --   1470.4676              1484.8861              1489.1276
 Red. masses --      1.1041                 1.0870                 1.1049
 Frc consts  --      1.4065                 1.4122                 1.4436
 IR Inten    --      7.1497                 1.4878                 8.3051

                     40                     41                     42
                      A                      A                      A
 Frequencies --   1503.1122              1829.7710              3013.6748
 Red. masses --      1.4287                11.3673                 1.0671
 Frc consts  --      1.9019                22.4235                 5.7101
 IR Inten    --      3.9493               187.4031                 1.8861

                     43                     44                     45
                      A                      A                      A
 Frequencies --   3020.1412              3032.7942              3044.3754
 Red. masses --      1.0666                 1.0372                 1.0591
 Frc consts  --      5.7321                 5.6208                 5.7835
 IR Inten    --     19.3217                11.7985                29.5327

                     46                     47                     48
                      A                      A                      A
 Frequencies --   3084.3043              3088.4906              3094.5543
 Red. masses --      1.1015                 1.0898                 1.0935
 Frc consts  --      6.1736                 6.1246                 6.1697
 IR Inten    --     11.9514                31.4753                13.2163

                     49                     50                     51
                      A                      A                      A
 Frequencies --   3096.4798              3114.0224              3124.0876
 Red. masses --      1.1005                 1.0953                 1.1011
 Frc consts  --      6.2169                 6.2579                 6.3318
 IR Inten    --     21.2434                15.2797                18.6478

 - Thermochemistry -
 -------------------
 Temperature   298.150 Kelvin.  Pressure   1.00000 Atm.
 Atom     1 has atomic number  6 and mass  12.00000

 Molecular mass:   126.06808 amu.
 Principal axes and moments of inertia in atomic units:
                           1         2         3
     Eigenvalues --   558.040691353.635431639.79331
           X            0.99992   0.01244   0.00102
           Y           -0.01247   0.99930   0.03535
           Z           -0.00058  -0.03536   0.99937
 This molecule is an asymmetric top.
 Rotational symmetry number  1.
 Warning -- assumption of classical behavior for rotation
           may cause significant error
 Rotational temperatures (Kelvin)      0.15521     0.06399     0.05282
 Rotational constants (GHZ):           3.23407     1.33326     1.10059
 Zero-point vibrational energy     417688.8 (Joules/Mol)
                                   99.83003 (Kcal/Mol)
 Warning -- explicit consideration of  11 degrees of freedom as
           vibrations may cause significant error
 Vibrational temperatures:     94.71   162.82   292.58   336.32   450.72
          (Kelvin)            518.12   562.57   584.08   700.03   747.18
                              788.55   979.17  1021.96  1105.18  1116.37
                             1237.96  1302.68  1314.22  1408.30  1466.35
                             1475.89  1516.60  1542.49  1613.20  1682.89
                             1737.91  1771.97  1789.97  1809.30  1885.12
                             1913.06  1945.24  1994.18  2033.82  2084.98
                             2107.36  2115.67  2136.42  2142.52  2162.64
                             2632.63  4336.00  4345.30  4363.51  4380.17
                             4437.62  4443.64  4452.37  4455.14  4480.38
                             4494.86

 Zero-point correction=                           0.159089 (Hartree/Particle)
 Thermal correction to Energy=                    0.167424
 Thermal correction to Enthalpy=                  0.168368
 Thermal correction to Gibbs Free Energy=         0.126041
 Sum of electronic and zero-point Energies=           -423.052061
 Sum of electronic and thermal Energies=              -423.043727
 Sum of electronic and thermal Enthalpies=            -423.042782
 Sum of electronic and thermal Free Energies=         -423.085110

                     E (Thermal)             CV                S
                      KCal/Mol        Cal/Mol-Kelvin    Cal/Mol-Kelvin
 Total                  105.060             31.960             89.086
 Electronic               0.000              0.000              0.000
 Translational            0.889              2.981             40.409
 Rotational               0.889              2.981             28.606
 Vibrational            103.283             25.998             20.071
 Vibration     1          0.597              1.971              4.274
 Vibration     2          0.607              1.939              3.214
 Vibration     3          0.639              1.835              2.103
 Vibration     4          0.654              1.789              1.850
 Vibration     5          0.701              1.648              1.345
 Vibration     6          0.735              1.554              1.122
 Vibration     7          0.759              1.489              0.996
 Vibration     8          0.771              1.457              0.941
 Vibration     9          0.843              1.280              0.693
 Vibration    10          0.874              1.207              0.612
 Vibration    11          0.903              1.144              0.548

 Normal termination of Gaussian 09 at Mon Jan 27 20:17:00 2020.
