 Gaussian 09, Revision D.01,
 Gaussian 09:  ES64L-G09RevD.01 24-Apr-2013

 -----------------------------
 # b3lyp 6-31G(2df,p) opt Freq
 -----------------------------

 -----
 titel
 -----
 Symbolic Z-matrix:
 Charge =  0 Multiplicity = 1

 SCF Done:  E(RB3LYP) =  -423.119779371     A.U. after   14 cycles
 SCF Done:  E(RB3LYP) =  -423.119779418     A.U. after    7 cycles
 SCF Done:  E(RB3LYP) =  -423.119779156     A.U. after    7 cycles
 SCF Done:  E(RB3LYP) =  -423.119779425     A.U. after    7 cycles
 Optimization completed.
    -- Stationary point found.
 Normal termination of Gaussian 09 at Tue Jan 28 08:53:50 2020.

 ----------------------------------------------------------------------
 #N Geom=AllCheck Guess=TCheck SCRF=Check GenChk RB3LYP/6-31G(2df,p) Fr
 eq
 ----------------------------------------------------------------------

 Structure from the checkpoint file:  "/scratch/puck/g09_d49e38fe-d9e7-49bb-aa0f-7c8797a505fb/Gau-60044.chk"
 -----
 titel
 -----
 Charge =  0 Multiplicity = 1

                         Standard orientation:
 ---------------------------------------------------------------------
 Center     Atomic      Atomic             Coordinates (Angstroms)
 Number     Number       Type             X           Y           Z
 ---------------------------------------------------------------------
      1          8           0        2.568372   -1.401053   -0.288326
      2          6           0        1.335054   -1.193430    0.369523
      3          6           0        0.530664   -0.003730   -0.203713
      4          6           0        1.243506    1.262208   -0.072214
      5          6           0        1.796423    2.319773    0.072712
      6          6           0       -0.842661    0.088242    0.477226
      7          6           0       -1.907078    1.004532   -0.161305
      8          6           0       -2.730549   -0.291633   -0.302013
      9          8           0       -1.644737   -1.088433    0.222850
     10          1           0        2.382186   -1.696197   -1.185280
     11          1           0        0.693417   -2.084132    0.335813
     12          1           0        1.581575   -0.990681    1.416517
     13          1           0        0.347206   -0.207410   -1.269532
     14          1           0        2.303699    3.245510    0.187592
     15          1           0       -0.703060    0.243341    1.555821
     16          1           0       -2.326042    1.773755    0.487543
     17          1           0       -1.595774    1.460570   -1.102695
     18          1           0       -3.620340   -0.351861    0.336425
     19          1           0       -3.004096   -0.592779   -1.319698
 ---------------------------------------------------------------------

 SCF Done:  E(RB3LYP) =  -423.119779425     A.U. after    1 cycles

 The electronic state is 1-A.
 Alpha  occ. eigenvalues --  -19.13755 -19.13550 -10.24338 -10.23572 -10.22952
 Alpha  occ. eigenvalues --  -10.21140 -10.19300 -10.18065 -10.17198  -1.04279
 Alpha  occ. eigenvalues --   -1.01769  -0.81113  -0.74526  -0.72516  -0.67843
 Alpha  occ. eigenvalues --   -0.63221  -0.56181  -0.53930  -0.50545  -0.49907
 Alpha  occ. eigenvalues --   -0.48731  -0.46112  -0.44646  -0.42305  -0.41100
 Alpha  occ. eigenvalues --   -0.38319  -0.37725  -0.34435  -0.32180  -0.31291
 Alpha  occ. eigenvalues --   -0.28012  -0.27209  -0.25840  -0.24739
 Alpha virt. eigenvalues --    0.04766   0.04855   0.07595   0.09073   0.10225
 Alpha virt. eigenvalues --    0.10817   0.12798   0.12917   0.13973   0.16142
 Alpha virt. eigenvalues --    0.17682   0.17967   0.18494   0.20721   0.22097

 Mulliken charges:
               1
     1  O   -0.414162
     2  C   -0.072268
     3  C   -0.227575
     4  C    0.342907
     5  C   -0.463510
     6  C    0.150032
     7  C   -0.292430
     8  C   -0.068267
     9  O   -0.293771
    10  H    0.283083
    11  H    0.115298
    12  H    0.117407
    13  H    0.092192
    14  H    0.196646
    15  H    0.086594
    16  H    0.116869
    17  H    0.118344
    18  H    0.106120
    19  H    0.106493
 Sum of Mulliken charges =   0.00000

 Dipole moment (field-independent basis, Debye):
    X=             -1.8054    Y=              1.0033    Z=             -1.0031  Tot=              2.2961
 Quadrupole moment (field-independent basis, Debye-Ang):
   XX=            -55.7486   YY=            -51.9294   ZZ=            -50.0286
   XY=             -0.1397   XZ=             -0.7416   YZ=              3.1551

  Exact polarizability:  86.544   9.844  83.592   1.815   3.080  61.756
 Approx polarizability: 110.464  19.290 127.872   3.542   6.540  94.650

                      1                      2                      3
                      A                      A                      A
 Frequencies --     73.1716                76.8212               101.3240
 Red. masses --      3.8055                 2.3627                 2.9652
 Frc consts  --      0.0120                 0.0082                 0.0179
 IR Inten    --      1.0943                 0.2963                 4.1872

                      4                      5                      6
                      A                      A                      A
 Frequencies --    126.9727               167.9905               207.9046
 Red. masses --      4.0864                 3.4950                 2.4539
 Frc consts  --      0.0388                 0.0581                 0.0625
 IR Inten    --      2.7903                 2.4583                11.5391

                      7                      8                      9
                      A                      A                      A
 Frequencies --    301.9861               334.0654               358.2269
 Red. masses --      1.2460                 5.8762                 3.6764
 Frc consts  --      0.0669                 0.3864                 0.2780
 IR Inten    --     88.5068                18.2823                 3.9531

                     10                     11                     12
                      A                      A                      A
 Frequencies --    451.1077               489.3839               575.7593
 Red. masses --      4.5127                 4.9250                 3.1988
 Frc consts  --      0.5411                 0.6949                 0.6248
 IR Inten    --      2.6372                 3.3459                11.3632

                     13                     14                     15
                      A                      A                      A
 Frequencies --    636.1951               644.2968               772.8616
 Red. masses --      1.2140                 1.2466                 1.3418
 Frc consts  --      0.2895                 0.3049                 0.4722
 IR Inten    --     45.3206                39.4610                 3.3780

                     16                     17                     18
                      A                      A                      A
 Frequencies --    831.4060               840.5661               908.3366
 Red. masses --      2.5017                 2.6264                 2.0586
 Frc consts  --      1.0188                 1.0933                 1.0007
 IR Inten    --      7.4448                 4.9011                 3.8871

                     19                     20                     21
                      A                      A                      A
 Frequencies --    948.9034               985.6616              1023.5061
 Red. masses --      2.7605                 2.4544                 3.5112
 Frc consts  --      1.4645                 1.4049                 2.1672
 IR Inten    --     13.0436                32.7542                 9.6755

                     22                     23                     24
                      A                      A                      A
 Frequencies --   1026.6015              1064.8668              1093.9469
 Red. masses --      9.1964                 2.2455                 2.4592
 Frc consts  --      5.7105                 1.5002                 1.7340
 IR Inten    --    156.6342                22.0737                13.1586

                     25                     26                     27
                      A                      A                      A
 Frequencies --   1101.2299              1135.4017              1164.6539
 Red. masses --      3.5937                 2.2517                 1.1711
 Frc consts  --      2.5677                 1.7102                 0.9360
 IR Inten    --     44.7906                27.2394                 1.9547

                     28                     29                     30
                      A                      A                      A
 Frequencies --   1194.7947              1215.5473              1258.2094
 Red. masses --      1.3633                 1.2556                 1.4885
 Frc consts  --      1.1466                 1.0931                 1.3884
 IR Inten    --      7.3135                 2.5657                 3.9562

                     31                     32                     33
                      A                      A                      A
 Frequencies --   1262.7164              1286.9441              1344.2201
 Red. masses --      1.2600                 1.2555                 1.3138
 Frc consts  --      1.1837                 1.2252                 1.3987
 IR Inten    --      1.9881                 1.5633                 6.5736

                     34                     35                     36
                      A                      A                      A
 Frequencies --   1362.9273              1382.5825              1396.6293
 Red. masses --      1.4671                 1.3509                 1.2845
 Frc consts  --      1.6056                 1.5215                 1.4762
 IR Inten    --      1.2712                38.9511                 2.7778

                     37                     38                     39
                      A                      A                      A
 Frequencies --   1417.7497              1492.3575              1505.7317
 Red. masses --      1.2128                 1.1039                 1.0897
 Frc consts  --      1.4363                 1.4486                 1.4557
 IR Inten    --     30.1800                 3.4884                 1.5854

                     40                     41                     42
                      A                      A                      A
 Frequencies --   1533.6490              2234.8668              2991.2087
 Red. masses --      1.1092                 5.9339                 1.0801
 Frc consts  --      1.5372                17.4621                 5.6940
 IR Inten    --      1.0609                 1.2939                 3.0144

                     43                     44                     45
                      A                      A                      A
 Frequencies --   3012.8390              3019.1297              3022.3199
 Red. masses --      1.0802                 1.0633                 1.0610
 Frc consts  --      5.7771                 5.7106                 5.7104
 IR Inten    --     78.3781                30.3088                68.5535

                     46                     47                     48
                      A                      A                      A
 Frequencies --   3062.1648              3086.1038              3088.1399
 Red. masses --      1.1106                 1.0604                 1.1011
 Frc consts  --      6.1355                 5.9505                 6.1870
 IR Inten    --     33.3515                18.1017                25.9452

                     49                     50                     51
                      A                      A                      A
 Frequencies --   3142.2483              3504.6782              3817.0907
 Red. masses --      1.1084                 1.1619                 1.0662
 Frc consts  --      6.4478                 8.4081                 9.1529
 IR Inten    --     20.5998                66.2637                18.7648

 - Thermochemistry -
 -------------------
 Temperature   298.150 Kelvin.  Pressure   1.00000 Atm.
 Atom     1 has atomic number  8 and mass  15.99491

 Molecular mass:   126.06808 amu.
 Principal axes and moments of inertia in atomic units:
                           1         2         3
     Eigenvalues --   744.885231560.227662165.88742
           X            0.99989  -0.01420   0.00476
           Y            0.01417   0.99988   0.00619
           Z           -0.00485  -0.00612   0.99997
 This molecule is an asymmetric top.
 Rotational symmetry number  1.
 Warning -- assumption of classical behavior for rotation
           may cause significant error
 Rotational temperatures (Kelvin)      0.11628     0.05551     0.03999
 Rotational constants (GHZ):           2.42284     1.15672     0.83326
 Zero-point vibrational energy     413178.2 (Joules/Mol)
                                   98.75195 (Kcal/Mol)
 Warning -- explicit consideration of  12 degrees of freedom as
           vibrations may cause significant error
 Vibrational temperatures:    105.28   110.53   145.78   182.69   241.70
          (Kelvin)            299.13   434.49   480.65   515.41   649.04
                              704.11   828.39   915.34   927.00  1111.97
                             1196.21  1209.39  1306.89  1365.26  1418.15
                             1472.60  1477.05  1532.10  1573.94  1584.42
                             1633.59  1675.68  1719.04  1748.90  1810.28
                             1816.77  1851.62  1934.03  1960.95  1989.23
                             2009.44  2039.82  2147.17  2166.41  2206.58
                             3215.47  4303.68  4334.80  4343.85  4348.44
                             4405.77  4440.21  4443.14  4520.99  5042.44
                             5491.94

 Zero-point correction=                           0.157371 (Hartree/Particle)
 Thermal correction to Energy=                    0.167117
 Thermal correction to Enthalpy=                  0.168062
 Thermal correction to Gibbs Free Energy=         0.122008
 Sum of electronic and zero-point Energies=           -422.962408
 Sum of electronic and thermal Energies=              -422.952662
 Sum of electronic and thermal Enthalpies=            -422.951718
 Sum of electronic and thermal Free Energies=         -422.997772

                     E (Thermal)             CV                S
                      KCal/Mol        Cal/Mol-Kelvin    Cal/Mol-Kelvin
 Total                  104.868             34.868             96.929
 Electronic               0.000              0.000              0.000
 Translational            0.889              2.981             40.409
 Rotational               0.889              2.981             29.311
 Vibrational            103.090             28.906             27.209
 Vibration     1          0.599              1.967              4.066
 Vibration     2          0.599              1.965              3.971
 Vibration     3          0.604              1.948              3.429
 Vibration     4          0.611              1.926              2.991
 Vibration     5          0.625              1.882              2.458
 Vibration     6          0.641              1.829              2.062
 Vibration     7          0.694              1.670              1.406
 Vibration     8          0.716              1.607              1.240
 Vibration     9          0.733              1.558              1.130
 Vibration    10          0.810              1.358              0.792
 Vibration    11          0.845              1.274              0.685
 Vibration    12          0.932              1.084              0.493

 Optimization completed.
    -- Stationary point found.
 Normal termination of Gaussian 09 at Tue Jan 28 10:33:34 2020.
