 Gaussian 09, Revision D.01,
 Gaussian 09:  ES64L-G09RevD.01 24-Apr-2013

 -----------------------------
 # b3lyp 6-31G(2df,p) opt Freq
 -----------------------------

 -----
 titel
 -----
 Symbolic Z-matrix:
 Charge =  0 Multiplicity = 1

 SCF Done:  E(RB3LYP) =  -423.123299625     A.U. after   14 cycles
 SCF Done:  E(RB3LYP) =  -423.123299509     A.U. after    7 cycles
 SCF Done:  E(RB3LYP) =  -423.123299645     A.U. after    6 cycles
 Optimization completed.
    -- Stationary point found.
 Normal termination of Gaussian 09 at Tue Jan 28 08:27:12 2020.

 ----------------------------------------------------------------------
 #N Geom=AllCheck Guess=TCheck SCRF=Check GenChk RB3LYP/6-31G(2df,p) Fr
 eq
 ----------------------------------------------------------------------

 Structure from the checkpoint file:  "/scratch/puck/g09_5ca666d3-6b45-4bb3-9447-9b46cbe18f36/Gau-14760.chk"
 -----
 titel
 -----
 Charge =  0 Multiplicity = 1

                         Standard orientation:
 ---------------------------------------------------------------------
 Center     Atomic      Atomic             Coordinates (Angstroms)
 Number     Number       Type             X           Y           Z
 ---------------------------------------------------------------------
      1          6           0       -1.368219    2.106107    0.034429
      2          6           0       -1.150116    0.606927    0.274385
      3          6           0       -2.284886   -0.241983   -0.331007
      4          8           0       -2.278178   -1.576058    0.129362
      5          6           0        0.184424    0.176797   -0.303078
      6          8           0        0.562090   -1.198075   -0.136959
      7          6           0        1.342006   -0.190866    0.540822
      8          6           0        2.698426   -0.012167    0.101285
      9          6           0        3.838889    0.148145   -0.242020
     10          1           0       -2.300512    2.440165    0.498584
     11          1           0       -0.550502    2.701310    0.452578
     12          1           0       -1.428870    2.330355   -1.036733
     13          1           0       -1.148223    0.402858    1.352219
     14          1           0       -3.251122    0.184178   -0.037881
     15          1           0       -2.231148   -0.188206   -1.433176
     16          1           0       -1.374206   -1.903902    0.046497
     17          1           0        0.408948    0.560318   -1.299973
     18          1           0        1.195307   -0.178452    1.620199
     19          1           0        4.845881    0.286685   -0.550443
 ---------------------------------------------------------------------

 SCF Done:  E(RB3LYP) =  -423.123299645     A.U. after    1 cycles

 The electronic state is 1-A.
 Alpha  occ. eigenvalues --  -19.17303 -19.12133 -10.27179 -10.25434 -10.22610
 Alpha  occ. eigenvalues --  -10.20102 -10.19655 -10.19219 -10.18962  -1.09009
 Alpha  occ. eigenvalues --   -1.00622  -0.80575  -0.77625  -0.69534  -0.67944
 Alpha  occ. eigenvalues --   -0.65948  -0.59297  -0.55782  -0.51713  -0.50601
 Alpha  occ. eigenvalues --   -0.48243  -0.45033  -0.43887  -0.42703  -0.40366
 Alpha  occ. eigenvalues --   -0.39132  -0.36835  -0.36519  -0.35103  -0.31818
 Alpha  occ. eigenvalues --   -0.29240  -0.28699  -0.26901  -0.25646
 Alpha virt. eigenvalues --    0.01054   0.03087   0.08392   0.09567   0.10790
 Alpha virt. eigenvalues --    0.11613   0.12601   0.13962   0.15088   0.15957
 Alpha virt. eigenvalues --    0.16572   0.17023   0.18560   0.19952   0.22245

 Mulliken charges:
               1
     1  C   -0.410979
     2  C   -0.053002
     3  C   -0.039687
     4  O   -0.432480
     5  C    0.071412
     6  O   -0.255322
     7  C   -0.172262
     8  C    0.312258
     9  C   -0.401682
    10  H    0.125741
    11  H    0.124127
    12  H    0.123126
    13  H    0.087144
    14  H    0.102346
    15  H    0.081981
    16  H    0.297050
    17  H    0.108372
    18  H    0.125495
    19  H    0.206361
 Sum of Mulliken charges =   0.00000

 Dipole moment (field-independent basis, Debye):
    X=              1.4084    Y=              2.6471    Z=             -0.0158  Tot=              2.9985
 Quadrupole moment (field-independent basis, Debye-Ang):
   XX=            -51.4897   YY=            -57.0807   ZZ=            -51.8661
   XY=             -3.7237   XZ=             -0.0343   YZ=             -0.2443

  Exact polarizability: 111.973   0.265  66.047  -2.709  -1.988  61.091
 Approx polarizability: 153.229   5.690  97.099  -7.533  -3.913  95.264

                      1                      2                      3
                      A                      A                      A
 Frequencies --     57.6342               101.5726               145.5592
 Red. masses --      5.7460                 4.4178                 3.3850
 Frc consts  --      0.0112                 0.0269                 0.0423
 IR Inten    --      0.1100                 0.0739                 0.3647

                      4                      5                      6
                      A                      A                      A
 Frequencies --    160.2414               203.3233               226.6547
 Red. masses --      2.4613                 1.1401                 2.9399
 Frc consts  --      0.0372                 0.0278                 0.0890
 IR Inten    --      3.6656                 0.3686                 2.7631

                      7                      8                      9
                      A                      A                      A
 Frequencies --    250.2173               311.5467               388.6331
 Red. masses --      4.2531                 2.6735                 5.2105
 Frc consts  --      0.1569                 0.1529                 0.4637
 IR Inten    --      4.0543                 2.5547                 1.9949

                     10                     11                     12
                      A                      A                      A
 Frequencies --    417.2835               451.7981               510.6194
 Red. masses --      3.3250                 1.1389                 4.0453
 Frc consts  --      0.3411                 0.1370                 0.6214
 IR Inten    --      2.1908               103.6892                 9.7960

                     13                     14                     15
                      A                      A                      A
 Frequencies --    525.5119               573.7475               626.8716
 Red. masses --      3.8494                 6.8536                 1.2131
 Frc consts  --      0.6263                 1.3293                 0.2809
 IR Inten    --      6.0714                14.0972                43.7032

                     16                     17                     18
                      A                      A                      A
 Frequencies --    676.2168               810.6638               866.2610
 Red. masses --      1.2532                 5.0915                 2.0885
 Frc consts  --      0.3376                 1.9714                 0.9234
 IR Inten    --     33.7458                16.2290                 5.4736

                     19                     20                     21
                      A                      A                      A
 Frequencies --    896.2114               928.8552               949.9454
 Red. masses --      3.1320                 2.0801                 1.5173
 Frc consts  --      1.4821                 1.0574                 0.8067
 IR Inten    --     28.0279                32.1055                 5.1158

                     22                     23                     24
                      A                      A                      A
 Frequencies --   1005.2334              1075.8652              1083.3350
 Red. masses --      3.8148                 4.2325                 1.3791
 Frc consts  --      2.2712                 2.8865                 0.9536
 IR Inten    --     29.4993                30.3800                 1.3218

                     25                     26                     27
                      A                      A                      A
 Frequencies --   1098.0272              1132.9696              1154.2822
 Red. masses --      2.8836                 1.4649                 1.8090
 Frc consts  --      2.0484                 1.1079                 1.4201
 IR Inten    --     74.4851                 7.5223                 3.5196

                     28                     29                     30
                      A                      A                      A
 Frequencies --   1181.7184              1236.9156              1267.6561
 Red. masses --      1.9475                 1.1907                 1.5718
 Frc consts  --      1.6024                 1.0733                 1.4882
 IR Inten    --      2.3296                 8.1922                10.5648

                     31                     32                     33
                      A                      A                      A
 Frequencies --   1303.8880              1322.1141              1374.9504
 Red. masses --      1.3392                 1.2464                 1.3678
 Frc consts  --      1.3414                 1.2837                 1.5235
 IR Inten    --      0.9945                12.3254                16.9210

                     34                     35                     36
                      A                      A                      A
 Frequencies --   1387.6215              1408.1757              1451.4278
 Red. masses --      1.2505                 1.2268                 1.2914
 Frc consts  --      1.4186                 1.4333                 1.6029
 IR Inten    --      0.6665                 1.6998                62.5739

                     37                     38                     39
                      A                      A                      A
 Frequencies --   1466.6116              1497.0924              1499.7790
 Red. masses --      2.0772                 1.0559                 1.0671
 Frc consts  --      2.6324                 1.3943                 1.4142
 IR Inten    --     29.4778                 6.9989                 4.4569

                     40                     41                     42
                      A                      A                      A
 Frequencies --   1514.4759              2243.3357              2945.7389
 Red. masses --      1.1035                 5.9460                 1.0715
 Frc consts  --      1.4912                17.6304                 5.4782
 IR Inten    --      0.5589                 0.9656                58.1979

                     43                     44                     45
                      A                      A                      A
 Frequencies --   3032.2995              3036.0871              3058.6578
 Red. masses --      1.0458                 1.0724                 1.0907
 Frc consts  --      5.6656                 5.8244                 6.0118
 IR Inten    --      8.8380                24.0318                41.4088

                     46                     47                     48
                      A                      A                      A
 Frequencies --   3097.8632              3102.9696              3113.0690
 Red. masses --      1.0967                 1.0917                 1.1016
 Frc consts  --      6.2013                 6.1932                 6.2901
 IR Inten    --     11.9496                25.9230                24.8201

                     49                     50                     51
                      A                      A                      A
 Frequencies --   3120.1165              3502.2021              3778.3829
 Red. masses --      1.0855                 1.1626                 1.0657
 Frc consts  --      6.2263                 8.4016                 8.9642
 IR Inten    --     18.4085                76.4509                95.5148

 - Thermochemistry -
 -------------------
 Temperature   298.150 Kelvin.  Pressure   1.00000 Atm.
 Atom     1 has atomic number  6 and mass  12.00000

 Molecular mass:   126.06808 amu.
 Principal axes and moments of inertia in atomic units:
                           1         2         3
     Eigenvalues --   582.549891947.618542399.14145
           X            0.99982  -0.01905   0.00111
           Y            0.01905   0.99981  -0.00362
           Z           -0.00104   0.00364   0.99999
 This molecule is an asymmetric top.
 Rotational symmetry number  1.
 Warning -- assumption of classical behavior for rotation
           may cause significant error
 Rotational temperatures (Kelvin)      0.14868     0.04447     0.03610
 Rotational constants (GHZ):           3.09800     0.92664     0.75224
 Zero-point vibrational energy     410153.0 (Joules/Mol)
                                   98.02892 (Kcal/Mol)
 Warning -- explicit consideration of  14 degrees of freedom as
           vibrations may cause significant error
 Vibrational temperatures:     82.92   146.14   209.43   230.55   292.54
          (Kelvin)            326.11   360.01   448.25   559.16   600.38
                              650.04   734.67   756.09   825.49   901.93
                              972.92  1166.36  1246.35  1289.45  1336.41
                             1366.76  1446.30  1547.93  1558.68  1579.81
                             1630.09  1660.75  1700.23  1779.64  1823.87
                             1876.00  1902.22  1978.24  1996.48  2026.05
                             2088.28  2110.12  2153.98  2157.84  2178.99
                             3227.66  4238.26  4362.80  4368.25  4400.72
                             4457.13  4464.48  4479.01  4489.15  5038.88
                             5436.24

 Zero-point correction=                           0.156219 (Hartree/Particle)
 Thermal correction to Energy=                    0.166146
 Thermal correction to Enthalpy=                  0.167090
 Thermal correction to Gibbs Free Energy=         0.121142
 Sum of electronic and zero-point Energies=           -422.967081
 Sum of electronic and thermal Energies=              -422.957154
 Sum of electronic and thermal Enthalpies=            -422.956209
 Sum of electronic and thermal Free Energies=         -423.002158

                     E (Thermal)             CV                S
                      KCal/Mol        Cal/Mol-Kelvin    Cal/Mol-Kelvin
 Total                  104.258             36.274             96.706
 Electronic               0.000              0.000              0.000
 Translational            0.889              2.981             40.409
 Rotational               0.889              2.981             29.389
 Vibrational            102.481             30.312             26.909
 Vibration     1          0.596              1.974              4.537
 Vibration     2          0.604              1.948              3.424
 Vibration     3          0.617              1.907              2.729
 Vibration     4          0.622              1.891              2.547
 Vibration     5          0.639              1.835              2.103
 Vibration     6          0.650              1.800              1.905
 Vibration     7          0.663              1.762              1.729
 Vibration     8          0.700              1.652              1.354
 Vibration     9          0.757              1.494              1.005
 Vibration    10          0.780              1.433              0.901
 Vibration    11          0.810              1.357              0.790
 Vibration    12          0.866              1.226              0.632
 Vibration    13          0.880              1.194              0.597
 Vibration    14          0.930              1.088              0.497

 Optimization completed.
    -- Stationary point found.
 Normal termination of Gaussian 09 at Tue Jan 28 09:07:22 2020.
