 Gaussian 09, Revision D.01,
 Gaussian 09:  ES64L-G09RevD.01 24-Apr-2013

 -----------------------------
 # b3lyp 6-31G(2df,p) opt Freq
 -----------------------------

 -----
 titel
 -----
 Symbolic Z-matrix:
 Charge =  0 Multiplicity = 1

 SCF Done:  E(RB3LYP) =  -423.169736239     A.U. after   14 cycles
 Optimization completed.
    -- Stationary point found.
 Normal termination of Gaussian 09 at Mon Jan 27 17:06:38 2020.

 ----------------------------------------------------------------------
 #N Geom=AllCheck Guess=TCheck SCRF=Check GenChk RB3LYP/6-31G(2df,p) Fr
 eq
 ----------------------------------------------------------------------

 Structure from the checkpoint file:  "/scratch/puck/g09_f63ca525-c665-40a4-9172-9950811af6e2/Gau-179053.chk"
 -----
 titel
 -----
 Charge =  0 Multiplicity = 1

                         Standard orientation:
 ---------------------------------------------------------------------
 Center     Atomic      Atomic             Coordinates (Angstroms)
 Number     Number       Type             X           Y           Z
 ---------------------------------------------------------------------
      1          6           0       -2.076242    1.527592   -0.326898
      2          6           0       -1.306361    0.258233   -0.082644
      3          6           0       -1.068182   -0.479791    1.279449
      4          6           0       -0.312968   -1.335362    0.219462
      5          6           0       -1.557132   -1.157785   -0.696405
      6          6           0        0.184283   -0.010298   -0.402984
      7          8           0        1.106733    0.801665    0.339438
      8          6           0        2.406387    0.510621    0.184307
      9          8           0        2.860130   -0.373252   -0.488589
     10          1           0       -1.625031    2.366614    0.213024
     11          1           0       -2.091402    1.780969   -1.392622
     12          1           0       -3.113393    1.427997    0.009922
     13          1           0       -0.462176    0.041654    2.020768
     14          1           0       -1.949428   -0.942223    1.731838
     15          1           0        0.269245   -2.241250    0.377252
     16          1           0       -1.405880   -1.267462   -1.774549
     17          1           0       -2.467210   -1.662458   -0.365435
     18          1           0        0.491238   -0.034047   -1.450409
     19          1           0        3.000431    1.223643    0.777696
 ---------------------------------------------------------------------

 SCF Done:  E(RB3LYP) =  -423.169736239     A.U. after    1 cycles

 The electronic state is 1-A.
 Alpha  occ. eigenvalues --  -19.18772 -19.13219 -10.30735 -10.24584 -10.21309
 Alpha  occ. eigenvalues --  -10.20484 -10.19351 -10.18886 -10.18127  -1.10503
 Alpha  occ. eigenvalues --   -1.02151  -0.91890  -0.73336  -0.70559  -0.67335
 Alpha  occ. eigenvalues --   -0.60713  -0.59784  -0.53142  -0.52068  -0.47606
 Alpha  occ. eigenvalues --   -0.47310  -0.46635  -0.43402  -0.42201  -0.41147
 Alpha  occ. eigenvalues --   -0.40248  -0.36684  -0.34310  -0.32915  -0.31764
 Alpha  occ. eigenvalues --   -0.31257  -0.31170  -0.29221  -0.27732
 Alpha virt. eigenvalues --    0.00910   0.09697   0.11223   0.12094   0.13902
 Alpha virt. eigenvalues --    0.14175   0.14386   0.14899   0.15072   0.15459
 Alpha virt. eigenvalues --    0.16767   0.17051   0.17996   0.19861   0.22166

 Mulliken charges:
               1
     1  C   -0.517595
     2  C    0.280740
     3  C   -0.263841
     4  C   -0.085471
     5  C   -0.262125
     6  C    0.165839
     7  O   -0.236593
     8  C    0.169693
     9  O   -0.302200
    10  H    0.129071
    11  H    0.120700
    12  H    0.122272
    13  H    0.105318
    14  H    0.090349
    15  H    0.088087
    16  H    0.094688
    17  H    0.098944
    18  H    0.094630
    19  H    0.107496
 Sum of Mulliken charges =   0.00000

 Dipole moment (field-independent basis, Debye):
    X=             -1.9307    Y=              0.8382    Z=              0.5542  Tot=              2.1765
 Quadrupole moment (field-independent basis, Debye-Ang):
   XX=            -56.8100   YY=            -52.8835   ZZ=            -52.5513
   XY=              4.0328   XZ=              3.3715   YZ=             -0.6781

  Exact polarizability:  88.984   1.071  72.935   0.721   3.113  69.080
 Approx polarizability: 118.170  -2.315 109.291  -2.841   8.554 106.894

                      1                      2                      3
                      A                      A                      A
 Frequencies --     36.6155               140.9970               194.6669
 Red. masses --      6.6100                 3.6992                 1.3644
 Frc consts  --      0.0052                 0.0433                 0.0305
 IR Inten    --      1.3721                 1.7605                 1.6797

                      4                      5                      6
                      A                      A                      A
 Frequencies --    201.8835               234.1392               298.5087
 Red. masses --      2.3552                 2.4771                 2.3536
 Frc consts  --      0.0566                 0.0800                 0.1236
 IR Inten    --      4.1092                 4.0218                 1.9831

                      7                      8                      9
                      A                      A                      A
 Frequencies --    362.0967               431.0028               517.1454
 Red. masses --      3.2303                 3.1007                 2.5804
 Frc consts  --      0.2495                 0.3394                 0.4066
 IR Inten    --      7.5518                 4.7902                 1.2627

                     10                     11                     12
                      A                      A                      A
 Frequencies --    587.7318               635.6454               754.8939
 Red. masses --      2.4051                 3.3385                 3.4569
 Frc consts  --      0.4895                 0.7948                 1.1607
 IR Inten    --      1.3409                 0.6829                 2.8206

                     13                     14                     15
                      A                      A                      A
 Frequencies --    775.6749               832.6010               906.2371
 Red. masses --      3.7323                 3.3699                 1.9576
 Frc consts  --      1.3231                 1.3764                 0.9472
 IR Inten    --      1.5033                 2.0353                 1.7566

                     16                     17                     18
                      A                      A                      A
 Frequencies --    911.9080               922.8012               949.1941
 Red. masses --      2.1705                 2.1870                 2.1499
 Frc consts  --      1.0634                 1.0973                 1.1412
 IR Inten    --      0.7171                 7.5706                14.1884

                     19                     20                     21
                      A                      A                      A
 Frequencies --   1013.2373              1018.2670              1022.7567
 Red. masses --      1.5064                 1.2056                 1.3644
 Frc consts  --      0.9112                 0.7365                 0.8409
 IR Inten    --      7.9295                 8.2491                 9.3944

                     22                     23                     24
                      A                      A                      A
 Frequencies --   1045.5744              1059.6463              1093.6985
 Red. masses --      1.6780                 2.1589                 1.7688
 Frc consts  --      1.0808                 1.4283                 1.2466
 IR Inten    --      1.3260                19.0201                 7.4484

                     25                     26                     27
                      A                      A                      A
 Frequencies --   1104.7726              1145.2340              1184.6991
 Red. masses --      1.6093                 1.3931                 1.6556
 Frc consts  --      1.1572                 1.0765                 1.3691
 IR Inten    --      2.7029                 0.9667                20.1674

                     28                     29                     30
                      A                      A                      A
 Frequencies --   1199.6053              1201.0770              1226.1634
 Red. masses --      3.5669                 1.9849                 1.7788
 Frc consts  --      3.0242                 1.6871                 1.5757
 IR Inten    --    314.8988                99.9004                 1.2545

                     31                     32                     33
                      A                      A                      A
 Frequencies --   1234.6968              1254.1580              1337.8568
 Red. masses --      2.0502                 2.0743                 2.5300
 Frc consts  --      1.8415                 1.9224                 2.6681
 IR Inten    --     30.6386                21.4563                18.9162

                     34                     35                     36
                      A                      A                      A
 Frequencies --   1403.2446              1409.7870              1413.9660
 Red. masses --      1.2139                 1.1483                 1.5132
 Frc consts  --      1.4083                 1.3447                 1.7825
 IR Inten    --      9.8707                 1.2488                 6.4628

                     37                     38                     39
                      A                      A                      A
 Frequencies --   1488.7013              1491.9501              1496.4266
 Red. masses --      1.0495                 1.0494                 1.0884
 Frc consts  --      1.3704                 1.3763                 1.4360
 IR Inten    --      4.1271                 4.8738                 1.6229

                     40                     41                     42
                      A                      A                      A
 Frequencies --   1539.2161              1821.3718              3023.9177
 Red. masses --      1.1939                 9.5134                 1.0902
 Frc consts  --      1.6665                18.5944                 5.8735
 IR Inten    --      5.7514               277.4727                72.8566

                     43                     44                     45
                      A                      A                      A
 Frequencies --   3030.1193              3051.3849              3064.8607
 Red. masses --      1.0354                 1.0559                 1.0574
 Frc consts  --      5.6009                 5.7923                 5.8521
 IR Inten    --     25.7679                39.8413                38.2907

                     46                     47                     48
                      A                      A                      A
 Frequencies --   3096.6953              3097.7291              3101.9979
 Red. masses --      1.0890                 1.0976                 1.1010
 Frc consts  --      6.1527                 6.2057                 6.2420
 IR Inten    --      5.8373                31.1240                15.9428

                     49                     50                     51
                      A                      A                      A
 Frequencies --   3121.8643              3136.4603              3139.8056
 Red. masses --      1.1092                 1.0953                 1.1059
 Frc consts  --      6.3692                 6.3484                 6.4236
 IR Inten    --     34.3604                35.1808                27.6973

 - Thermochemistry -
 -------------------
 Temperature   298.150 Kelvin.  Pressure   1.00000 Atm.
 Atom     1 has atomic number  6 and mass  12.00000

 Molecular mass:   126.06808 amu.
 Principal axes and moments of inertia in atomic units:
                           1         2         3
     Eigenvalues --   564.786611517.588271720.23238
           X            0.99994  -0.00478   0.01024
           Y            0.00488   0.99995  -0.00888
           Z           -0.01020   0.00892   0.99991
 This molecule is an asymmetric top.
 Rotational symmetry number  1.
 Warning -- assumption of classical behavior for rotation
           may cause significant error
 Rotational temperatures (Kelvin)      0.15336     0.05707     0.05035
 Rotational constants (GHZ):           3.19544     1.18922     1.04913
 Zero-point vibrational energy     417285.5 (Joules/Mol)
                                   99.73362 (Kcal/Mol)
 Warning -- explicit consideration of  10 degrees of freedom as
           vibrations may cause significant error
 Vibrational temperatures:     52.68   202.86   280.08   290.46   336.87
          (Kelvin)            429.49   520.98   620.12   744.06   845.61
                              914.55  1086.12  1116.02  1197.93  1303.87
                             1312.03  1327.70  1365.68  1457.82  1465.06
                             1471.52  1504.35  1524.59  1573.59  1589.52
                             1647.73  1704.52  1725.96  1728.08  1764.17
                             1776.45  1804.45  1924.88  2018.95  2028.37
                             2034.38  2141.91  2146.58  2153.02  2214.59
                             2620.54  4350.74  4359.66  4390.26  4409.65
                             4455.45  4456.94  4463.08  4491.66  4512.66
                             4517.47

 Zero-point correction=                           0.158936 (Hartree/Particle)
 Thermal correction to Energy=                    0.167324
 Thermal correction to Enthalpy=                  0.168268
 Thermal correction to Gibbs Free Energy=         0.125246
 Sum of electronic and zero-point Energies=           -423.010801
 Sum of electronic and thermal Energies=              -423.002413
 Sum of electronic and thermal Enthalpies=            -423.001468
 Sum of electronic and thermal Free Energies=         -423.044491

                     E (Thermal)             CV                S
                      KCal/Mol        Cal/Mol-Kelvin    Cal/Mol-Kelvin
 Total                  104.997             31.538             90.548
 Electronic               0.000              0.000              0.000
 Translational            0.889              2.981             40.409
 Rotational               0.889              2.981             28.779
 Vibrational            103.220             25.576             21.360
 Vibration     1          0.594              1.982              5.434
 Vibration     2          0.615              1.912              2.790
 Vibration     3          0.635              1.847              2.183
 Vibration     4          0.639              1.837              2.116
 Vibration     5          0.654              1.789              1.847
 Vibration     6          0.692              1.676              1.425
 Vibration     7          0.736              1.550              1.113
 Vibration     8          0.792              1.403              0.855
 Vibration     9          0.872              1.212              0.617
 Vibration    10          0.945              1.058              0.471

 Optimization completed.
    -- Stationary point found.
 Normal termination of Gaussian 09 at Mon Jan 27 17:46:00 2020.
