 Gaussian 09, Revision D.01,
 Gaussian 09:  ES64L-G09RevD.01 24-Apr-2013

 -----------------------------
 # b3lyp 6-31G(2df,p) opt Freq
 -----------------------------

 -----
 titel
 -----
 Symbolic Z-matrix:
 Charge =  0 Multiplicity = 1

 SCF Done:  E(RB3LYP) =  -423.205094801     A.U. after   14 cycles
 Optimization completed.
    -- Stationary point found.
 Normal termination of Gaussian 09 at Mon Jan 27 23:07:13 2020.

 ----------------------------------------------------------------------
 #N Geom=AllCheck Guess=TCheck SCRF=Check GenChk RB3LYP/6-31G(2df,p) Fr
 eq
 ----------------------------------------------------------------------

 Structure from the checkpoint file:  "/scratch/puck/g09_6464b026-6be7-4c5f-a82a-3a0bcb6031fe/Gau-18431.chk"
 -----
 titel
 -----
 Charge =  0 Multiplicity = 1

                         Standard orientation:
 ---------------------------------------------------------------------
 Center     Atomic      Atomic             Coordinates (Angstroms)
 Number     Number       Type             X           Y           Z
 ---------------------------------------------------------------------
      1          6           0        2.127009   -0.759296    0.843919
      2          6           0        1.273458   -0.026689   -0.201242
      3          6           0        0.738102    1.313742    0.254862
      4          8           0       -0.000001    1.998713   -0.763096
      5          6           0       -0.738109    1.313742    0.254858
      6          6           0       -1.273459   -0.026693   -0.201243
      7          6           0       -2.127007   -0.759303    0.843920
      8          6           0        0.000001   -0.833816   -0.541010
      9          8           0        0.000004   -1.963960   -0.954145
     10          1           0        1.602219   -0.843562    1.801667
     11          1           0        2.354786   -1.768544    0.493292
     12          1           0        3.067793   -0.229606    1.020428
     13          1           0        1.853041    0.090227   -1.124429
     14          1           0        1.324936    1.947427    0.915814
     15          1           0       -1.324948    1.947425    0.915809
     16          1           0       -1.853042    0.090219   -1.124430
     17          1           0       -3.067792   -0.229615    1.020429
     18          1           0       -2.354781   -1.768552    0.493294
     19          1           0       -1.602215   -0.843566    1.801667
 ---------------------------------------------------------------------

 SCF Done:  E(RB3LYP) =  -423.205094801     A.U. after    1 cycles

 The electronic state is 1-A.
 Alpha  occ. eigenvalues --  -19.15756 -19.13630 -10.27080 -10.24300 -10.24269
 Alpha  occ. eigenvalues --  -10.20209 -10.20208 -10.19034 -10.19034  -1.08115
 Alpha  occ. eigenvalues --   -1.04636  -0.81993  -0.78463  -0.69315  -0.66107
 Alpha  occ. eigenvalues --   -0.64509  -0.58009  -0.54072  -0.50840  -0.47590
 Alpha  occ. eigenvalues --   -0.45340  -0.44849  -0.43946  -0.41819  -0.40899
 Alpha  occ. eigenvalues --   -0.38921  -0.38803  -0.37997  -0.35707  -0.35272
 Alpha  occ. eigenvalues --   -0.35015  -0.29983  -0.27380  -0.24444
 Alpha virt. eigenvalues --   -0.02266   0.08350   0.08486   0.11435   0.11807
 Alpha virt. eigenvalues --    0.12735   0.13602   0.15290   0.15490   0.16128
 Alpha virt. eigenvalues --    0.17358   0.17858   0.19254   0.19924   0.22076

 Mulliken charges:
               1
     1  C   -0.410512
     2  C   -0.128769
     3  C    0.031295
     4  O   -0.266509
     5  C    0.031295
     6  C   -0.128770
     7  C   -0.410512
     8  C    0.392679
     9  O   -0.321309
    10  H    0.120062
    11  H    0.146291
    12  H    0.122234
    13  H    0.118200
    14  H    0.098768
    15  H    0.098768
    16  H    0.118200
    17  H    0.122234
    18  H    0.146291
    19  H    0.120063
 Sum of Mulliken charges =   0.00000

 Dipole moment (field-independent basis, Debye):
    X=              0.0000    Y=              1.0166    Z=              2.3017  Tot=              2.5162
 Quadrupole moment (field-independent basis, Debye-Ang):
   XX=            -47.9203   YY=            -61.3912   ZZ=            -54.0333
   XY=              0.0000   XZ=              0.0000   YZ=              0.3943

  Exact polarizability:  84.658   0.000  74.732   0.000   2.703  63.231
 Approx polarizability: 114.220   0.000 113.380   0.000   4.107  99.716

                      1                      2                      3
                      A                      A                      A
 Frequencies --     41.2782               174.4630               202.4130
 Red. masses --      3.8620                 2.7705                 3.5571
 Frc consts  --      0.0039                 0.0497                 0.0859
 IR Inten    --      3.3498                 2.4198                 3.0849

                      4                      5                      6
                      A                      A                      A
 Frequencies --    218.7436               224.9400               254.5286
 Red. masses --      1.0753                 1.0352                 3.4949
 Frc consts  --      0.0303                 0.0309                 0.1334
 IR Inten    --      0.3788                 0.1353                 1.9577

                      7                      8                      9
                      A                      A                      A
 Frequencies --    260.9786               423.1508               461.1710
 Red. masses --      3.1156                 4.4788                 6.0244
 Frc consts  --      0.1250                 0.4725                 0.7549
 IR Inten    --      1.9641                10.2052                 8.6398

                     10                     11                     12
                      A                      A                      A
 Frequencies --    512.8167               596.5595               647.5651
 Red. masses --      3.6197                 4.7005                 4.5861
 Frc consts  --      0.5609                 0.9856                 1.1331
 IR Inten    --      0.9028                 7.1998                 3.0571

                     13                     14                     15
                      A                      A                      A
 Frequencies --    690.0831               775.6044               846.4189
 Red. masses --      4.1307                 2.5859                 1.9703
 Frc consts  --      1.1590                 0.9165                 0.8317
 IR Inten    --      2.4586                 0.4907                27.6919

                     16                     17                     18
                      A                      A                      A
 Frequencies --    861.4546               909.5584               921.3159
 Red. masses --      5.2757                 2.3158                 2.0556
 Frc consts  --      2.3067                 1.1288                 1.0280
 IR Inten    --      0.1584                20.7176                16.9885

                     19                     20                     21
                      A                      A                      A
 Frequencies --    977.0825              1026.8512              1037.1096
 Red. masses --      1.5526                 1.3484                 2.2325
 Frc consts  --      0.8733                 0.8377                 1.4148
 IR Inten    --     16.6614                 6.6185                 0.7053

                     22                     23                     24
                      A                      A                      A
 Frequencies --   1056.5491              1071.2839              1122.6968
 Red. masses --      1.2528                 2.2688                 2.6579
 Frc consts  --      0.8240                 1.5341                 1.9739
 IR Inten    --      6.2429                 6.9023                 0.7939

                     25                     26                     27
                      A                      A                      A
 Frequencies --   1144.4257              1149.3009              1159.9274
 Red. masses --      2.5841                 1.8503                 1.4860
 Frc consts  --      1.9941                 1.4400                 1.1780
 IR Inten    --     48.9423                 2.3327                 0.0074

                     28                     29                     30
                      A                      A                      A
 Frequencies --   1248.8715              1267.6792              1280.8767
 Red. masses --      1.3930                 1.7620                 1.5472
 Frc consts  --      1.2800                 1.6683                 1.4956
 IR Inten    --      3.8182                 3.5690                 4.7844

                     31                     32                     33
                      A                      A                      A
 Frequencies --   1287.1372              1323.3046              1355.3048
 Red. masses --      1.3123                 1.6131                 1.6927
 Frc consts  --      1.2810                 1.6643                 1.8319
 IR Inten    --      3.1063                 0.7665                11.2345

                     34                     35                     36
                      A                      A                      A
 Frequencies --   1402.0668              1406.3682              1429.9290
 Red. masses --      1.2900                 1.2261                 2.9034
 Frc consts  --      1.4940                 1.4288                 3.4977
 IR Inten    --      1.3181                 2.2151                17.5317

                     37                     38                     39
                      A                      A                      A
 Frequencies --   1495.9947              1500.0808              1500.4516
 Red. masses --      1.0498                 1.0485                 1.0497
 Frc consts  --      1.3843                 1.3901                 1.3924
 IR Inten    --      5.1351                 6.8244                 7.4265

                     40                     41                     42
                      A                      A                      A
 Frequencies --   1502.1061              1840.3613              3037.7598
 Red. masses --      1.0486                12.6641                 1.0382
 Frc consts  --      1.3940                25.2715                 5.6445
 IR Inten    --      3.1075               159.3790                13.3652

                     43                     44                     45
                      A                      A                      A
 Frequencies --   3039.0044              3046.8620              3047.9358
 Red. masses --      1.0381                 1.0798                 1.0810
 Frc consts  --      5.6485                 5.9058                 5.9167
 IR Inten    --     20.6661                 0.0024                16.9539

                     46                     47                     48
                      A                      A                      A
 Frequencies --   3104.9212              3106.5189              3129.9104
 Red. masses --      1.1011                 1.1012                 1.1010
 Frc consts  --      6.2540                 6.2615                 6.3550
 IR Inten    --     35.9712                12.9302                 0.3915

                     49                     50                     51
                      A                      A                      A
 Frequencies --   3130.3535              3135.9913              3147.8332
 Red. masses --      1.1013                 1.0871                 1.0950
 Frc consts  --      6.3580                 6.2991                 6.3926
 IR Inten    --     17.1699                16.4611                31.3290

 - Thermochemistry -
 -------------------
 Temperature   298.150 Kelvin.  Pressure   1.00000 Atm.
 Atom     1 has atomic number  6 and mass  12.00000

 Molecular mass:   126.06808 amu.
 Principal axes and moments of inertia in atomic units:
                           1         2         3
     Eigenvalues --   945.54225 951.376691467.99170
           X            1.00000   0.00002   0.00000
           Y           -0.00002   0.99991  -0.01348
           Z            0.00000   0.01348   0.99991
 This molecule is an asymmetric top.
 Rotational symmetry number  1.
 Warning -- assumption of classical behavior for rotation
           may cause significant error
 Rotational temperatures (Kelvin)      0.09160     0.09104     0.05900
 Rotational constants (GHZ):           1.90868     1.89698     1.22939
 Zero-point vibrational energy     415917.0 (Joules/Mol)
                                   99.40655 (Kcal/Mol)
 Warning -- explicit consideration of  11 degrees of freedom as
           vibrations may cause significant error
 Vibrational temperatures:     59.39   251.01   291.23   314.72   323.64
          (Kelvin)            366.21   375.49   608.82   663.52   737.83
                              858.32   931.70   992.87  1115.92  1217.81
                             1239.44  1308.65  1325.57  1405.80  1477.41
                             1492.17  1520.14  1541.34  1615.31  1646.57
                             1653.59  1668.87  1796.85  1823.91  1842.89
                             1851.90  1903.94  1949.98  2017.26  2023.45
                             2057.35  2152.40  2158.28  2158.81  2161.19
                             2647.87  4370.65  4372.44  4383.75  4385.29
                             4467.28  4469.58  4503.24  4503.87  4511.99
                             4529.02

 Zero-point correction=                           0.158414 (Hartree/Particle)
 Thermal correction to Energy=                    0.167110
 Thermal correction to Enthalpy=                  0.168055
 Thermal correction to Gibbs Free Energy=         0.124745
 Sum of electronic and zero-point Energies=           -423.046680
 Sum of electronic and thermal Energies=              -423.037984
 Sum of electronic and thermal Enthalpies=            -423.037040
 Sum of electronic and thermal Free Energies=         -423.080350

                     E (Thermal)             CV                S
                      KCal/Mol        Cal/Mol-Kelvin    Cal/Mol-Kelvin
 Total                  104.863             32.580             91.152
 Electronic               0.000              0.000              0.000
 Translational            0.889              2.981             40.409
 Rotational               0.889              2.981             28.670
 Vibrational            103.086             26.619             22.074
 Vibration     1          0.594              1.981              5.197
 Vibration     2          0.627              1.874              2.387
 Vibration     3          0.639              1.836              2.111
 Vibration     4          0.647              1.813              1.969
 Vibration     5          0.650              1.803              1.919
 Vibration     6          0.665              1.755              1.699
 Vibration     7          0.669              1.744              1.655
 Vibration     8          0.785              1.420              0.881
 Vibration     9          0.819              1.336              0.763
 Vibration    10          0.868              1.222              0.627
 Vibration    11          0.954              1.039              0.456

 Optimization completed.
    -- Stationary point found.
 Normal termination of Gaussian 09 at Mon Jan 27 23:53:49 2020.
