 Gaussian 09, Revision D.01,
 Gaussian 09:  ES64L-G09RevD.01 24-Apr-2013

 -----------------------------
 # b3lyp 6-31G(2df,p) opt Freq
 -----------------------------

 -----
 titel
 -----
 Symbolic Z-matrix:
 Charge =  0 Multiplicity = 1

 SCF Done:  E(RB3LYP) =  -423.172881836     A.U. after   14 cycles
 Optimization completed.
    -- Stationary point found.
 Normal termination of Gaussian 09 at Mon Jan 27 17:36:14 2020.

 ----------------------------------------------------------------------
 #N Geom=AllCheck Guess=TCheck SCRF=Check GenChk RB3LYP/6-31G(2df,p) Fr
 eq
 ----------------------------------------------------------------------

 Structure from the checkpoint file:  "/scratch/puck/g09_96fa0d81-3cee-47bd-9bba-617bd580b57c/Gau-39516.chk"
 -----
 titel
 -----
 Charge =  0 Multiplicity = 1

                         Standard orientation:
 ---------------------------------------------------------------------
 Center     Atomic      Atomic             Coordinates (Angstroms)
 Number     Number       Type             X           Y           Z
 ---------------------------------------------------------------------
      1          6           0       -2.525483    0.030106   -0.587114
      2          6           0       -1.120623    0.068462   -0.032296
      3          6           0       -0.367717    1.374827   -0.233690
      4          6           0        1.001857    1.411542    0.455805
      5          6           0        1.818610    0.162248    0.204230
      6          8           0        1.725005   -0.445823   -1.088635
      7          6           0        1.147360   -1.130724    0.041395
      8          6           0       -0.347759   -1.175607    0.097006
      9          8           0       -0.959264   -0.561003    1.250497
     10          1           0       -2.522678    0.222200   -1.665254
     11          1           0       -2.988148   -0.943100   -0.406024
     12          1           0       -3.145496    0.797520   -0.110680
     13          1           0       -0.241957    1.519956   -1.312239
     14          1           0       -0.983814    2.206960    0.127725
     15          1           0        1.559475    2.293524    0.120589
     16          1           0        0.874584    1.506816    1.539903
     17          1           0        2.826621    0.164203    0.620429
     18          1           0        1.672203   -2.043859    0.319084
     19          1           0       -0.814195   -2.114740   -0.200448
 ---------------------------------------------------------------------

 SCF Done:  E(RB3LYP) =  -423.172881836     A.U. after    1 cycles

 The electronic state is 1-A.
 Alpha  occ. eigenvalues --  -19.15002 -19.14695 -10.24280 -10.23786 -10.23675
 Alpha  occ. eigenvalues --  -10.23483 -10.18933 -10.18841 -10.18249  -1.07583
 Alpha  occ. eigenvalues --   -1.05886  -0.79562  -0.74661  -0.71637  -0.67770
 Alpha  occ. eigenvalues --   -0.61361  -0.59427  -0.53636  -0.52158  -0.48220
 Alpha  occ. eigenvalues --   -0.46061  -0.45026  -0.42928  -0.41838  -0.40475
 Alpha  occ. eigenvalues --   -0.39145  -0.38893  -0.36929  -0.34341  -0.34241
 Alpha  occ. eigenvalues --   -0.29664  -0.28493  -0.27673  -0.25813
 Alpha virt. eigenvalues --    0.06597   0.08841   0.10881   0.11110   0.12119
 Alpha virt. eigenvalues --    0.12619   0.14806   0.15168   0.15744   0.16887
 Alpha virt. eigenvalues --    0.18008   0.18691   0.20311   0.20672   0.21914

 Mulliken charges:
               1
     1  C   -0.467841
     2  C    0.405697
     3  C   -0.278277
     4  C   -0.255552
     5  C    0.063393
     6  O   -0.262662
     7  C    0.027904
     8  C   -0.035376
     9  O   -0.298215
    10  H    0.125849
    11  H    0.126980
    12  H    0.125103
    13  H    0.122275
    14  H    0.101326
    15  H    0.105386
    16  H    0.123676
    17  H    0.091551
    18  H    0.092344
    19  H    0.086439
 Sum of Mulliken charges =   0.00000

 Dipole moment (field-independent basis, Debye):
    X=             -0.2657    Y=              0.4933    Z=             -0.0513  Tot=              0.5627
 Quadrupole moment (field-independent basis, Debye-Ang):
   XX=            -51.9783   YY=            -48.9664   ZZ=            -57.7544
   XY=             -0.0132   XZ=              5.6509   YZ=              0.3832

  Exact polarizability:  82.165  -0.554  78.332   3.434   0.272  60.631
 Approx polarizability: 105.701  -1.173 114.356  -1.536  -0.026 104.820

                      1                      2                      3
                      A                      A                      A
 Frequencies --    148.8907               181.6072               204.4746
 Red. masses --      2.7040                 1.9647                 1.3309
 Frc consts  --      0.0353                 0.0382                 0.0328
 IR Inten    --      2.6499                 3.5025                 1.6275

                      4                      5                      6
                      A                      A                      A
 Frequencies --    287.4347               335.2291               366.5270
 Red. masses --      2.8915                 2.3876                 3.2106
 Frc consts  --      0.1408                 0.1581                 0.2541
 IR Inten    --      2.4467                 2.3801                 7.1049

                      7                      8                      9
                      A                      A                      A
 Frequencies --    389.3607               410.5814               559.0024
 Red. masses --      5.2545                 2.6996                 5.1369
 Frc consts  --      0.4693                 0.2681                 0.9458
 IR Inten    --      1.0989                 3.8487                 2.1480

                     10                     11                     12
                      A                      A                      A
 Frequencies --    614.2648               675.8675               695.7594
 Red. masses --      4.3311                 2.8078                 3.3917
 Frc consts  --      0.9629                 0.7557                 0.9673
 IR Inten    --      9.0871                 2.6011                 3.0875

                     13                     14                     15
                      A                      A                      A
 Frequencies --    781.6485               800.0087               851.6484
 Red. masses --      4.7692                 2.9816                 2.5818
 Frc consts  --      1.7168                 1.1243                 1.1033
 IR Inten    --     10.5870                 7.3619                23.3801

                     16                     17                     18
                      A                      A                      A
 Frequencies --    893.8265               906.0939               957.7534
 Red. masses --      3.5264                 2.4142                 2.3163
 Frc consts  --      1.6599                 1.1678                 1.2519
 IR Inten    --     23.1627                 4.8006                 1.0699

                     19                     20                     21
                      A                      A                      A
 Frequencies --    971.7138              1011.9924              1046.7261
 Red. masses --      2.1604                 2.0808                 1.5582
 Frc consts  --      1.2019                 1.2556                 1.0059
 IR Inten    --     18.4769                 1.7021                10.5634

                     22                     23                     24
                      A                      A                      A
 Frequencies --   1051.6437              1084.3573              1101.0939
 Red. masses --      1.9014                 1.3753                 1.4374
 Frc consts  --      1.2390                 0.9528                 1.0267
 IR Inten    --      2.6452                10.9330                 3.0211

                     25                     26                     27
                      A                      A                      A
 Frequencies --   1114.6949              1157.0659              1220.8260
 Red. masses --      2.4488                 1.5601                 1.6472
 Frc consts  --      1.7927                 1.2306                 1.4465
 IR Inten    --      0.4174                 2.4170                15.7537

                     28                     29                     30
                      A                      A                      A
 Frequencies --   1236.0413              1272.4414              1284.7989
 Red. masses --      1.3173                 1.5484                 1.3304
 Frc consts  --      1.1857                 1.4771                 1.2939
 IR Inten    --      4.3522                 5.1033                 7.8138

                     31                     32                     33
                      A                      A                      A
 Frequencies --   1329.8236              1371.3200              1383.1597
 Red. masses --      1.3100                 1.6394                 1.4318
 Frc consts  --      1.3649                 1.8164                 1.6139
 IR Inten    --      3.0599                 1.0395                 1.2331

                     34                     35                     36
                      A                      A                      A
 Frequencies --   1394.8239              1410.8296              1461.9846
 Red. masses --      1.6844                 1.2739                 1.3637
 Frc consts  --      1.9308                 1.4939                 1.7174
 IR Inten    --      1.9376                 5.7851                10.6046

                     37                     38                     39
                      A                      A                      A
 Frequencies --   1468.5401              1481.0324              1485.6537
 Red. masses --      1.6934                 1.1722                 1.3218
 Frc consts  --      2.1516                 1.5149                 1.7188
 IR Inten    --     11.3521                 3.2260                 1.6663

                     40                     41                     42
                      A                      A                      A
 Frequencies --   1490.6406              1512.3331              3031.0175
 Red. masses --      1.2765                 1.7520                 1.0550
 Frc consts  --      1.6711                 2.3610                 5.7108
 IR Inten    --      8.9738                 4.2924                 3.5375

                     43                     44                     45
                      A                      A                      A
 Frequencies --   3035.8619              3042.2809              3069.4860
 Red. masses --      1.0431                 1.0592                 1.1015
 Frc consts  --      5.6640                 5.7762                 6.1148
 IR Inten    --     33.1940                36.4436                 8.5270

                     46                     47                     48
                      A                      A                      A
 Frequencies --   3085.1803              3099.3076              3102.2316
 Red. masses --      1.1012                 1.1003                 1.0859
 Frc consts  --      6.1755                 6.2271                 6.1574
 IR Inten    --     18.6325                20.6800                 8.3160

                     49                     50                     51
                      A                      A                      A
 Frequencies --   3107.0062              3122.9971              3125.0862
 Red. masses --      1.0873                 1.1001                 1.0933
 Frc consts  --      6.1841                 6.3215                 6.2909
 IR Inten    --     51.4954                 7.2661                56.7231

 - Thermochemistry -
 -------------------
 Temperature   298.150 Kelvin.  Pressure   1.00000 Atm.
 Atom     1 has atomic number  6 and mass  12.00000

 Molecular mass:   126.06808 amu.
 Principal axes and moments of inertia in atomic units:
                           1         2         3
     Eigenvalues --   611.539171161.094591350.73567
           X            0.99885   0.00410   0.04780
           Y           -0.00472   0.99991   0.01289
           Z           -0.04774  -0.01310   0.99877
 This molecule is an asymmetric top.
 Rotational symmetry number  1.
 Warning -- assumption of classical behavior for rotation
           may cause significant error
 Rotational temperatures (Kelvin)      0.14163     0.07460     0.06412
 Rotational constants (GHZ):           2.95115     1.55434     1.33612
 Zero-point vibrational energy     420032.6 (Joules/Mol)
                                  100.39021 (Kcal/Mol)
 Warning -- explicit consideration of  10 degrees of freedom as
           vibrations may cause significant error
 Vibrational temperatures:    214.22   261.29   294.19   413.55   482.32
          (Kelvin)            527.35   560.20   590.73   804.28   883.79
                              972.42  1001.04  1124.62  1151.03  1225.33
                             1286.02  1303.67  1377.99  1398.08  1456.03
                             1506.00  1513.08  1560.15  1584.23  1603.80
                             1664.76  1756.49  1778.39  1830.76  1848.54
                             1913.32  1973.02  1990.06  2006.84  2029.87
                             2103.47  2112.90  2130.87  2137.52  2144.70
                             2175.91  4360.95  4367.92  4377.16  4416.30
                             4438.88  4459.21  4463.41  4470.28  4493.29
                             4496.30

 Zero-point correction=                           0.159982 (Hartree/Particle)
 Thermal correction to Energy=                    0.167691
 Thermal correction to Enthalpy=                  0.168635
 Thermal correction to Gibbs Free Energy=         0.128212
 Sum of electronic and zero-point Energies=           -423.012900
 Sum of electronic and thermal Energies=              -423.005191
 Sum of electronic and thermal Enthalpies=            -423.004247
 Sum of electronic and thermal Free Energies=         -423.044670

                     E (Thermal)             CV                S
                      KCal/Mol        Cal/Mol-Kelvin    Cal/Mol-Kelvin
 Total                  105.228             30.754             85.077
 Electronic               0.000              0.000              0.000
 Translational            0.889              2.981             40.409
 Rotational               0.889              2.981             28.352
 Vibrational            103.450             24.793             16.316
 Vibration     1          0.618              1.904              2.686
 Vibration     2          0.630              1.865              2.312
 Vibration     3          0.640              1.834              2.092
 Vibration     4          0.685              1.697              1.489
 Vibration     5          0.716              1.605              1.235
 Vibration     6          0.739              1.541              1.094
 Vibration     7          0.757              1.493              1.003
 Vibration     8          0.775              1.447              0.925
 Vibration     9          0.915              1.120              0.526
 Vibration    10          0.974              1.002              0.426

 Optimization completed.
    -- Stationary point found.
 Normal termination of Gaussian 09 at Mon Jan 27 18:33:27 2020.
