 Gaussian 09, Revision D.01,
 Gaussian 09:  ES64L-G09RevD.01 24-Apr-2013

 -----------------------------
 # b3lyp 6-31G(2df,p) opt Freq
 -----------------------------

 -----
 titel
 -----
 Symbolic Z-matrix:
 Charge =  0 Multiplicity = 1

 SCF Done:  E(RB3LYP) =  -423.156978034     A.U. after   14 cycles
 Optimization completed.
    -- Stationary point found.
 Normal termination of Gaussian 09 at Tue Jan 28 08:14:26 2020.

 ----------------------------------------------------------------------
 #N Geom=AllCheck Guess=TCheck SCRF=Check GenChk RB3LYP/6-31G(2df,p) Fr
 eq
 ----------------------------------------------------------------------

 Structure from the checkpoint file:  "/scratch/puck/g09_e863cfed-813c-40a3-93b6-8b4db53d69a1/Gau-17958.chk"
 -----
 titel
 -----
 Charge =  0 Multiplicity = 1

                         Standard orientation:
 ---------------------------------------------------------------------
 Center     Atomic      Atomic             Coordinates (Angstroms)
 Number     Number       Type             X           Y           Z
 ---------------------------------------------------------------------
      1          8           0        1.693422    0.268805    1.250377
      2          6           0        1.616678    0.058251   -0.163269
      3          6           0        0.974191   -1.307207   -0.508889
      4          8           0       -0.434622   -1.335085   -0.610221
      5          6           0       -1.134210   -0.757173    0.450728
      6          6           0       -2.396133   -0.056023    0.044148
      7          6           0       -1.195708    0.745493    0.521997
      8          6           0       -0.381623    1.536771   -0.437998
      9          6           0        0.874662    1.231451   -0.762331
     10          1           0        2.185765   -0.468920    1.626809
     11          1           0        2.635861    0.029868   -0.580520
     12          1           0        1.333020   -1.638715   -1.489145
     13          1           0        1.325456   -2.042114    0.237766
     14          1           0       -1.110281   -1.325647    1.380611
     15          1           0       -2.606142   -0.054051   -1.019719
     16          1           0       -3.266095   -0.123250    0.687708
     17          1           0       -1.285072    1.176130    1.516841
     18          1           0       -0.846943    2.418312   -0.876232
     19          1           0        1.416886    1.849261   -1.471684
 ---------------------------------------------------------------------

 SCF Done:  E(RB3LYP) =  -423.156978034     A.U. after    1 cycles

 The electronic state is 1-A.
 Alpha  occ. eigenvalues --  -19.14142 -19.13409 -10.23572 -10.22940 -10.22864
 Alpha  occ. eigenvalues --  -10.18631 -10.18340 -10.18020 -10.17782  -1.04000
 Alpha  occ. eigenvalues --   -1.01269  -0.85105  -0.78571  -0.71282  -0.66021
 Alpha  occ. eigenvalues --   -0.59937  -0.56805  -0.54200  -0.51434  -0.50190
 Alpha  occ. eigenvalues --   -0.47114  -0.45176  -0.44370  -0.42093  -0.41102
 Alpha  occ. eigenvalues --   -0.37766  -0.36836  -0.34834  -0.31687  -0.31079
 Alpha  occ. eigenvalues --   -0.28474  -0.27879  -0.24293  -0.23570
 Alpha virt. eigenvalues --    0.01022   0.07340   0.10404   0.10944   0.12665
 Alpha virt. eigenvalues --    0.13484   0.14835   0.15915   0.16605   0.17364
 Alpha virt. eigenvalues --    0.17587   0.18739   0.20702   0.22622   0.24956

 Mulliken charges:
               1
     1  O   -0.428100
     2  C    0.023800
     3  C   -0.084529
     4  O   -0.241623
     5  C    0.117420
     6  C   -0.328864
     7  C   -0.079017
     8  C   -0.059786
     9  C   -0.042057
    10  H    0.276477
    11  H    0.068771
    12  H    0.109501
    13  H    0.073084
    14  H    0.078828
    15  H    0.123611
    16  H    0.110369
    17  H    0.102335
    18  H    0.090713
    19  H    0.089066
 Sum of Mulliken charges =   0.00000

 Dipole moment (field-independent basis, Debye):
    X=              0.9470    Y=             -0.5362    Z=              0.3033  Tot=              1.1297
 Quadrupole moment (field-independent basis, Debye-Ang):
   XX=            -48.3263   YY=            -53.9413   ZZ=            -52.1820
   XY=             -4.5551   XZ=             -2.0614   YZ=             -4.0329

  Exact polarizability:  92.364  -5.284  71.867  -5.749  -4.698  66.720
 Approx polarizability: 132.207  -9.065 104.266  -8.422  -3.394 102.523

                      1                      2                      3
                      A                      A                      A
 Frequencies --    125.8570               180.9109               221.4900
 Red. masses --      3.4308                 3.1374                 3.6820
 Frc consts  --      0.0320                 0.0605                 0.1064
 IR Inten    --      0.5583                 3.8321                 0.6988

                      4                      5                      6
                      A                      A                      A
 Frequencies --    285.3985               316.5814               330.3000
 Red. masses --      1.1756                 3.8685                 2.2555
 Frc consts  --      0.0564                 0.2284                 0.1450
 IR Inten    --    112.7886                 6.3062                 2.5977

                      7                      8                      9
                      A                      A                      A
 Frequencies --    374.5349               442.8752               464.0078
 Red. masses --      3.5724                 3.9715                 2.9800
 Frc consts  --      0.2953                 0.4590                 0.3780
 IR Inten    --      6.3937                 2.2923                 2.5050

                     10                     11                     12
                      A                      A                      A
 Frequencies --    582.6961               689.5439               754.9456
 Red. masses --      3.3776                 2.2344                 1.8256
 Frc consts  --      0.6757                 0.6259                 0.6130
 IR Inten    --      5.5659                 4.1314                 0.6652

                     13                     14                     15
                      A                      A                      A
 Frequencies --    773.9109               790.6249               821.9433
 Red. masses --      2.7870                 2.6510                 1.8475
 Frc consts  --      0.9835                 0.9763                 0.7354
 IR Inten    --     22.9888                 3.9678                15.1334

                     16                     17                     18
                      A                      A                      A
 Frequencies --    846.0594               884.1865               951.1705
 Red. masses --      2.1815                 3.7248                 2.2779
 Frc consts  --      0.9200                 1.7157                 1.2142
 IR Inten    --      8.2166                14.8918                14.0942

                     19                     20                     21
                      A                      A                      A
 Frequencies --    971.3109               988.8403              1014.5016
 Red. masses --      2.7639                 1.2925                 2.2508
 Frc consts  --      1.5363                 0.7446                 1.3649
 IR Inten    --     29.5241                 1.3077                 5.3253

                     22                     23                     24
                      A                      A                      A
 Frequencies --   1043.9229              1066.2847              1096.2341
 Red. masses --      1.6006                 2.0685                 1.9006
 Frc consts  --      1.0277                 1.3857                 1.3457
 IR Inten    --     24.7607                13.4911                 0.8606

                     25                     26                     27
                      A                      A                      A
 Frequencies --   1112.4893              1119.8515              1129.4505
 Red. masses --      1.4908                 1.6622                 2.8697
 Frc consts  --      1.0871                 1.2281                 2.1568
 IR Inten    --     13.2716                12.8288                33.1510

                     28                     29                     30
                      A                      A                      A
 Frequencies --   1171.8467              1220.6699              1229.0996
 Red. masses --      2.0542                 1.4821                 1.2133
 Frc consts  --      1.6620                 1.3012                 1.0800
 IR Inten    --     22.8810                16.0694                18.0497

                     31                     32                     33
                      A                      A                      A
 Frequencies --   1253.3762              1284.0203              1345.3569
 Red. masses --      1.1545                 1.2187                 1.2952
 Frc consts  --      1.0686                 1.1839                 1.3813
 IR Inten    --     56.1288                29.8125                 5.1137

                     34                     35                     36
                      A                      A                      A
 Frequencies --   1361.5735              1387.2364              1408.7632
 Red. masses --      1.2842                 1.4028                 1.4242
 Frc consts  --      1.4027                 1.5906                 1.6653
 IR Inten    --      2.6034                17.2105                 1.9163

                     37                     38                     39
                      A                      A                      A
 Frequencies --   1415.1137              1453.3409              1478.9057
 Red. masses --      1.5607                 1.5206                 1.3322
 Frc consts  --      1.8414                 1.8923                 1.7168
 IR Inten    --      2.0805                10.6730                 7.6306

                     40                     41                     42
                      A                      A                      A
 Frequencies --   1488.7368              1714.3662              2941.8116
 Red. masses --      1.2168                 7.2066                 1.0715
 Frc consts  --      1.5889                12.4792                 5.4633
 IR Inten    --      6.8839                 7.0946                71.6534

                     43                     44                     45
                      A                      A                      A
 Frequencies --   2969.2482              3070.2186              3097.0400
 Red. masses --      1.0843                 1.0901                 1.0870
 Frc consts  --      5.6326                 6.0542                 6.1429
 IR Inten    --     72.6830                37.5325                32.1596

                     46                     47                     48
                      A                      A                      A
 Frequencies --   3127.5829              3134.0737              3137.3892
 Red. masses --      1.0844                 1.0814                 1.0613
 Frc consts  --      6.2494                 6.2581                 6.1550
 IR Inten    --     13.0126                14.0422                15.4340

                     49                     50                     51
                      A                      A                      A
 Frequencies --   3175.4970              3228.4859              3798.4127
 Red. masses --      1.0945                 1.1172                 1.0659
 Frc consts  --      6.5024                 6.8608                 9.0607
 IR Inten    --     26.2247                 8.1903                 9.0176

 - Thermochemistry -
 -------------------
 Temperature   298.150 Kelvin.  Pressure   1.00000 Atm.
 Atom     1 has atomic number  8 and mass  15.99491

 Molecular mass:   126.06808 amu.
 Principal axes and moments of inertia in atomic units:
                           1         2         3
     Eigenvalues --   689.626571093.158251331.87907
           X            0.99883  -0.04365  -0.02090
           Y            0.04247   0.99764  -0.05387
           Z            0.02321   0.05292   0.99833
 This molecule is an asymmetric top.
 Rotational symmetry number  1.
 Warning -- assumption of classical behavior for rotation
           may cause significant error
 Rotational temperatures (Kelvin)      0.12560     0.07923     0.06503
 Rotational constants (GHZ):           2.61698     1.65094     1.35503
 Zero-point vibrational energy     420320.4 (Joules/Mol)
                                  100.45899 (Kcal/Mol)
 Warning -- explicit consideration of  10 degrees of freedom as
           vibrations may cause significant error
 Vibrational temperatures:    181.08   260.29   318.67   410.62   455.49
          (Kelvin)            475.23   538.87   637.20   667.60   838.37
                              992.10  1086.20  1113.48  1137.53  1182.59
                             1217.29  1272.15  1368.52  1397.50  1422.72
                             1459.64  1501.97  1534.14  1577.23  1600.62
                             1611.21  1625.03  1686.02  1756.27  1768.40
                             1803.33  1847.42  1935.67  1959.00  1995.92
                             2026.89  2036.03  2091.03  2127.81  2141.96
                             2466.59  4232.61  4272.08  4417.35  4455.94
                             4499.89  4509.23  4514.00  4568.83  4645.07
                             5465.06

 Zero-point correction=                           0.160092 (Hartree/Particle)
 Thermal correction to Energy=                    0.167997
 Thermal correction to Enthalpy=                  0.168941
 Thermal correction to Gibbs Free Energy=         0.128118
 Sum of electronic and zero-point Energies=           -422.996886
 Sum of electronic and thermal Energies=              -422.988981
 Sum of electronic and thermal Enthalpies=            -422.988037
 Sum of electronic and thermal Free Energies=         -423.028860

                     E (Thermal)             CV                S
                      KCal/Mol        Cal/Mol-Kelvin    Cal/Mol-Kelvin
 Total                  105.420             31.557             85.919
 Electronic               0.000              0.000              0.000
 Translational            0.889              2.981             40.409
 Rotational               0.889              2.981             28.398
 Vibrational            103.642             25.595             17.113
 Vibration     1          0.611              1.927              3.008
 Vibration     2          0.630              1.866              2.319
 Vibration     3          0.648              1.808              1.947
 Vibration     4          0.683              1.701              1.501
 Vibration     5          0.703              1.642              1.328
 Vibration     6          0.713              1.615              1.259
 Vibration     7          0.746              1.524              1.061
 Vibration     8          0.803              1.377              0.818
 Vibration     9          0.822              1.330              0.755
 Vibration    10          0.940              1.069              0.480

 Optimization completed.
    -- Stationary point found.
 Normal termination of Gaussian 09 at Tue Jan 28 09:01:54 2020.
