 Gaussian 09, Revision D.01,
 Gaussian 09:  ES64L-G09RevD.01 24-Apr-2013

 -----------------------------
 # b3lyp 6-31G(2df,p) opt Freq
 -----------------------------

 -----
 titel
 -----
 Symbolic Z-matrix:
 Charge =  0 Multiplicity = 1

 SCF Done:  E(RB3LYP) =  -423.180170145     A.U. after   14 cycles
 Optimization completed.
    -- Stationary point found.
 Normal termination of Gaussian 09 at Mon Jan 27 13:58:44 2020.

 ----------------------------------------------------------------------
 #N Geom=AllCheck Guess=TCheck SCRF=Check GenChk RB3LYP/6-31G(2df,p) Fr
 eq
 ----------------------------------------------------------------------

 Structure from the checkpoint file:  "/scratch/puck/g09_b069c799-2439-4815-b4e2-dab2e6c0b7eb/Gau-4096.chk"
 -----
 titel
 -----
 Charge =  0 Multiplicity = 1

                         Standard orientation:
 ---------------------------------------------------------------------
 Center     Atomic      Atomic             Coordinates (Angstroms)
 Number     Number       Type             X           Y           Z
 ---------------------------------------------------------------------
      1          8           0        3.822071    1.085792   -0.000151
      2          6           0        3.621604   -0.097674   -0.000040
      3          8           0        2.423340   -0.694105    0.000136
      4          6           0        1.281037    0.189804    0.000165
      5          6           0        0.030347   -0.673185   -0.000043
      6          6           0       -1.247561    0.171359    0.000049
      7          6           0       -2.520402   -0.699109   -0.000141
      8          6           0       -3.746952    0.088375    0.000009
      9          6           0       -4.742836    0.761279    0.000028
     10          1           0        4.402721   -0.874003   -0.000069
     11          1           0        1.332498    0.835437    0.883062
     12          1           0        1.332638    0.835686   -0.882538
     13          1           0        0.049480   -1.328192   -0.879653
     14          1           0        0.049404   -1.328497    0.879342
     15          1           0       -1.266474    0.827783    0.877766
     16          1           0       -1.266409    0.828091   -0.877439
     17          1           0       -2.509566   -1.359923   -0.876950
     18          1           0       -2.509594   -1.360258    0.876411
     19          1           0       -5.629412    1.345292    0.000034
 ---------------------------------------------------------------------

 SCF Done:  E(RB3LYP) =  -423.180170145     A.U. after    1 cycles

 The electronic state is 1-A.
 Alpha  occ. eigenvalues --  -19.19106 -19.13447 -10.30884 -10.24633 -10.21446
 Alpha  occ. eigenvalues --  -10.19981 -10.19752 -10.18247 -10.17156  -1.10716
 Alpha  occ. eigenvalues --   -1.02229  -0.82519  -0.77874  -0.72525  -0.67511
 Alpha  occ. eigenvalues --   -0.60864  -0.58968  -0.52912  -0.52141  -0.50715
 Alpha  occ. eigenvalues --   -0.47282  -0.47079  -0.46220  -0.42298  -0.42161
 Alpha  occ. eigenvalues --   -0.37981  -0.37915  -0.36904  -0.35212  -0.34622
 Alpha  occ. eigenvalues --   -0.30765  -0.28135  -0.26567  -0.26528
 Alpha virt. eigenvalues --    0.00808   0.04923   0.05653   0.08480   0.10922
 Alpha virt. eigenvalues --    0.11473   0.11555   0.12851   0.13692   0.14696
 Alpha virt. eigenvalues --    0.17112   0.17151   0.19137   0.20258   0.20929

 Mulliken charges:
               1
     1  O   -0.300661
     2  C    0.181428
     3  O   -0.206755
     4  C   -0.068120
     5  C   -0.204699
     6  C   -0.180528
     7  C   -0.356925
     8  C    0.289848
     9  C   -0.431135
    10  H    0.110073
    11  H    0.126769
    12  H    0.126780
    13  H    0.111445
    14  H    0.111447
    15  H    0.115858
    16  H    0.115859
    17  H    0.131884
    18  H    0.131881
    19  H    0.195553
 Sum of Mulliken charges =   0.00000

 Dipole moment (field-independent basis, Debye):
    X=             -1.0533    Y=             -1.5250    Z=              0.0001  Tot=              1.8534
 Quadrupole moment (field-independent basis, Debye-Ang):
   XX=            -59.5550   YY=            -55.0412   ZZ=            -52.4365
   XY=             -8.2490   XZ=              0.0009   YZ=              0.0006

  Exact polarizability: 112.489 -10.136  71.169  -0.002   0.000  55.229
 Approx polarizability: 134.140 -16.892 117.610  -0.003  -0.001  84.810

                      1                      2                      3
                      A                      A                      A
 Frequencies --     41.7996                55.4120                70.1637
 Red. masses --      3.1783                 3.6630                 5.1565
 Frc consts  --      0.0033                 0.0066                 0.0150
 IR Inten    --      0.7728                 0.1067                 0.5825

                      4                      5                      6
                      A                      A                      A
 Frequencies --    117.0973               136.3919               165.1104
 Red. masses --      2.0485                 2.2587                 4.8797
 Frc consts  --      0.0165                 0.0248                 0.0784
 IR Inten    --      0.0146                 0.1730                 1.8051

                      7                      8                      9
                      A                      A                      A
 Frequencies --    227.7306               342.0554               348.8796
 Red. masses --      6.7145                 2.4153                 5.0573
 Frc consts  --      0.2052                 0.1665                 0.3627
 IR Inten    --      4.8644                22.1172                 3.0965

                     10                     11                     12
                      A                      A                      A
 Frequencies --    350.0992               409.3679               537.8949
 Red. masses --      3.1157                 3.8294                 4.8198
 Frc consts  --      0.2250                 0.3781                 0.8216
 IR Inten    --      0.2044                 5.3015                 6.1401

                     13                     14                     15
                      A                      A                      A
 Frequencies --    618.9166               640.0725               742.3403
 Red. masses --      1.1991                 1.2198                 1.0806
 Frc consts  --      0.2706                 0.2944                 0.3508
 IR Inten    --     44.2422                42.2901                 1.9834

                     16                     17                     18
                      A                      A                      A
 Frequencies --    792.3792               795.3316               921.4985
 Red. masses --      1.1729                 7.2854                 1.2728
 Frc consts  --      0.4339                 2.7152                 0.6368
 IR Inten    --      0.0441                 3.5825                 0.3774

                     19                     20                     21
                      A                      A                      A
 Frequencies --    942.6523               960.7577              1033.0061
 Red. masses --      5.7296                 4.7224                 3.4968
 Frc consts  --      2.9997                 2.5682                 2.1985
 IR Inten    --     18.7032                 7.4691                 3.7240

                     22                     23                     24
                      A                      A                      A
 Frequencies --   1046.0632              1056.4384              1101.4097
 Red. masses --      1.6584                 2.5752                 3.6299
 Frc consts  --      1.0692                 1.6933                 2.5945
 IR Inten    --      0.2725                 5.9637                 0.5054

                     25                     26                     27
                      A                      A                      A
 Frequencies --   1127.8853              1209.9464              1215.8233
 Red. masses --      1.5066                 1.3239                 8.7285
 Frc consts  --      1.1292                 1.1419                 7.6020
 IR Inten    --      0.1203                 1.8464               449.9133

                     28                     29                     30
                      A                      A                      A
 Frequencies --   1258.9512              1280.8734              1316.5728
 Red. masses --      1.2749                 1.1998                 1.0998
 Frc consts  --      1.1906                 1.1598                 1.1232
 IR Inten    --      2.8857                 0.8670                 0.1475

                     31                     32                     33
                      A                      A                      A
 Frequencies --   1327.3579              1340.0998              1390.9915
 Red. masses --      1.0778                 1.3735                 1.4706
 Frc consts  --      1.1188                 1.4533                 1.6764
 IR Inten    --      0.1037                 5.8253                 2.0304

                     34                     35                     36
                      A                      A                      A
 Frequencies --   1406.7771              1418.8715              1474.5184
 Red. masses --      1.1593                 1.5270                 1.0824
 Frc consts  --      1.3518                 1.8113                 1.3866
 IR Inten    --      2.0194                 7.7673                 1.0340

                     37                     38                     39
                      A                      A                      A
 Frequencies --   1490.8522              1502.5271              1518.9799
 Red. masses --      1.0799                 1.0901                 1.0905
 Frc consts  --      1.4142                 1.4500                 1.4825
 IR Inten    --      0.0909                 0.5389                 7.8972

                     40                     41                     42
                      A                      A                      A
 Frequencies --   1822.6985              2240.2931              3016.1474
 Red. masses --      9.4332                 5.9272                 1.0581
 Frc consts  --     18.4645                17.5272                 5.6714
 IR Inten    --    291.7689                 2.9616                10.5886

                     43                     44                     45
                      A                      A                      A
 Frequencies --   3027.3757              3028.4428              3039.1595
 Red. masses --      1.0837                 1.0648                 1.0588
 Frc consts  --      5.8519                 5.7541                 5.7617
 IR Inten    --     49.3302                26.2619                21.5282

                     46                     47                     48
                      A                      A                      A
 Frequencies --   3043.6126              3049.9757              3059.7733
 Red. masses --      1.1003                 1.0572                 1.1023
 Frc consts  --      6.0054                 5.7945                 6.0801
 IR Inten    --      4.3904                35.2909                 0.0021

                     49                     50                     51
                      A                      A                      A
 Frequencies --   3082.3410              3100.6685              3507.1425
 Red. masses --      1.1060                 1.1080                 1.1623
 Frc consts  --      6.1909                 6.2761                 8.4235
 IR Inten    --     10.8776                57.7378                68.6990

 - Thermochemistry -
 -------------------
 Temperature   298.150 Kelvin.  Pressure   1.00000 Atm.
 Atom     1 has atomic number  8 and mass  15.99491

 Molecular mass:   126.06808 amu.
 Principal axes and moments of inertia in atomic units:
                           1         2         3
     Eigenvalues --   230.958403981.584014168.03552
           X            0.99999  -0.00426   0.00000
           Y            0.00426   0.99999   0.00002
           Z            0.00000  -0.00002   1.00000
 This molecule is an asymmetric top.
 Rotational symmetry number  1.
 Rotational temperatures (Kelvin)      0.37502     0.02175     0.02078
 Rotational constants (GHZ):           7.81414     0.45327     0.43300
 Zero-point vibrational energy     411225.5 (Joules/Mol)
                                   98.28524 (Kcal/Mol)
 Warning -- explicit consideration of  13 degrees of freedom as
           vibrations may cause significant error
 Vibrational temperatures:     60.14    79.73   100.95   168.48   196.24
          (Kelvin)            237.56   327.65   492.14   501.96   503.71
                              588.99   773.91   890.48   920.92  1068.06
                             1140.06  1144.30  1325.83  1356.26  1382.31
                             1486.26  1505.05  1519.98  1584.68  1622.77
                             1740.84  1749.30  1811.35  1842.89  1894.25
                             1909.77  1928.10  2001.32  2024.04  2041.44
                             2121.50  2145.00  2161.80  2185.47  2622.45
                             3223.28  4339.56  4355.71  4357.25  4372.67
                             4379.07  4388.23  4402.33  4434.80  4461.16
                             5045.99

 Zero-point correction=                           0.156628 (Hartree/Particle)
 Thermal correction to Energy=                    0.166982
 Thermal correction to Enthalpy=                  0.167926
 Thermal correction to Gibbs Free Energy=         0.119457
 Sum of electronic and zero-point Energies=           -423.023543
 Sum of electronic and thermal Energies=              -423.013188
 Sum of electronic and thermal Enthalpies=            -423.012244
 Sum of electronic and thermal Free Energies=         -423.060713

                     E (Thermal)             CV                S
                      KCal/Mol        Cal/Mol-Kelvin    Cal/Mol-Kelvin
 Total                  104.783             35.429            102.012
 Electronic               0.000              0.000              0.000
 Translational            0.889              2.981             40.409
 Rotational               0.889              2.981             29.729
 Vibrational            103.005             29.468             31.875
 Vibration     1          0.594              1.980              5.172
 Vibration     2          0.596              1.975              4.614
 Vibration     3          0.598              1.968              4.149
 Vibration     4          0.608              1.935              3.148
 Vibration     5          0.614              1.917              2.854
 Vibration     6          0.624              1.885              2.490
 Vibration     7          0.651              1.799              1.897
 Vibration     8          0.721              1.591              1.203
 Vibration     9          0.726              1.578              1.171
 Vibration    10          0.727              1.575              1.166
 Vibration    11          0.774              1.450              0.929
 Vibration    12          0.893              1.166              0.570
 Vibration    13          0.979              0.992              0.418

 Optimization completed.
    -- Stationary point found.
 Normal termination of Gaussian 09 at Mon Jan 27 15:15:02 2020.
