 Gaussian 09, Revision D.01,
 Gaussian 09:  ES64L-G09RevD.01 24-Apr-2013

 -----------------------------
 # b3lyp 6-31G(2df,p) opt Freq
 -----------------------------

 -----
 titel
 -----
 Symbolic Z-matrix:
 Charge =  0 Multiplicity = 1

 SCF Done:  E(RB3LYP) =  -423.147757057     A.U. after   14 cycles
 Optimization completed.
    -- Stationary point found.
 Normal termination of Gaussian 09 at Tue Jan 28 14:29:19 2020.

 ----------------------------------------------------------------------
 #N Geom=AllCheck Guess=TCheck SCRF=Check GenChk RB3LYP/6-31G(2df,p) Fr
 eq
 ----------------------------------------------------------------------

 Structure from the checkpoint file:  "/scratch/puck/g09_5b2ebb0f-8564-4e52-a43e-581df0e4774e/Gau-35131.chk"
 -----
 titel
 -----
 Charge =  0 Multiplicity = 1

                         Standard orientation:
 ---------------------------------------------------------------------
 Center     Atomic      Atomic             Coordinates (Angstroms)
 Number     Number       Type             X           Y           Z
 ---------------------------------------------------------------------
      1          8           0        3.739585    0.084685   -0.143736
      2          6           0        2.618145   -0.680597    0.264944
      3          6           0        1.365969    0.024199   -0.242244
      4          6           0        0.085282   -0.729071    0.126507
      5          6           0       -1.204795   -0.016886   -0.366829
      6          6           0       -1.391240    1.296095    0.401996
      7          8           0       -1.241915    2.388176   -0.073233
      8          6           0       -2.385753   -0.848524   -0.167416
      9          6           0       -3.364811   -1.514257    0.041436
     10          1           0        4.535166   -0.348776    0.178241
     11          1           0        2.660745   -1.703956   -0.143758
     12          1           0        2.573985   -0.772198    1.362980
     13          1           0        1.350503    1.042013    0.163249
     14          1           0        1.441223    0.127090   -1.331308
     15          1           0        0.096209   -1.735195   -0.306128
     16          1           0        0.015745   -0.864187    1.213748
     17          1           0       -1.094344    0.244299   -1.425463
     18          1           0       -1.666420    1.149626    1.470660
     19          1           0       -4.230944   -2.107345    0.203168
 ---------------------------------------------------------------------

 SCF Done:  E(RB3LYP) =  -423.147757058     A.U. after    1 cycles

 The electronic state is 1-A.
 Alpha  occ. eigenvalues --  -19.14891 -19.13693 -10.27996 -10.23285 -10.22583
 Alpha  occ. eigenvalues --  -10.20575 -10.19338 -10.18766 -10.18487  -1.05673
 Alpha  occ. eigenvalues --   -1.01853  -0.83541  -0.77410  -0.72602  -0.66277
 Alpha  occ. eigenvalues --   -0.60351  -0.58956  -0.54138  -0.51430  -0.49251
 Alpha  occ. eigenvalues --   -0.48649  -0.45544  -0.45440  -0.42491  -0.40178
 Alpha  occ. eigenvalues --   -0.39398  -0.37048  -0.36672  -0.34693  -0.33071
 Alpha  occ. eigenvalues --   -0.28991  -0.27733  -0.27075  -0.25229
 Alpha virt. eigenvalues --   -0.03215   0.04097   0.05500   0.07530   0.09626
 Alpha virt. eigenvalues --    0.10937   0.11877   0.12977   0.13999   0.15127
 Alpha virt. eigenvalues --    0.17181   0.17538   0.18639   0.19483   0.20810

 Mulliken charges:
               1
     1  O   -0.418481
     2  C   -0.079854
     3  C   -0.178453
     4  C   -0.210757
     5  C   -0.255426
     6  C    0.172192
     7  O   -0.241274
     8  C    0.287858
     9  C   -0.425639
    10  H    0.287330
    11  H    0.085781
    12  H    0.086011
    13  H    0.125430
    14  H    0.115195
    15  H    0.119878
    16  H    0.111736
    17  H    0.126182
    18  H    0.089981
    19  H    0.202311
 Sum of Mulliken charges =   0.00000

 Dipole moment (field-independent basis, Debye):
    X=              0.6615    Y=             -3.3245    Z=              1.2792  Tot=              3.6230
 Quadrupole moment (field-independent basis, Debye-Ang):
   XX=            -46.2481   YY=            -59.4017   ZZ=            -52.5976
   XY=             -0.3934   XZ=              1.6438   YZ=              0.7172

  Exact polarizability:  98.257  11.553  78.568  -2.992  -2.721  61.254
 Approx polarizability: 126.334  23.357 123.033  -7.830  -9.592  95.173

                      1                      2                      3
                      A                      A                      A
 Frequencies --     46.3793                59.8127                74.2657
 Red. masses --      2.9551                 5.1895                 2.6089
 Frc consts  --      0.0037                 0.0109                 0.0085
 IR Inten    --      5.4676                 2.6991                 2.0949

                      4                      5                      6
                      A                      A                      A
 Frequencies --     97.8885               139.0548               175.3326
 Red. masses --      4.1607                 2.5624                 3.1643
 Frc consts  --      0.0235                 0.0292                 0.0573
 IR Inten    --      0.8746                 1.8539                 4.4058

                      7                      8                      9
                      A                      A                      A
 Frequencies --    215.7923               256.2809               281.9166
 Red. masses --      4.1167                 1.0917                 2.4284
 Frc consts  --      0.1129                 0.0422                 0.1137
 IR Inten    --      1.6816               103.4837                 2.4165

                     10                     11                     12
                      A                      A                      A
 Frequencies --    359.6324               417.8160               466.0789
 Red. masses --      4.0567                 4.4158                 4.0152
 Frc consts  --      0.3091                 0.4542                 0.5139
 IR Inten    --      1.5025                10.0382                16.1083

                     13                     14                     15
                      A                      A                      A
 Frequencies --    504.8655               571.6528               636.4753
 Red. masses --      6.2486                 4.5051                 1.2215
 Frc consts  --      0.9384                 0.8674                 0.2916
 IR Inten    --      6.9502                10.1205                44.2696

                     16                     17                     18
                      A                      A                      A
 Frequencies --    650.9801               750.8994               841.0710
 Red. masses --      1.2209                 1.1208                 1.3288
 Frc consts  --      0.3048                 0.3723                 0.5538
 IR Inten    --     43.1149                 5.2127                12.1793

                     19                     20                     21
                      A                      A                      A
 Frequencies --    946.8690               957.4847               986.0790
 Red. masses --      2.2806                 3.0770                 2.2467
 Frc consts  --      1.2047                 1.6620                 1.2871
 IR Inten    --      3.3878                 3.6504                11.7538

                     22                     23                     24
                      A                      A                      A
 Frequencies --   1041.4051              1045.8897              1081.5481
 Red. masses --      2.7827                 3.0397                 2.3835
 Frc consts  --      1.7781                 1.9591                 1.6427
 IR Inten    --     45.4943                 3.1251                 6.1965

                     25                     26                     27
                      A                      A                      A
 Frequencies --   1090.4579              1144.2947              1203.9095
 Red. masses --      5.0751                 1.9218                 1.3453
 Frc consts  --      3.5556                 1.4826                 1.1489
 IR Inten    --     54.4719                 8.0070                 0.9039

                     28                     29                     30
                      A                      A                      A
 Frequencies --   1230.2085              1265.4880              1284.2858
 Red. masses --      1.1560                 1.3499                 1.2651
 Frc consts  --      1.0308                 1.2737                 1.2294
 IR Inten    --     27.1668                 0.4086                13.8155

                     31                     32                     33
                      A                      A                      A
 Frequencies --   1313.5795              1323.0207              1334.4078
 Red. masses --      1.2082                 1.1286                 1.2607
 Frc consts  --      1.2283                 1.1640                 1.3226
 IR Inten    --      7.2862                 4.2662                11.4364

                     34                     35                     36
                      A                      A                      A
 Frequencies --   1383.7267              1416.5872              1465.1591
 Red. masses --      1.4683                 1.1988                 1.4716
 Frc consts  --      1.6564                 1.4174                 1.8612
 IR Inten    --      5.5522                 2.6813                11.5185

                     37                     38                     39
                      A                      A                      A
 Frequencies --   1486.9914              1500.5746              1528.9730
 Red. masses --      1.0780                 1.0905                 1.0877
 Frc consts  --      1.4043                 1.4467                 1.4982
 IR Inten    --      0.4221                 2.7761                 2.6615

                     40                     41                     42
                      A                      A                      A
 Frequencies --   1839.3989              2233.8382              2883.2381
 Red. masses --     10.3720                 5.9360                 1.0839
 Frc consts  --     20.6758                17.4520                 5.3088
 IR Inten    --    176.8276                 1.0688                76.1753

                     43                     44                     45
                      A                      A                      A
 Frequencies --   2956.0192              2981.1897              3026.2455
 Red. masses --      1.0542                 1.1059                 1.0628
 Frc consts  --      5.4272                 5.7907                 5.7345
 IR Inten    --     53.0411                54.2684                 7.9256

                     46                     47                     48
                      A                      A                      A
 Frequencies --   3041.6497              3052.4746              3067.6249
 Red. masses --      1.0611                 1.0807                 1.0993
 Frc consts  --      5.7840                 5.9329                 6.0947
 IR Inten    --     20.8312                16.3331                 0.8642

                     49                     50                     51
                      A                      A                      A
 Frequencies --   3091.1411              3503.2509              3832.1343
 Red. masses --      1.1038                 1.1620                 1.0664
 Frc consts  --      6.2140                 8.4022                 9.2266
 IR Inten    --     41.8380                73.9772                22.1198

 - Thermochemistry -
 -------------------
 Temperature   298.150 Kelvin.  Pressure   1.00000 Atm.
 Atom     1 has atomic number  8 and mass  15.99491

 Molecular mass:   126.06808 amu.
 Principal axes and moments of inertia in atomic units:
                           1         2         3
     Eigenvalues --   676.579492406.204402971.11537
           X            1.00000  -0.00040   0.00083
           Y            0.00040   0.99999  -0.00331
           Z           -0.00083   0.00331   0.99999
 This molecule is an asymmetric top.
 Rotational symmetry number  1.
 Warning -- assumption of classical behavior for rotation
           may cause significant error
 Rotational temperatures (Kelvin)      0.12802     0.03600     0.02915
 Rotational constants (GHZ):           2.66745     0.75004     0.60743
 Zero-point vibrational energy     407240.8 (Joules/Mol)
                                   97.33288 (Kcal/Mol)
 Warning -- explicit consideration of  14 degrees of freedom as
           vibrations may cause significant error
 Vibrational temperatures:     66.73    86.06   106.85   140.84   200.07
          (Kelvin)            252.26   310.48   368.73   405.61   517.43
                              601.14   670.58   726.39   822.48   915.74
                              936.61  1080.38  1210.11  1362.33  1377.61
                             1418.75  1498.35  1504.80  1556.10  1568.92
                             1646.38  1732.16  1769.99  1820.75  1847.80
                             1889.95  1903.53  1919.91  1990.87  2038.15
                             2108.03  2139.45  2158.99  2199.85  2646.48
                             3213.99  4148.33  4253.05  4289.26  4354.09
                             4376.25  4391.82  4413.62  4447.46  5040.39
                             5513.58

 Zero-point correction=                           0.155110 (Hartree/Particle)
 Thermal correction to Energy=                    0.165956
 Thermal correction to Enthalpy=                  0.166900
 Thermal correction to Gibbs Free Energy=         0.117581
 Sum of electronic and zero-point Energies=           -422.992647
 Sum of electronic and thermal Energies=              -422.981801
 Sum of electronic and thermal Enthalpies=            -422.980857
 Sum of electronic and thermal Free Energies=         -423.030176

                     E (Thermal)             CV                S
                      KCal/Mol        Cal/Mol-Kelvin    Cal/Mol-Kelvin
 Total                  104.139             37.157            103.802
 Electronic               0.000              0.000              0.000
 Translational            0.889              2.981             40.409
 Rotational               0.889              2.981             29.960
 Vibrational            102.362             31.195             33.433
 Vibration     1          0.595              1.979              4.966
 Vibration     2          0.597              1.973              4.463
 Vibration     3          0.599              1.966              4.037
 Vibration     4          0.603              1.951              3.496
 Vibration     5          0.615              1.914              2.817
 Vibration     6          0.627              1.873              2.378
 Vibration     7          0.645              1.817              1.994
 Vibration     8          0.666              1.752              1.687
 Vibration     9          0.681              1.707              1.522
 Vibration    10          0.734              1.555              1.124
 Vibration    11          0.781              1.432              0.899
 Vibration    12          0.823              1.325              0.749
 Vibration    13          0.860              1.239              0.646
 Vibration    14          0.928              1.093              0.501

 Normal termination of Gaussian 09 at Tue Jan 28 15:02:03 2020.
