 Gaussian 09, Revision D.01,
 Gaussian 09:  ES64L-G09RevD.01 24-Apr-2013

 -----------------------------
 # b3lyp 6-31G(2df,p) opt Freq
 -----------------------------

 -----
 titel
 -----
 Symbolic Z-matrix:
 Charge =  0 Multiplicity = 1

 SCF Done:  E(RB3LYP) =  -423.143859008     A.U. after   13 cycles
 Optimization completed.
    -- Stationary point found.
 Normal termination of Gaussian 09 at Mon Jan 27 23:51:26 2020.

 ----------------------------------------------------------------------
 #N Geom=AllCheck Guess=TCheck SCRF=Check GenChk RB3LYP/6-31G(2df,p) Fr
 eq
 ----------------------------------------------------------------------

 Structure from the checkpoint file:  "/scratch/puck/g09_447d918c-863e-4097-b757-f16b6adc67ad/Gau-68196.chk"
 -----
 titel
 -----
 Charge =  0 Multiplicity = 1

                         Standard orientation:
 ---------------------------------------------------------------------
 Center     Atomic      Atomic             Coordinates (Angstroms)
 Number     Number       Type             X           Y           Z
 ---------------------------------------------------------------------
      1          6           0       -2.542954   -0.658742    0.542206
      2          6           0       -1.030647   -0.590669    0.534016
      3          6           0       -0.312949   -0.701994   -0.801156
      4          8           0        1.006584   -1.188897   -0.846542
      5          6           0        1.895397   -0.223647   -0.328707
      6          6           0        1.908015    0.020423    1.156935
      7          6           0        1.106494    0.926387    0.241063
      8          6           0       -0.346576    0.619083   -0.089568
      9          8           0       -1.104193    1.673895   -0.600751
     10          1           0       -2.963853   -0.172808   -0.341814
     11          1           0       -2.885316   -1.698635    0.558329
     12          1           0       -2.959614   -0.158097    1.423716
     13          1           0       -0.546884   -1.052721    1.388593
     14          1           0       -0.889434   -0.911777   -1.696937
     15          1           0        2.800400   -0.122814   -0.917744
     16          1           0        1.403609   -0.679658    1.812135
     17          1           0        2.818648    0.439606    1.573206
     18          1           0        1.403154    1.959326    0.107171
     19          1           0       -1.460509    2.172555    0.142951
 ---------------------------------------------------------------------

 SCF Done:  E(RB3LYP) =  -423.143859008     A.U. after    1 cycles

 The electronic state is 1-A.
 Alpha  occ. eigenvalues --  -19.15016 -19.14504 -10.23986 -10.23277 -10.22628
 Alpha  occ. eigenvalues --  -10.19325 -10.18917 -10.18649 -10.18035  -1.05228
 Alpha  occ. eigenvalues --   -1.02952  -0.85099  -0.83667  -0.71588  -0.63524
 Alpha  occ. eigenvalues --   -0.61598  -0.57728  -0.56497  -0.52197  -0.48811
 Alpha  occ. eigenvalues --   -0.46287  -0.45233  -0.43732  -0.41636  -0.39783
 Alpha  occ. eigenvalues --   -0.39058  -0.37073  -0.36688  -0.35743  -0.30521
 Alpha  occ. eigenvalues --   -0.29952  -0.28466  -0.24801  -0.22429
 Alpha virt. eigenvalues --    0.06660   0.08919   0.09951   0.11815   0.12794
 Alpha virt. eigenvalues --    0.13648   0.15821   0.15987   0.16749   0.17752
 Alpha virt. eigenvalues --    0.18203   0.18602   0.19522   0.22491   0.23238

 Mulliken charges:
               1
     1  C   -0.428069
     2  C   -0.127140
     3  C    0.037691
     4  O   -0.263406
     5  C    0.107735
     6  C   -0.337689
     7  C   -0.140631
     8  C    0.342951
     9  O   -0.468721
    10  H    0.131930
    11  H    0.122739
    12  H    0.113277
    13  H    0.086086
    14  H    0.104809
    15  H    0.100875
    16  H    0.122968
    17  H    0.112322
    18  H    0.095992
    19  H    0.286282
 Sum of Mulliken charges =   0.00000

 Dipole moment (field-independent basis, Debye):
    X=             -0.3935    Y=              1.2087    Z=              1.7266  Tot=              2.1440
 Quadrupole moment (field-independent basis, Debye-Ang):
   XX=            -49.4243   YY=            -53.6708   ZZ=            -53.7095
   XY=              1.9333   XZ=             -0.6958   YZ=              1.4711

  Exact polarizability:  88.054   2.649  67.958   0.633   0.585  66.894
 Approx polarizability: 112.566  -0.798 106.480  -0.131   2.332 104.722

                      1                      2                      3
                      A                      A                      A
 Frequencies --    163.0715               183.9157               201.3364
 Red. masses --      1.0652                 3.3255                 2.8566
 Frc consts  --      0.0167                 0.0663                 0.0682
 IR Inten    --      0.9655                 1.0895                 1.2494

                      4                      5                      6
                      A                      A                      A
 Frequencies --    231.8038               284.2624               308.4817
 Red. masses --      2.9668                 3.0360                 1.1338
 Frc consts  --      0.0939                 0.1445                 0.0636
 IR Inten    --      1.6229                 6.7016                78.1388

                      7                      8                      9
                      A                      A                      A
 Frequencies --    376.1268               394.9862               488.4011
 Red. masses --      4.1980                 3.3391                 3.5499
 Frc consts  --      0.3499                 0.3069                 0.4989
 IR Inten    --      9.7306                22.1708                 0.4439

                     10                     11                     12
                      A                      A                      A
 Frequencies --    493.4656               645.9046               699.1409
 Red. masses --      2.8606                 4.1031                 3.9894
 Frc consts  --      0.4104                 1.0086                 1.1489
 IR Inten    --      3.6601                 4.1908                14.1338

                     13                     14                     15
                      A                      A                      A
 Frequencies --    723.3032               783.6934               826.0468
 Red. masses --      3.1261                 1.5276                 2.9441
 Frc consts  --      0.9636                 0.5528                 1.1836
 IR Inten    --      1.5717                13.8783                13.0062

                     16                     17                     18
                      A                      A                      A
 Frequencies --    846.8164               910.2076               946.6387
 Red. masses --      2.2394                 2.1476                 1.6292
 Frc consts  --      0.9462                 1.0483                 0.8602
 IR Inten    --      8.0175                 4.9352                13.4975

                     19                     20                     21
                      A                      A                      A
 Frequencies --    964.3178               982.1200              1006.8464
 Red. masses --      1.9111                 2.0489                 1.7548
 Frc consts  --      1.0471                 1.1644                 1.0481
 IR Inten    --      2.8629                11.6414                12.0043

                     22                     23                     24
                      A                      A                      A
 Frequencies --   1031.7313              1054.3605              1075.5112
 Red. masses --      1.6277                 1.7885                 1.7703
 Frc consts  --      1.0209                 1.1714                 1.2065
 IR Inten    --      2.2074                44.6837                 5.2322

                     25                     26                     27
                      A                      A                      A
 Frequencies --   1085.5661              1101.7184              1126.2046
 Red. masses --      1.6751                 1.4261                 1.7371
 Frc consts  --      1.1630                 1.0198                 1.2981
 IR Inten    --      1.8495                 1.3394                 3.7626

                     28                     29                     30
                      A                      A                      A
 Frequencies --   1133.5805              1164.8888              1189.0127
 Red. masses --      2.6859                 3.2588                 1.7501
 Frc consts  --      2.0335                 2.6054                 1.4578
 IR Inten    --      4.3000                88.7243                13.0340

                     31                     32                     33
                      A                      A                      A
 Frequencies --   1210.0680              1239.7767              1291.8022
 Red. masses --      2.3405                 1.8631                 1.2345
 Frc consts  --      2.0192                 1.6873                 1.2138
 IR Inten    --     44.1187                71.4713                 2.4963

                     34                     35                     36
                      A                      A                      A
 Frequencies --   1321.2384              1361.4139              1382.0722
 Red. masses --      1.5838                 1.6522                 1.7860
 Frc consts  --      1.6289                 1.8042                 2.0100
 IR Inten    --     41.4107                 8.6232                 9.9467

                     37                     38                     39
                      A                      A                      A
 Frequencies --   1410.9819              1444.8426              1476.5514
 Red. masses --      1.3012                 2.5330                 1.2377
 Frc consts  --      1.5263                 3.1155                 1.5899
 IR Inten    --      1.1144                 5.9377                 7.3478

                     40                     41                     42
                      A                      A                      A
 Frequencies --   1494.1151              1505.2659              3031.5658
 Red. masses --      1.0536                 1.0713                 1.0373
 Frc consts  --      1.3858                 1.4302                 5.6167
 IR Inten    --      3.8392                 5.9483                38.1464

                     43                     44                     45
                      A                      A                      A
 Frequencies --   3089.3465              3117.0708              3132.7471
 Red. masses --      1.1000                 1.0989                 1.0557
 Frc consts  --      6.1855                 6.2908                 6.1045
 IR Inten    --     22.8096                 9.0134                 8.0626

                     46                     47                     48
                      A                      A                      A
 Frequencies --   3156.8177              3161.6133              3169.1941
 Red. masses --      1.0913                 1.0866                 1.0915
 Frc consts  --      6.4075                 6.3991                 6.4593
 IR Inten    --      5.3578                31.9504                21.9867

                     49                     50                     51
                      A                      A                      A
 Frequencies --   3188.9490              3220.8452              3792.8926
 Red. masses --      1.0932                 1.1136                 1.0662
 Frc consts  --      6.5501                 6.8064                 9.0374
 IR Inten    --      6.1811                10.7104                20.2605

 - Thermochemistry -
 -------------------
 Temperature   298.150 Kelvin.  Pressure   1.00000 Atm.
 Atom     1 has atomic number  6 and mass  12.00000

 Molecular mass:   126.06808 amu.
 Principal axes and moments of inertia in atomic units:
                           1         2         3
     Eigenvalues --   628.865811226.463401398.95574
           X            0.99919   0.04022   0.00024
           Y           -0.04020   0.99901  -0.01923
           Z           -0.00101   0.01920   0.99982
 This molecule is an asymmetric top.
 Rotational symmetry number  1.
 Warning -- assumption of classical behavior for rotation
           may cause significant error
 Rotational temperatures (Kelvin)      0.13773     0.07062     0.06191
 Rotational constants (GHZ):           2.86984     1.47150     1.29006
 Zero-point vibrational energy     416435.8 (Joules/Mol)
                                   99.53055 (Kcal/Mol)
 Warning -- explicit consideration of  10 degrees of freedom as
           vibrations may cause significant error
 Vibrational temperatures:    234.62   264.61   289.68   333.51   408.99
          (Kelvin)            443.84   541.16   568.30   702.70   709.99
                              929.31  1005.91  1040.67  1127.56  1188.50
                             1218.38  1309.58  1362.00  1387.44  1413.05
                             1448.63  1484.43  1516.99  1547.42  1561.89
                             1585.13  1620.36  1630.97  1676.01  1710.72
                             1741.02  1783.76  1858.61  1900.96  1958.77
                             1988.49  2030.09  2078.80  2124.43  2149.70
                             2165.74  4361.74  4444.87  4484.76  4507.32
                             4541.95  4548.85  4559.76  4588.18  4634.07
                             5457.12

 Zero-point correction=                           0.158612 (Hartree/Particle)
 Thermal correction to Energy=                    0.166790
 Thermal correction to Enthalpy=                  0.167734
 Thermal correction to Gibbs Free Energy=         0.126479
 Sum of electronic and zero-point Energies=           -422.985247
 Sum of electronic and thermal Energies=              -422.977069
 Sum of electronic and thermal Enthalpies=            -422.976125
 Sum of electronic and thermal Free Energies=         -423.017380

                     E (Thermal)             CV                S
                      KCal/Mol        Cal/Mol-Kelvin    Cal/Mol-Kelvin
 Total                  104.662             32.587             86.829
 Electronic               0.000              0.000              0.000
 Translational            0.889              2.981             40.409
 Rotational               0.889              2.981             28.469
 Vibrational            102.885             26.625             17.951
 Vibration     1          0.623              1.888              2.514
 Vibration     2          0.631              1.862              2.288
 Vibration     3          0.638              1.838              2.121
 Vibration     4          0.653              1.792              1.865
 Vibration     5          0.683              1.703              1.508
 Vibration     6          0.698              1.658              1.370
 Vibration     7          0.747              1.521              1.055
 Vibration     8          0.762              1.481              0.981
 Vibration     9          0.844              1.276              0.688
 Vibration    10          0.849              1.265              0.675

 Normal termination of Gaussian 09 at Tue Jan 28 00:35:42 2020.
