 Gaussian 09, Revision D.01,
 Gaussian 09:  ES64L-G09RevD.01 24-Apr-2013

 -----------------------------
 # b3lyp 6-31G(2df,p) opt Freq
 -----------------------------

 -----
 titel
 -----
 Symbolic Z-matrix:
 Charge =  0 Multiplicity = 1

 SCF Done:  E(RB3LYP) =  -423.160435783     A.U. after   14 cycles
 Optimization completed.
    -- Stationary point found.
 Normal termination of Gaussian 09 at Mon Jan 27 17:19:47 2020.

 ----------------------------------------------------------------------
 #N Geom=AllCheck Guess=TCheck SCRF=Check GenChk RB3LYP/6-31G(2df,p) Fr
 eq
 ----------------------------------------------------------------------

 Structure from the checkpoint file:  "/scratch/puck/g09_63cdd9d4-d1fa-48d0-b502-d51823c3e224/Gau-32638.chk"
 -----
 titel
 -----
 Charge =  0 Multiplicity = 1

                         Standard orientation:
 ---------------------------------------------------------------------
 Center     Atomic      Atomic             Coordinates (Angstroms)
 Number     Number       Type             X           Y           Z
 ---------------------------------------------------------------------
      1          8           0        1.805871   -1.603050   -0.536874
      2          6           0        1.414490   -0.435009    0.090882
      3          6           0        0.479598   -0.423663    1.266997
      4          6           0        0.058714    0.258442   -0.023875
      5          6           0       -1.173300   -0.162841   -0.787394
      6          6           0       -2.442729    0.310763   -0.108441
      7          8           0       -3.337851   -0.408067    0.254303
      8          6           0        0.763026    1.622669   -0.109668
      9          6           0        2.151449    0.901336   -0.038509
     10          1           0        2.259359   -2.161491    0.103605
     11          1           0       -0.017118   -1.372055    1.449897
     12          1           0        0.696442    0.156251    2.162271
     13          1           0       -1.143560    0.271838   -1.797350
     14          1           0       -1.217492   -1.251404   -0.887097
     15          1           0       -2.493132    1.412699    0.055969
     16          1           0        0.604582    2.128263   -1.065796
     17          1           0        0.541688    2.325828    0.699444
     18          1           0        2.695424    0.972192   -0.982783
     19          1           0        2.822160    1.176623    0.782453
 ---------------------------------------------------------------------

 SCF Done:  E(RB3LYP) =  -423.160435783     A.U. after    1 cycles

 The electronic state is 1-A.
 Alpha  occ. eigenvalues --  -19.15398 -19.13609 -10.26840 -10.24494 -10.20595
 Alpha  occ. eigenvalues --  -10.19556 -10.19322 -10.19102 -10.18844  -1.04285
 Alpha  occ. eigenvalues --   -1.04028  -0.89742  -0.76360  -0.73358  -0.64768
 Alpha  occ. eigenvalues --   -0.60502  -0.57480  -0.54822  -0.50684  -0.47865
 Alpha  occ. eigenvalues --   -0.46610  -0.45893  -0.43753  -0.42539  -0.40847
 Alpha  occ. eigenvalues --   -0.39061  -0.37929  -0.36252  -0.36183  -0.33130
 Alpha  occ. eigenvalues --   -0.31768  -0.26888  -0.26471  -0.23543
 Alpha virt. eigenvalues --   -0.01738   0.07218   0.09081   0.10144   0.11183
 Alpha virt. eigenvalues --    0.12601   0.13293   0.13961   0.14781   0.15600
 Alpha virt. eigenvalues --    0.17505   0.17748   0.19335   0.21658   0.23858

 Mulliken charges:
               1
     1  O   -0.462451
     2  C    0.349446
     3  C   -0.390069
     4  C    0.285530
     5  C   -0.387934
     6  C    0.167102
     7  O   -0.240328
     8  C   -0.285463
     9  C   -0.281478
    10  H    0.288924
    11  H    0.121685
    12  H    0.104771
    13  H    0.115803
    14  H    0.129189
    15  H    0.072329
    16  H    0.105118
    17  H    0.100357
    18  H    0.113561
    19  H    0.093907
 Sum of Mulliken charges =   0.00000

 Dipole moment (field-independent basis, Debye):
    X=              2.7587    Y=              0.9432    Z=              0.3183  Tot=              2.9328
 Quadrupole moment (field-independent basis, Debye-Ang):
   XX=            -62.3728   YY=            -50.6664   ZZ=            -52.4999
   XY=             -4.6644   XZ=              4.9701   YZ=             -2.7664

  Exact polarizability:  88.301   1.317  76.384  -0.996  -2.121  66.427
 Approx polarizability: 119.659   2.944 113.421  -4.070  -4.135 103.089

                      1                      2                      3
                      A                      A                      A
 Frequencies --     42.4040                53.0588               129.5848
 Red. masses --      4.9093                 3.8388                 3.0696
 Frc consts  --      0.0052                 0.0064                 0.0304
 IR Inten    --      3.5274                 4.0816                 3.0780

                      4                      5                      6
                      A                      A                      A
 Frequencies --    195.3885               224.8651               263.6654
 Red. masses --      1.9803                 1.7947                 1.6129
 Frc consts  --      0.0445                 0.0535                 0.0661
 IR Inten    --     21.9314                34.9930                27.5950

                      7                      8                      9
                      A                      A                      A
 Frequencies --    321.9999               375.8490               437.8688
 Red. masses --      2.4719                 2.7545                 2.2480
 Frc consts  --      0.1510                 0.2293                 0.2539
 IR Inten    --      1.4756                 2.4286                 6.2539

                     10                     11                     12
                      A                      A                      A
 Frequencies --    460.2289               550.8403               600.8155
 Red. masses --      2.9757                 3.1476                 3.1236
 Frc consts  --      0.3714                 0.5627                 0.6643
 IR Inten    --     16.6624                 5.9325                 0.0871

                     13                     14                     15
                      A                      A                      A
 Frequencies --    702.8535               739.3345               789.1706
 Red. masses --      2.9938                 2.8412                 1.3741
 Frc consts  --      0.8714                 0.9150                 0.5042
 IR Inten    --      0.8579                 2.2491                 0.7402

                     16                     17                     18
                      A                      A                      A
 Frequencies --    838.3113               865.2578               929.7651
 Red. masses --      1.9036                 3.3377                 1.8056
 Frc consts  --      0.7882                 1.4723                 0.9196
 IR Inten    --      2.5259                25.2801                 1.4310

                     19                     20                     21
                      A                      A                      A
 Frequencies --    935.0380               978.3892               993.3836
 Red. masses --      1.8968                 1.5613                 1.8575
 Frc consts  --      0.9771                 0.8805                 1.0800
 IR Inten    --      1.3921                 8.7232                 0.7911

                     22                     23                     24
                      A                      A                      A
 Frequencies --   1029.6236              1060.2570              1077.2813
 Red. masses --      1.6266                 1.9345                 1.6516
 Frc consts  --      1.0160                 1.2813                 1.1293
 IR Inten    --      8.1071                 9.7315                38.7028

                     25                     26                     27
                      A                      A                      A
 Frequencies --   1115.1681              1144.7449              1198.7924
 Red. masses --      1.3795                 2.3144                 1.7662
 Frc consts  --      1.0108                 1.7870                 1.4955
 IR Inten    --      8.2298                18.3275                 2.7716

                     28                     29                     30
                      A                      A                      A
 Frequencies --   1211.2512              1232.5016              1241.2214
 Red. masses --      1.5661                 1.4233                 1.5143
 Frc consts  --      1.3537                 1.2738                 1.3745
 IR Inten    --     26.3193                 0.8143                 0.6168

                     31                     32                     33
                      A                      A                      A
 Frequencies --   1267.0008              1299.2154              1314.2005
 Red. masses --      1.6623                 1.4697                 1.9018
 Frc consts  --      1.5722                 1.4616                 1.9353
 IR Inten    --     52.8172                 6.5481                53.9811

                     34                     35                     36
                      A                      A                      A
 Frequencies --   1345.4871              1410.1008              1429.8970
 Red. masses --      2.7224                 1.9090                 1.2025
 Frc consts  --      2.9038                 2.2364                 1.4486
 IR Inten    --     18.9871                22.1858                 4.5526

                     37                     38                     39
                      A                      A                      A
 Frequencies --   1456.7849              1480.0639              1481.3542
 Red. masses --      1.1139                 1.0944                 1.2109
 Frc consts  --      1.3928                 1.4125                 1.5656
 IR Inten    --     10.2911                 0.2120                 3.6043

                     40                     41                     42
                      A                      A                      A
 Frequencies --   1520.3609              1833.4768              2856.9771
 Red. masses --      1.4417                10.0550                 1.0819
 Frc consts  --      1.9634                19.9151                 5.2031
 IR Inten    --     11.7368               188.2095               104.8619

                     43                     44                     45
                      A                      A                      A
 Frequencies --   3008.2459              3042.0815              3050.3668
 Red. masses --      1.0653                 1.0604                 1.0620
 Frc consts  --      5.6798                 5.7816                 5.8220
 IR Inten    --     17.9349                46.9763                50.5839

                     46                     47                     48
                      A                      A                      A
 Frequencies --   3095.0837              3095.8087              3097.8742
 Red. masses --      1.1057                 1.0891                 1.0630
 Frc consts  --      6.2409                 6.1498                 6.0103
 IR Inten    --      6.8733                 6.8458                15.8927

                     49                     50                     51
                      A                      A                      A
 Frequencies --   3117.4982              3195.4128              3800.4014
 Red. masses --      1.1031                 1.1128                 1.0664
 Frc consts  --      6.3164                 6.6947                 9.0743
 IR Inten    --     32.6433                 8.8734                26.9539

 - Thermochemistry -
 -------------------
 Temperature   298.150 Kelvin.  Pressure   1.00000 Atm.
 Atom     1 has atomic number  8 and mass  15.99491

 Molecular mass:   126.06808 amu.
 Principal axes and moments of inertia in atomic units:
                           1         2         3
     Eigenvalues --   575.653491732.731571974.21766
           X            0.99994   0.00509   0.01006
           Y           -0.00482   0.99963  -0.02666
           Z           -0.01020   0.02661   0.99959
 This molecule is an asymmetric top.
 Rotational symmetry number  1.
 Warning -- assumption of classical behavior for rotation
           may cause significant error
 Rotational temperatures (Kelvin)      0.15046     0.04999     0.04387
 Rotational constants (GHZ):           3.13512     1.04156     0.91416
 Zero-point vibrational energy     412332.5 (Joules/Mol)
                                   98.54983 (Kcal/Mol)
 Warning -- explicit consideration of  12 degrees of freedom as
           vibrations may cause significant error
 Vibrational temperatures:     61.01    76.34   186.44   281.12   323.53
          (Kelvin)            379.36   463.29   540.76   629.99   662.17
                              792.54   864.44  1011.25  1063.74  1135.44
                             1206.14  1244.91  1337.72  1345.31  1407.68
                             1429.26  1481.40  1525.47  1549.97  1604.48
                             1647.03  1724.79  1742.72  1773.29  1785.84
                             1822.93  1869.28  1890.84  1935.85  2028.82
                             2057.30  2095.99  2129.48  2131.34  2187.46
                             2637.96  4110.55  4328.19  4376.87  4388.79
                             4453.13  4454.17  4457.14  4485.38  4597.48
                             5467.92

 Zero-point correction=                           0.157049 (Hartree/Particle)
 Thermal correction to Energy=                    0.166273
 Thermal correction to Enthalpy=                  0.167217
 Thermal correction to Gibbs Free Energy=         0.121988
 Sum of electronic and zero-point Energies=           -423.003387
 Sum of electronic and thermal Energies=              -422.994163
 Sum of electronic and thermal Enthalpies=            -422.993218
 Sum of electronic and thermal Free Energies=         -423.038448

                     E (Thermal)             CV                S
                      KCal/Mol        Cal/Mol-Kelvin    Cal/Mol-Kelvin
 Total                  104.338             33.726             95.194
 Electronic               0.000              0.000              0.000
 Translational            0.889              2.981             40.409
 Rotational               0.889              2.981             29.067
 Vibrational            102.561             27.765             25.719
 Vibration     1          0.595              1.980              5.143
 Vibration     2          0.596              1.976              4.700
 Vibration     3          0.612              1.924              2.952
 Vibration     4          0.636              1.846              2.176
 Vibration     5          0.650              1.803              1.920
 Vibration     6          0.670              1.739              1.637
 Vibration     7          0.707              1.631              1.300
 Vibration     8          0.747              1.522              1.056
 Vibration     9          0.798              1.388              0.833
 Vibration    10          0.818              1.338              0.765
 Vibration    11          0.906              1.138              0.542
 Vibration    12          0.959              1.030              0.448

 Optimization completed.
    -- Stationary point found.
 Normal termination of Gaussian 09 at Mon Jan 27 18:03:37 2020.
