 Gaussian 09, Revision D.01,
 Gaussian 09:  ES64L-G09RevD.01 24-Apr-2013

 -----------------------------
 # b3lyp 6-31G(2df,p) opt Freq
 -----------------------------

 -----
 titel
 -----
 Symbolic Z-matrix:
 Charge =  0 Multiplicity = 1

 SCF Done:  E(RB3LYP) =  -423.188739427     A.U. after   13 cycles
 Optimization completed.
    -- Stationary point found.
 Normal termination of Gaussian 09 at Mon Jan 27 11:19:36 2020.

 ----------------------------------------------------------------------
 #N Geom=AllCheck Guess=TCheck SCRF=Check GenChk RB3LYP/6-31G(2df,p) Fr
 eq
 ----------------------------------------------------------------------

 Structure from the checkpoint file:  "/scratch/puck/g09_bfff0fd9-d40c-4408-99d7-0b1eabdd949a/Gau-32322.chk"
 -----
 titel
 -----
 Charge =  0 Multiplicity = 1

                         Standard orientation:
 ---------------------------------------------------------------------
 Center     Atomic      Atomic             Coordinates (Angstroms)
 Number     Number       Type             X           Y           Z
 ---------------------------------------------------------------------
      1          6           0       -0.681663    1.568694   -0.553395
      2          6           0       -1.402588    0.510038    0.344595
      3          8           0       -1.800809   -0.699999   -0.262343
      4          6           0       -0.636566   -1.473071   -0.527326
      5          6           0        0.421972   -1.111023    0.548740
      6          6           0        1.780269   -0.742893   -0.058365
      7          8           0        1.603289    0.557995   -0.612264
      8          6           0        0.658592    1.272622    0.178816
      9          6           0       -0.066204    0.246070    1.091264
     10          1           0       -0.665947    1.345198   -1.621785
     11          1           0       -1.054733    2.585051   -0.403887
     12          1           0       -2.252761    0.888080    0.915039
     13          1           0       -0.928486   -2.526540   -0.506533
     14          1           0       -0.241800   -1.244413   -1.528374
     15          1           0        0.496057   -1.879264    1.320602
     16          1           0        2.566724   -0.741406    0.712672
     17          1           0        2.097041   -1.408404   -0.868424
     18          1           0        1.140683    2.129924    0.659026
     19          1           0       -0.019480    0.365184    2.172551
 ---------------------------------------------------------------------

 SCF Done:  E(RB3LYP) =  -423.188739427     A.U. after    1 cycles

 The electronic state is 1-A.
 Alpha  occ. eigenvalues --  -19.13673 -19.13649 -10.22926 -10.22912 -10.22865
 Alpha  occ. eigenvalues --  -10.22512 -10.19394 -10.18607 -10.17568  -1.04264
 Alpha  occ. eigenvalues --   -1.02669  -0.82535  -0.78343  -0.69692  -0.66573
 Alpha  occ. eigenvalues --   -0.60633  -0.58212  -0.54301  -0.52762  -0.48062
 Alpha  occ. eigenvalues --   -0.46474  -0.45381  -0.44703  -0.42360  -0.41862
 Alpha  occ. eigenvalues --   -0.37190  -0.36118  -0.34665  -0.32987  -0.32728
 Alpha  occ. eigenvalues --   -0.31265  -0.29317  -0.24817  -0.24338
 Alpha virt. eigenvalues --    0.07061   0.09560   0.10316   0.12312   0.12516
 Alpha virt. eigenvalues --    0.14303   0.15334   0.16024   0.16452   0.17143
 Alpha virt. eigenvalues --    0.18065   0.18523   0.19509   0.19809   0.22221

 Mulliken charges:
               1
     1  C   -0.269760
     2  C    0.094197
     3  O   -0.253043
     4  C   -0.101052
     5  C   -0.055921
     6  C   -0.094333
     7  O   -0.268864
     8  C    0.099036
     9  C   -0.078759
    10  H    0.114425
    11  H    0.101004
    12  H    0.081878
    13  H    0.107460
    14  H    0.101368
    15  H    0.079057
    16  H    0.090362
    17  H    0.109479
    18  H    0.074057
    19  H    0.069411
 Sum of Mulliken charges =   0.00000

 Dipole moment (field-independent basis, Debye):
    X=              0.5549    Y=             -0.2987    Z=              1.4469  Tot=              1.5782
 Quadrupole moment (field-independent basis, Debye-Ang):
   XX=            -58.1799   YY=            -49.6597   ZZ=            -52.4360
   XY=             -4.1677   XZ=              0.7316   YZ=              1.4222

  Exact polarizability:  73.611  -4.746  79.271   0.674   1.521  65.687
 Approx polarizability: 105.274  -4.140 111.248  -0.930   1.884 101.372

                      1                      2                      3
                      A                      A                      A
 Frequencies --    134.3663               191.1472               354.0195
 Red. masses --      4.0458                 2.3631                 2.0186
 Frc consts  --      0.0430                 0.0509                 0.1491
 IR Inten    --      5.0988                 2.0802                 1.3393

                      4                      5                      6
                      A                      A                      A
 Frequencies --    375.9625               398.0070               593.8048
 Red. masses --      3.2690                 2.4119                 4.5841
 Frc consts  --      0.2722                 0.2251                 0.9523
 IR Inten    --      4.1066                 2.2443                 0.7535

                      7                      8                      9
                      A                      A                      A
 Frequencies --    604.3982               696.9642               716.0494
 Red. masses --      5.9269                 3.1339                 4.9800
 Frc consts  --      1.2756                 0.8969                 1.5044
 IR Inten    --      4.0977                 2.0445                 8.8155

                     10                     11                     12
                      A                      A                      A
 Frequencies --    735.6944               832.3947               845.1766
 Red. masses --      2.0233                 2.7515                 2.6838
 Frc consts  --      0.6452                 1.1232                 1.1295
 IR Inten    --      5.0587                 6.6404                 2.9875

                     13                     14                     15
                      A                      A                      A
 Frequencies --    881.2798               904.3538               915.3681
 Red. masses --      2.3577                 2.7675                 2.0837
 Frc consts  --      1.0788                 1.3336                 1.0287
 IR Inten    --      1.9053                 1.1839                16.5629

                     16                     17                     18
                      A                      A                      A
 Frequencies --    968.1703               976.9417               984.6551
 Red. masses --      2.0821                 2.3564                 2.2974
 Frc consts  --      1.1499                 1.3251                 1.3124
 IR Inten    --      7.3119                14.1141                15.7634

                     19                     20                     21
                      A                      A                      A
 Frequencies --   1012.6259              1016.2820              1043.4522
 Red. masses --      2.8855                 1.5943                 2.7837
 Frc consts  --      1.7433                 0.9702                 1.7857
 IR Inten    --      3.8380                14.0189                 9.1888

                     22                     23                     24
                      A                      A                      A
 Frequencies --   1072.0803              1121.1215              1136.6970
 Red. masses --      2.7716                 2.2150                 2.8861
 Frc consts  --      1.8769                 1.6403                 2.1971
 IR Inten    --     20.1936                25.4500                91.5378

                     25                     26                     27
                      A                      A                      A
 Frequencies --   1165.0512              1185.0318              1207.6854
 Red. masses --      2.5255                 1.6709                 2.1623
 Frc consts  --      2.0197                 1.3825                 1.8582
 IR Inten    --     50.2629                 6.9099                 5.3839

                     28                     29                     30
                      A                      A                      A
 Frequencies --   1228.9374              1236.6530              1257.5709
 Red. masses --      1.1876                 1.2841                 1.2270
 Frc consts  --      1.0568                 1.1570                 1.1433
 IR Inten    --     11.1137                 1.4458                 2.1770

                     31                     32                     33
                      A                      A                      A
 Frequencies --   1269.2855              1278.1102              1293.2148
 Red. masses --      1.5320                 1.3775                 1.6426
 Frc consts  --      1.4542                 1.3258                 1.6186
 IR Inten    --      7.3230                 2.3637                 7.6234

                     34                     35                     36
                      A                      A                      A
 Frequencies --   1322.2701              1337.2556              1359.7494
 Red. masses --      1.3649                 1.2953                 1.2800
 Frc consts  --      1.4060                 1.3647                 1.3943
 IR Inten    --      3.0585                 6.7070                 5.1331

                     37                     38                     39
                      A                      A                      A
 Frequencies --   1379.7198              1406.2605              1458.3995
 Red. masses --      1.2916                 1.3914                 1.1061
 Frc consts  --      1.4486                 1.6212                 1.3861
 IR Inten    --     12.4065                 1.3892                 5.3704

                     40                     41                     42
                      A                      A                      A
 Frequencies --   1516.5986              1520.7636              2980.0690
 Red. masses --      1.0872                 1.0926                 1.0700
 Frc consts  --      1.4733                 1.4887                 5.5987
 IR Inten    --      2.0916                 0.5056                81.2792

                     43                     44                     45
                      A                      A                      A
 Frequencies --   2994.5676              3049.8117              3068.5819
 Red. masses --      1.0692                 1.0855                 1.0642
 Frc consts  --      5.6489                 5.9486                 5.9038
 IR Inten    --     40.1084                49.9651                31.4185

                     46                     47                     48
                      A                      A                      A
 Frequencies --   3070.9220              3080.7513              3094.5127
 Red. masses --      1.0923                 1.0913                 1.0885
 Frc consts  --      6.0691                 6.1027                 6.1415
 IR Inten    --     30.5408                11.8522                36.8914

                     49                     50                     51
                      A                      A                      A
 Frequencies --   3097.1960              3125.0756              3132.1911
 Red. masses --      1.0905                 1.0910                 1.1062
 Frc consts  --      6.1634                 6.2774                 6.3942
 IR Inten    --     41.4564                27.7520                22.6852

 - Thermochemistry -
 -------------------
 Temperature   298.150 Kelvin.  Pressure   1.00000 Atm.
 Atom     1 has atomic number  6 and mass  12.00000

 Molecular mass:   126.06808 amu.
 Principal axes and moments of inertia in atomic units:
                           1         2         3
     Eigenvalues --   674.36806 863.444721192.70141
           X            0.99272  -0.11995   0.01091
           Y            0.11982   0.99273   0.01180
           Z           -0.01224  -0.01041   0.99987
 This molecule is an asymmetric top.
 Rotational symmetry number  1.
 Warning -- assumption of classical behavior for rotation
           may cause significant error
 Rotational temperatures (Kelvin)      0.12844     0.10031     0.07262
 Rotational constants (GHZ):           2.67620     2.09016     1.51315
 Zero-point vibrational energy     428426.1 (Joules/Mol)
                                  102.39629 (Kcal/Mol)
 Warning -- explicit consideration of   7 degrees of freedom as
           vibrations may cause significant error
 Vibrational temperatures:    193.32   275.02   509.35   540.93   572.64
          (Kelvin)            854.35   869.59  1002.77  1030.23  1058.50
                             1197.63  1216.02  1267.96  1301.16  1317.01
                             1392.98  1405.60  1416.70  1456.94  1462.20
                             1501.29  1542.48  1613.04  1635.45  1676.25
                             1704.99  1737.59  1768.16  1779.27  1809.36
                             1826.22  1838.91  1860.65  1902.45  1924.01
                             1956.37  1985.11  2023.29  2098.31  2182.04
                             2188.04  4287.65  4308.51  4387.99  4415.00
                             4418.37  4432.51  4452.31  4456.17  4496.28
                             4506.52

 Zero-point correction=                           0.163179 (Hartree/Particle)
 Thermal correction to Energy=                    0.169682
 Thermal correction to Enthalpy=                  0.170627
 Thermal correction to Gibbs Free Energy=         0.132394
 Sum of electronic and zero-point Energies=           -423.025561
 Sum of electronic and thermal Energies=              -423.019057
 Sum of electronic and thermal Enthalpies=            -423.018113
 Sum of electronic and thermal Free Energies=         -423.056345

                     E (Thermal)             CV                S
                      KCal/Mol        Cal/Mol-Kelvin    Cal/Mol-Kelvin
 Total                  106.477             27.012             80.467
 Electronic               0.000              0.000              0.000
 Translational            0.889              2.981             40.409
 Rotational               0.889              2.981             28.031
 Vibrational            104.700             21.051             12.027
 Vibration     1          0.613              1.919              2.883
 Vibration     2          0.634              1.852              2.217
 Vibration     3          0.730              1.567              1.148
 Vibration     4          0.747              1.521              1.055
 Vibration     5          0.764              1.474              0.970
 Vibration     6          0.951              1.045              0.460
 Vibration     7          0.963              1.022              0.442

 Optimization completed.
    -- Stationary point found.
 Normal termination of Gaussian 09 at Mon Jan 27 12:11:04 2020.
