 Gaussian 09, Revision D.01,
 Gaussian 09:  ES64L-G09RevD.01 24-Apr-2013

 -----------------------------
 # b3lyp 6-31G(2df,p) opt Freq
 -----------------------------

 -----
 titel
 -----
 Symbolic Z-matrix:
 Charge =  0 Multiplicity = 1

 SCF Done:  E(RB3LYP) =  -423.177440464     A.U. after   13 cycles
 Optimization completed.
    -- Stationary point found.
 Normal termination of Gaussian 09 at Mon Jan 27 23:51:41 2020.

 ----------------------------------------------------------------------
 #N Geom=AllCheck Guess=TCheck SCRF=Check GenChk RB3LYP/6-31G(2df,p) Fr
 eq
 ----------------------------------------------------------------------

 Structure from the checkpoint file:  "/scratch/puck/g09_70631e51-1ac3-401d-b1f3-ffa42028f39d/Gau-194063.chk"
 -----
 titel
 -----
 Charge =  0 Multiplicity = 1

                         Standard orientation:
 ---------------------------------------------------------------------
 Center     Atomic      Atomic             Coordinates (Angstroms)
 Number     Number       Type             X           Y           Z
 ---------------------------------------------------------------------
      1          8           0        2.399230   -0.009903   -0.077162
      2          6           0        1.156125    0.573990    0.261881
      3          6           0        0.258188   -0.401741    1.058026
      4          6           0        0.216022   -1.556698    0.031507
      5          6           0       -0.574600   -0.697190   -0.968682
      6          8           0       -1.783746   -0.558103   -0.197707
      7          6           0       -1.203319    0.252033    0.835843
      8          6           0       -0.942705    1.511727   -0.017651
      9          6           0        0.104840    0.765279   -0.870785
     10          1           0        2.885383    0.627487   -0.608590
     11          1           0        1.331366    1.518763    0.790931
     12          1           0        0.542732   -0.626486    2.084381
     13          1           0        1.213280   -1.864613   -0.275285
     14          1           0       -0.379241   -2.418646    0.334045
     15          1           0       -0.795108   -1.082294   -1.962493
     16          1           0       -1.864714    0.310869    1.698496
     17          1           0       -1.856793    1.798782   -0.537949
     18          1           0       -0.525979    2.379256    0.499734
     19          1           0        0.437896    1.216521   -1.805152
 ---------------------------------------------------------------------

 SCF Done:  E(RB3LYP) =  -423.177440464     A.U. after    1 cycles

 The electronic state is 1-A.
 Alpha  occ. eigenvalues --  -19.13983 -19.12846 -10.23083 -10.23053 -10.22766
 Alpha  occ. eigenvalues --  -10.18866 -10.18730 -10.17922 -10.16769  -1.04394
 Alpha  occ. eigenvalues --   -1.02203  -0.83695  -0.75611  -0.71009  -0.65964
 Alpha  occ. eigenvalues --   -0.58566  -0.56153  -0.54157  -0.52626  -0.52101
 Alpha  occ. eigenvalues --   -0.45725  -0.44991  -0.42940  -0.39760  -0.37503
 Alpha  occ. eigenvalues --   -0.37040  -0.34881  -0.34128  -0.33583  -0.32604
 Alpha  occ. eigenvalues --   -0.31189  -0.29639  -0.26315  -0.24293
 Alpha virt. eigenvalues --    0.07176   0.10005   0.11643   0.12529   0.13032
 Alpha virt. eigenvalues --    0.15755   0.16090   0.16565   0.17218   0.17607
 Alpha virt. eigenvalues --    0.18032   0.18764   0.20363   0.21634   0.22280

 Mulliken charges:
               1
     1  O   -0.454561
     2  C    0.174349
     3  C   -0.097309
     4  C   -0.198790
     5  C    0.070626
     6  O   -0.263438
     7  C    0.066459
     8  C   -0.205918
     9  C   -0.128027
    10  H    0.282148
    11  H    0.062221
    12  H    0.068077
    13  H    0.121305
    14  H    0.097709
    15  H    0.074617
    16  H    0.076312
    17  H    0.105895
    18  H    0.090507
    19  H    0.057816
 Sum of Mulliken charges =   0.00000

 Dipole moment (field-independent basis, Debye):
    X=              1.1559    Y=              1.7300    Z=             -0.3163  Tot=              2.1045
 Quadrupole moment (field-independent basis, Debye-Ang):
   XX=            -56.2232   YY=            -51.8000   ZZ=            -50.0888
   XY=              1.8794   XZ=             -3.2684   YZ=             -0.1735

  Exact polarizability:  74.809  -0.758  74.396  -1.812   0.365  69.161
 Approx polarizability: 111.162   0.515 108.563  -2.441   1.689 106.806

                      1                      2                      3
                      A                      A                      A
 Frequencies --    225.6339               263.3298               337.3704
 Red. masses --      2.8204                 1.3305                 3.5821
 Frc consts  --      0.0846                 0.0544                 0.2402
 IR Inten    --      3.5026                93.8175                10.6684

                      4                      5                      6
                      A                      A                      A
 Frequencies --    417.5585               501.9960               512.6967
 Red. masses --      2.9585                 3.3000                 2.2633
 Frc consts  --      0.3039                 0.4900                 0.3505
 IR Inten    --      0.8296                 2.5616                 2.2116

                      7                      8                      9
                      A                      A                      A
 Frequencies --    604.9350               656.5479               682.7938
 Red. masses --      3.5488                 5.2814                 4.4969
 Frc consts  --      0.7652                 1.3413                 1.2352
 IR Inten    --      6.7283                 9.5467                 3.6269

                     10                     11                     12
                      A                      A                      A
 Frequencies --    759.9838               807.5800               824.0782
 Red. masses --      2.7139                 3.7911                 5.0875
 Frc consts  --      0.9235                 1.4568                 2.0356
 IR Inten    --      2.1329                 4.6886                 0.4202

                     13                     14                     15
                      A                      A                      A
 Frequencies --    869.8854               892.0216               901.0256
 Red. masses --      2.3105                 2.5421                 2.9745
 Frc consts  --      1.0301                 1.1918                 1.4228
 IR Inten    --     21.5327                 4.1620                 0.7419

                     16                     17                     18
                      A                      A                      A
 Frequencies --    925.0863               933.7973               942.5549
 Red. masses --      2.4827                 2.5918                 1.8612
 Frc consts  --      1.2518                 1.3315                 0.9742
 IR Inten    --     21.0192                13.8612                 1.8415

                     19                     20                     21
                      A                      A                      A
 Frequencies --    955.4715               984.7723              1014.3840
 Red. masses --      2.8482                 1.7335                 1.8194
 Frc consts  --      1.5320                 0.9905                 1.1030
 IR Inten    --      4.1242                 5.2445                18.3645

                     22                     23                     24
                      A                      A                      A
 Frequencies --   1031.0567              1054.4384              1101.0851
 Red. masses --      1.8216                 2.0475                 1.8703
 Frc consts  --      1.1409                 1.3412                 1.3360
 IR Inten    --     20.8353                19.0625                26.9202

                     25                     26                     27
                      A                      A                      A
 Frequencies --   1112.3609              1129.1411              1162.2466
 Red. masses --      1.2227                 1.2785                 2.5812
 Frc consts  --      0.8914                 0.9604                 2.0543
 IR Inten    --      2.3035                 7.4656                59.7268

                     28                     29                     30
                      A                      A                      A
 Frequencies --   1184.8188              1201.6616              1233.1436
 Red. masses --      1.4376                 1.7580                 1.6033
 Frc consts  --      1.1890                 1.4957                 1.4364
 IR Inten    --      2.8354                 7.2149                 2.6546

                     31                     32                     33
                      A                      A                      A
 Frequencies --   1253.3714              1256.9349              1268.3210
 Red. masses --      1.2157                 1.4817                 1.4822
 Frc consts  --      1.1252                 1.3792                 1.4048
 IR Inten    --      1.3186                36.0146                 6.1872

                     34                     35                     36
                      A                      A                      A
 Frequencies --   1286.2966              1288.5106              1314.1076
 Red. masses --      1.5196                 1.4303                 1.6187
 Frc consts  --      1.4813                 1.3991                 1.6470
 IR Inten    --      5.0103                 8.0037                 4.5692

                     37                     38                     39
                      A                      A                      A
 Frequencies --   1338.1790              1356.0493              1437.8928
 Red. masses --      1.4617                 1.4353                 1.2814
 Frc consts  --      1.5422                 1.5550                 1.5609
 IR Inten    --      6.8779                24.3716                 2.6467

                     40                     41                     42
                      A                      A                      A
 Frequencies --   1492.3159              1505.0632              3017.1330
 Red. masses --      1.1130                 1.1039                 1.0846
 Frc consts  --      1.4604                 1.4733                 5.8172
 IR Inten    --     10.0541                 1.6750                39.6992

                     43                     44                     45
                      A                      A                      A
 Frequencies --   3073.5210              3097.4217              3118.5801
 Red. masses --      1.0608                 1.0611                 1.0899
 Frc consts  --      5.9039                 5.9979                 6.2452
 IR Inten    --     39.9259                21.2573                31.9902

                     46                     47                     48
                      A                      A                      A
 Frequencies --   3131.1113              3132.8761              3138.5417
 Red. masses --      1.0913                 1.1042                 1.0880
 Frc consts  --      6.3037                 6.3853                 6.3146
 IR Inten    --      9.3210                25.7456                82.7833

                     49                     50                     51
                      A                      A                      A
 Frequencies --   3143.9041              3166.0919              3827.2994
 Red. masses --      1.0936                 1.1052                 1.0663
 Frc consts  --      6.3684                 6.5275                 9.2029
 IR Inten    --      6.0697                 6.7334                25.3994

 - Thermochemistry -
 -------------------
 Temperature   298.150 Kelvin.  Pressure   1.00000 Atm.
 Atom     1 has atomic number  8 and mass  15.99491

 Molecular mass:   126.06808 amu.
 Principal axes and moments of inertia in atomic units:
                           1         2         3
     Eigenvalues --   589.60350 973.563911135.32732
           X            0.99983  -0.01489  -0.01096
           Y            0.01488   0.99989  -0.00180
           Z            0.01099   0.00164   0.99994
 This molecule is an asymmetric top.
 Rotational symmetry number  1.
 Warning -- assumption of classical behavior for rotation
           may cause significant error
 Rotational temperatures (Kelvin)      0.14690     0.08897     0.07629
 Rotational constants (GHZ):           3.06094     1.85375     1.58962
 Zero-point vibrational energy     429860.0 (Joules/Mol)
                                  102.73900 (Kcal/Mol)
 Warning -- explicit consideration of   7 degrees of freedom as
           vibrations may cause significant error
 Vibrational temperatures:    324.64   378.87   485.40   600.77   722.26
          (Kelvin)            737.66   870.37   944.62   982.39  1093.45
                             1161.93  1185.66  1251.57  1283.42  1296.37
                             1330.99  1343.52  1356.12  1374.71  1416.87
                             1459.47  1483.46  1517.10  1584.21  1600.44
                             1624.58  1672.21  1704.69  1728.92  1774.22
                             1803.32  1808.45  1824.83  1850.69  1853.88
                             1890.71  1925.34  1951.05  2068.80  2147.11
                             2165.45  4340.98  4422.11  4456.49  4486.94
                             4504.97  4507.50  4515.66  4523.37  4555.29
                             5506.62

 Zero-point correction=                           0.163725 (Hartree/Particle)
 Thermal correction to Energy=                    0.170041
 Thermal correction to Enthalpy=                  0.170985
 Thermal correction to Gibbs Free Energy=         0.133463
 Sum of electronic and zero-point Energies=           -423.013715
 Sum of electronic and thermal Energies=              -423.007400
 Sum of electronic and thermal Enthalpies=            -423.006456
 Sum of electronic and thermal Free Energies=         -423.043978

                     E (Thermal)             CV                S
                      KCal/Mol        Cal/Mol-Kelvin    Cal/Mol-Kelvin
 Total                  106.702             27.634             78.972
 Electronic               0.000              0.000              0.000
 Translational            0.889              2.981             40.409
 Rotational               0.889              2.981             27.968
 Vibrational            104.925             21.673             10.595
 Vibration     1          0.650              1.802              1.913
 Vibration     2          0.670              1.740              1.640
 Vibration     3          0.718              1.601              1.225
 Vibration     4          0.781              1.432              0.900
 Vibration     5          0.857              1.246              0.653
 Vibration     6          0.868              1.222              0.627
 Vibration     7          0.963              1.021              0.441

 Optimization completed.
    -- Stationary point found.
 Normal termination of Gaussian 09 at Tue Jan 28 00:39:44 2020.
