 Gaussian 09, Revision D.01,
 Gaussian 09:  ES64L-G09RevD.01 24-Apr-2013

 -----------------------------
 # b3lyp 6-31G(2df,p) opt Freq
 -----------------------------

 -----
 titel
 -----
 Symbolic Z-matrix:
 Charge =  0 Multiplicity = 1

 SCF Done:  E(RB3LYP) =  -423.149661200     A.U. after   14 cycles
 Optimization completed.
    -- Stationary point found.
 Normal termination of Gaussian 09 at Tue Jan 28 14:02:53 2020.

 ----------------------------------------------------------------------
 #N Geom=AllCheck Guess=TCheck SCRF=Check GenChk RB3LYP/6-31G(2df,p) Fr
 eq
 ----------------------------------------------------------------------

 Structure from the checkpoint file:  "/scratch/puck/g09_ba214e9f-e344-47a8-8713-3c17d25bce8b/Gau-143679.chk"
 -----
 titel
 -----
 Charge =  0 Multiplicity = 1

                         Standard orientation:
 ---------------------------------------------------------------------
 Center     Atomic      Atomic             Coordinates (Angstroms)
 Number     Number       Type             X           Y           Z
 ---------------------------------------------------------------------
      1          8           0        1.940179   -1.923030   -0.058520
      2          6           0        1.569440   -0.547444   -0.031141
      3          6           0        0.162434   -0.510028    0.546055
      4          6           0       -0.889711   -1.145017   -0.379840
      5          6           0       -2.271959   -1.005308    0.189879
      6          6           0       -1.643536    0.179686   -0.487740
      7          6           0       -0.625343    0.843639    0.462434
      8          6           0        0.028676    2.087572   -0.080624
      9          8           0        1.207760    2.334208   -0.108278
     10          1           0        2.827868   -1.982759   -0.422835
     11          1           0        2.254082    0.045764    0.587103
     12          1           0        1.582161   -0.114388   -1.041318
     13          1           0        0.195641   -0.946901    1.550367
     14          1           0       -0.653339   -1.865214   -1.152334
     15          1           0       -3.059227   -1.498305   -0.371668
     16          1           0       -2.428661   -1.001488    1.266896
     17          1           0       -2.084990    0.657938   -1.354701
     18          1           0       -1.082855    1.164169    1.412600
     19          1           0       -0.714198    2.833160   -0.453859
 ---------------------------------------------------------------------

 SCF Done:  E(RB3LYP) =  -423.149661200     A.U. after    1 cycles

 The electronic state is 1-A.
 Alpha  occ. eigenvalues --  -19.14321 -19.12965 -10.27502 -10.21991 -10.20522
 Alpha  occ. eigenvalues --  -10.20138 -10.19401 -10.19304 -10.19140  -1.05007
 Alpha  occ. eigenvalues --   -1.00991  -0.90248  -0.76142  -0.71861  -0.62995
 Alpha  occ. eigenvalues --   -0.59572  -0.58502  -0.53035  -0.50547  -0.49950
 Alpha  occ. eigenvalues --   -0.47685  -0.46668  -0.43293  -0.42384  -0.40721
 Alpha  occ. eigenvalues --   -0.38959  -0.38251  -0.33758  -0.33155  -0.32188
 Alpha  occ. eigenvalues --   -0.29773  -0.26719  -0.26172  -0.24942
 Alpha virt. eigenvalues --   -0.02505   0.07745   0.09607   0.10975   0.11238
 Alpha virt. eigenvalues --    0.11410   0.13176   0.14991   0.16101   0.16962
 Alpha virt. eigenvalues --    0.17207   0.19280   0.20370   0.21491   0.22104

 Mulliken charges:
               1
     1  O   -0.428589
     2  C   -0.104513
     3  C   -0.006019
     4  C   -0.011436
     5  C   -0.301912
     6  C   -0.063019
     7  C   -0.126692
     8  C    0.136842
     9  O   -0.246012
    10  H    0.286822
    11  H    0.106010
    12  H    0.088607
    13  H    0.080248
    14  H    0.098348
    15  H    0.115281
    16  H    0.106182
    17  H    0.088350
    18  H    0.101373
    19  H    0.080129
 Sum of Mulliken charges =   0.00000

 Dipole moment (field-independent basis, Debye):
    X=             -1.3418    Y=             -0.1912    Z=             -0.3991  Tot=              1.4128
 Quadrupole moment (field-independent basis, Debye-Ang):
   XX=            -49.2551   YY=            -58.9221   ZZ=            -51.1110
   XY=             -5.0306   XZ=             -1.0077   YZ=              2.0097

  Exact polarizability:  86.624   1.447  79.817  -0.084  -1.348  61.735
 Approx polarizability: 123.843   2.656 112.169  -1.108  -2.646  96.535

                      1                      2                      3
                      A                      A                      A
 Frequencies --     49.8645               124.4620               156.5450
 Red. masses --      3.6451                 3.5211                 2.4240
 Frc consts  --      0.0053                 0.0321                 0.0350
 IR Inten    --      5.2007                 1.0128                 2.2642

                      4                      5                      6
                      A                      A                      A
 Frequencies --    170.0719               217.7109               250.5820
 Red. masses --      5.7161                 3.9538                 1.1947
 Frc consts  --      0.0974                 0.1104                 0.0442
 IR Inten    --      6.5645                 2.4251                84.4109

                      7                      8                      9
                      A                      A                      A
 Frequencies --    283.3884               363.4672               418.1199
 Red. masses --      1.8960                 5.0248                 3.7026
 Frc consts  --      0.0897                 0.3911                 0.3814
 IR Inten    --     20.2206                 1.8197                 7.6084

                     10                     11                     12
                      A                      A                      A
 Frequencies --    483.8184               674.6235               699.4053
 Red. masses --      2.8810                 3.3159                 3.1386
 Frc consts  --      0.3973                 0.8892                 0.9046
 IR Inten    --      6.6398                13.2848                 9.3720

                     13                     14                     15
                      A                      A                      A
 Frequencies --    776.1123               809.5857               845.8815
 Red. masses --      1.8535                 1.7426                 2.6774
 Frc consts  --      0.6578                 0.6729                 1.1287
 IR Inten    --      4.1376                 3.5684                 2.8015

                     16                     17                     18
                      A                      A                      A
 Frequencies --    920.1708               935.5927               940.5235
 Red. masses --      1.6552                 1.9353                 2.8832
 Frc consts  --      0.8257                 0.9981                 1.5027
 IR Inten    --      5.7507                 2.3461                26.1316

                     19                     20                     21
                      A                      A                      A
 Frequencies --    983.0067              1000.7788              1039.8877
 Red. masses --      1.5213                 1.3924                 1.6079
 Frc consts  --      0.8661                 0.8217                 1.0244
 IR Inten    --      3.8315                 0.2275                13.3836

                     22                     23                     24
                      A                      A                      A
 Frequencies --   1062.9579              1070.4042              1084.2463
 Red. masses --      2.0044                 2.1453                 1.5425
 Frc consts  --      1.3343                 1.4482                 1.0684
 IR Inten    --     36.3653                46.4408                 1.6577

                     25                     26                     27
                      A                      A                      A
 Frequencies --   1094.2517              1112.8534              1135.8926
 Red. masses --      1.6102                 1.8555                 1.9585
 Frc consts  --      1.1360                 1.3539                 1.4888
 IR Inten    --      8.0452                 7.2505                 6.8096

                     28                     29                     30
                      A                      A                      A
 Frequencies --   1186.4880              1206.3151              1223.6597
 Red. masses --      1.8524                 1.5035                 1.3142
 Frc consts  --      1.5364                 1.2891                 1.1594
 IR Inten    --     12.4002                 2.3346                14.8836

                     31                     32                     33
                      A                      A                      A
 Frequencies --   1252.1649              1263.5087              1292.6230
 Red. masses --      1.2668                 1.4176                 1.5276
 Frc consts  --      1.1703                 1.3334                 1.5039
 IR Inten    --     16.3965                 1.1402                22.6098

                     34                     35                     36
                      A                      A                      A
 Frequencies --   1323.4673              1352.4061              1364.4533
 Red. masses --      1.6580                 2.0831                 1.5808
 Frc consts  --      1.7111                 2.2448                 1.7340
 IR Inten    --      0.5582                10.1868                 0.3769

                     37                     38                     39
                      A                      A                      A
 Frequencies --   1426.2140              1457.7718              1490.1188
 Red. masses --      1.2034                 1.4614                 1.2140
 Frc consts  --      1.4422                 1.8298                 1.5882
 IR Inten    --      6.8193                 5.9034                 2.1966

                     40                     41                     42
                      A                      A                      A
 Frequencies --   1511.3507              1824.8557              2844.4730
 Red. masses --      1.0905                10.8468                 1.0811
 Frc consts  --      1.4675                21.2819                 5.1537
 IR Inten    --      1.1887               169.5402               130.2184

                     43                     44                     45
                      A                      A                      A
 Frequencies --   2977.4741              3001.3785              3038.8974
 Red. masses --      1.0812                 1.0614                 1.0874
 Frc consts  --      5.6473                 5.6333                 5.9164
 IR Inten    --     28.4894                35.1791                12.8227

                     46                     47                     48
                      A                      A                      A
 Frequencies --   3055.6229              3102.0498              3172.2376
 Red. masses --      1.0983                 1.0576                 1.0915
 Frc consts  --      6.0417                 5.9962                 6.4716
 IR Inten    --     64.4475                23.6215                13.7314

                     49                     50                     51
                      A                      A                      A
 Frequencies --   3193.2649              3204.6429              3833.4695
 Red. masses --      1.1059                 1.0996                 1.0664
 Frc consts  --      6.6441                 6.6536                 9.2332
 IR Inten    --      4.2289                16.7092                23.9293

 - Thermochemistry -
 -------------------
 Temperature   298.150 Kelvin.  Pressure   1.00000 Atm.
 Atom     1 has atomic number  8 and mass  15.99491

 Molecular mass:   126.06808 amu.
 Principal axes and moments of inertia in atomic units:
                           1         2         3
     Eigenvalues --  1004.370701025.835501868.09626
           X            0.40149   0.91586  -0.00331
           Y            0.91586  -0.40148   0.00176
           Z           -0.00028   0.00374   0.99999
 This molecule is an asymmetric top.
 Rotational symmetry number  1.
 Warning -- assumption of classical behavior for rotation
           may cause significant error
 Rotational temperatures (Kelvin)      0.08624     0.08443     0.04636
 Rotational constants (GHZ):           1.79689     1.75929     0.96609
 Zero-point vibrational energy     414524.7 (Joules/Mol)
                                   99.07377 (Kcal/Mol)
 Warning -- explicit consideration of  10 degrees of freedom as
           vibrations may cause significant error
 Vibrational temperatures:     71.74   179.07   225.23   244.70   313.24
          (Kelvin)            360.53   407.73   522.95   601.58   696.11
                              970.63  1006.29  1116.65  1164.81  1217.03
                             1323.92  1346.11  1353.20  1414.33  1439.90
                             1496.16  1529.36  1540.07  1559.99  1574.38
                             1601.15  1634.29  1707.09  1735.62  1760.57
                             1801.58  1817.90  1859.79  1904.17  1945.81
                             1963.14  2052.00  2097.41  2143.95  2174.49
                             2625.56  4092.56  4283.92  4318.31  4372.29
                             4396.35  4463.15  4564.14  4594.39  4610.76
                             5515.50

 Zero-point correction=                           0.157884 (Hartree/Particle)
 Thermal correction to Energy=                    0.166825
 Thermal correction to Enthalpy=                  0.167769
 Thermal correction to Gibbs Free Energy=         0.123646
 Sum of electronic and zero-point Energies=           -422.991777
 Sum of electronic and thermal Energies=              -422.982836
 Sum of electronic and thermal Enthalpies=            -422.981892
 Sum of electronic and thermal Free Energies=         -423.026015

                     E (Thermal)             CV                S
                      KCal/Mol        Cal/Mol-Kelvin    Cal/Mol-Kelvin
 Total                  104.684             32.834             92.866
 Electronic               0.000              0.000              0.000
 Translational            0.889              2.981             40.409
 Rotational               0.889              2.981             29.044
 Vibrational            102.907             26.873             23.413
 Vibration     1          0.595              1.978              4.823
 Vibration     2          0.610              1.929              3.030
 Vibration     3          0.620              1.895              2.591
 Vibration     4          0.625              1.879              2.435
 Vibration     5          0.646              1.814              1.978
 Vibration     6          0.663              1.762              1.726
 Vibration     7          0.682              1.704              1.513
 Vibration     8          0.737              1.547              1.107
 Vibration     9          0.781              1.431              0.898
 Vibration    10          0.840              1.286              0.700

 Optimization completed.
    -- Stationary point found.
 Normal termination of Gaussian 09 at Tue Jan 28 14:49:25 2020.
