 Gaussian 09, Revision D.01,
 Gaussian 09:  ES64L-G09RevD.01 24-Apr-2013

 -----------------------------
 # b3lyp 6-31G(2df,p) opt Freq
 -----------------------------

 -----
 titel
 -----
 Symbolic Z-matrix:
 Charge =  0 Multiplicity = 1

 SCF Done:  E(RB3LYP) =  -423.140089088     A.U. after   13 cycles
 Optimization completed.
    -- Stationary point found.
 Normal termination of Gaussian 09 at Tue Jan 28 02:51:45 2020.

 ----------------------------------------------------------------------
 #N Geom=AllCheck Guess=TCheck SCRF=Check GenChk RB3LYP/6-31G(2df,p) Fr
 eq
 ----------------------------------------------------------------------

 Structure from the checkpoint file:  "/scratch/puck/g09_53609943-23a9-413a-9523-256c6c974a55/Gau-112811.chk"
 -----
 titel
 -----
 Charge =  0 Multiplicity = 1

                         Standard orientation:
 ---------------------------------------------------------------------
 Center     Atomic      Atomic             Coordinates (Angstroms)
 Number     Number       Type             X           Y           Z
 ---------------------------------------------------------------------
      1          8           0       -2.621281   -0.529912   -0.024832
      2          6           0       -1.369067   -0.191405   -0.572196
      3          6           0       -1.003141    1.319001   -0.427322
      4          6           0        0.317204    0.912545    0.262308
      5          6           0        0.030288    0.135920    1.531343
      6          6           0       -0.092684   -0.546775    0.202371
      7          8           0        0.929958   -1.356461   -0.286003
      8          6           0        2.136159   -0.570059   -0.262881
      9          6           0        1.722543    0.937704   -0.297407
     10          1           0       -2.695337   -1.490356   -0.016047
     11          1           0       -1.269822   -0.528865   -1.612668
     12          1           0       -0.869701    1.822792   -1.386593
     13          1           0       -1.697337    1.897930    0.187806
     14          1           0        0.886339   -0.155169    2.129435
     15          1           0       -0.862192    0.368984    2.104245
     16          1           0        2.701220   -0.790677    0.652631
     17          1           0        2.750369   -0.871916   -1.116175
     18          1           0        2.442140    1.550125    0.254986
     19          1           0        1.697091    1.306555   -1.328240
 ---------------------------------------------------------------------

 SCF Done:  E(RB3LYP) =  -423.140089088     A.U. after    1 cycles

 The electronic state is 1-A.
 Alpha  occ. eigenvalues --  -19.14473 -19.13520 -10.23637 -10.23237 -10.22275
 Alpha  occ. eigenvalues --  -10.19406 -10.18955 -10.18885 -10.18692  -1.04563
 Alpha  occ. eigenvalues --   -1.01749  -0.88368  -0.76193  -0.72903  -0.64817
 Alpha  occ. eigenvalues --   -0.62749  -0.57391  -0.52676  -0.51050  -0.50496
 Alpha  occ. eigenvalues --   -0.46325  -0.43390  -0.43026  -0.41987  -0.40866
 Alpha  occ. eigenvalues --   -0.39514  -0.37807  -0.34891  -0.33740  -0.31964
 Alpha  occ. eigenvalues --   -0.30527  -0.29021  -0.24771  -0.21733
 Alpha virt. eigenvalues --    0.07169   0.08718   0.09758   0.11143   0.11917
 Alpha virt. eigenvalues --    0.12948   0.14815   0.15592   0.16802   0.17243
 Alpha virt. eigenvalues --    0.17467   0.18922   0.19417   0.20402   0.23004

 Mulliken charges:
               1
     1  O   -0.429864
     2  C    0.066039
     3  C   -0.308292
     4  C    0.209648
     5  C   -0.397423
     6  C    0.320348
     7  O   -0.295363
     8  C   -0.097135
     9  C   -0.320922
    10  H    0.282958
    11  H    0.077434
    12  H    0.105019
    13  H    0.110257
    14  H    0.119270
    15  H    0.124010
    16  H    0.104231
    17  H    0.112810
    18  H    0.107985
    19  H    0.108990
 Sum of Mulliken charges =   0.00000

 Dipole moment (field-independent basis, Debye):
    X=              1.2585    Y=              0.2898    Z=             -0.3079  Tot=              1.3276
 Quadrupole moment (field-independent basis, Debye-Ang):
   XX=            -53.1552   YY=            -53.6011   ZZ=            -51.4502
   XY=              3.6555   XZ=              0.4764   YZ=             -0.8817

  Exact polarizability:  84.508   0.114  67.935  -1.327  -1.156  69.432
 Approx polarizability: 112.688   2.048 107.862  -2.540   0.131 104.642

                      1                      2                      3
                      A                      A                      A
 Frequencies --    118.4093               181.6435               246.8686
 Red. masses --      3.4331                 2.0000                 2.3986
 Frc consts  --      0.0284                 0.0389                 0.0861
 IR Inten    --      1.6141                 0.2239                29.9418

                      4                      5                      6
                      A                      A                      A
 Frequencies --    279.5221               311.8900               344.1544
 Red. masses --      1.4204                 3.2398                 2.4845
 Frc consts  --      0.0654                 0.1857                 0.1734
 IR Inten    --     54.5082                27.9096                13.7180

                      7                      8                      9
                      A                      A                      A
 Frequencies --    447.0437               470.3056               561.1280
 Red. masses --      2.2525                 3.3803                 3.5158
 Frc consts  --      0.2652                 0.4405                 0.6522
 IR Inten    --      4.4462                 8.6957                18.7498

                     10                     11                     12
                      A                      A                      A
 Frequencies --    625.3425               669.0964               726.1876
 Red. masses --      2.9576                 2.9603                 5.3655
 Frc consts  --      0.6814                 0.7808                 1.6671
 IR Inten    --      1.8241                 6.9063                 0.8306

                     13                     14                     15
                      A                      A                      A
 Frequencies --    792.1157               838.0699               854.0323
 Red. masses --      2.5142                 1.8844                 2.4083
 Frc consts  --      0.9295                 0.7798                 1.0349
 IR Inten    --      8.3371                 1.0049                 5.6743

                     16                     17                     18
                      A                      A                      A
 Frequencies --    870.6032               914.0122               932.7627
 Red. masses --      3.9930                 2.6618                 1.8213
 Frc consts  --      1.7832                 1.3102                 0.9336
 IR Inten    --     14.7206                 6.1931                 5.9439

                     19                     20                     21
                      A                      A                      A
 Frequencies --    949.2349               960.9631              1010.8809
 Red. masses --      1.5059                 2.3515                 3.7864
 Frc consts  --      0.7994                 1.2794                 2.2797
 IR Inten    --      1.1507                10.5730                45.6644

                     22                     23                     24
                      A                      A                      A
 Frequencies --   1034.9830              1064.4732              1080.7416
 Red. masses --      1.8125                 1.3459                 2.1332
 Frc consts  --      1.1439                 0.8985                 1.4680
 IR Inten    --      2.2357                 2.7801               116.7817

                     25                     26                     27
                      A                      A                      A
 Frequencies --   1136.9351              1170.4482              1206.0671
 Red. masses --      1.9016                 2.3889                 1.6347
 Frc consts  --      1.4482                 1.9282                 1.4010
 IR Inten    --     51.9996                 1.3162                 3.6923

                     28                     29                     30
                      A                      A                      A
 Frequencies --   1217.0181              1232.3472              1234.9566
 Red. masses --      1.4672                 1.2438                 1.3157
 Frc consts  --      1.2804                 1.1129                 1.1822
 IR Inten    --     21.4380                 7.3158                45.4837

                     31                     32                     33
                      A                      A                      A
 Frequencies --   1254.2578              1268.8473              1324.2060
 Red. masses --      1.4420                 1.8602                 1.9381
 Frc consts  --      1.3366                 1.7645                 2.0023
 IR Inten    --     37.0078                 1.8740                20.0275

                     34                     35                     36
                      A                      A                      A
 Frequencies --   1335.5363              1368.5132              1390.5877
 Red. masses --      1.7369                 2.5643                 1.5460
 Frc consts  --      1.8253                 2.8295                 1.7614
 IR Inten    --     11.3396                 4.2523                 4.4872

                     37                     38                     39
                      A                      A                      A
 Frequencies --   1414.2434              1467.9991              1485.9548
 Red. masses --      1.4318                 1.1473                 1.2060
 Frc consts  --      1.6873                 1.4568                 1.5689
 IR Inten    --     13.5317                 3.4206                 8.9135

                     40                     41                     42
                      A                      A                      A
 Frequencies --   1497.3035              1524.2736              3011.5321
 Red. masses --      1.1388                 1.0915                 1.0710
 Frc consts  --      1.5042                 1.4941                 5.7229
 IR Inten    --      4.4411                 0.8055                42.7168

                     43                     44                     45
                      A                      A                      A
 Frequencies --   3012.5253              3044.8560              3061.1813
 Red. masses --      1.0828                 1.0597                 1.0594
 Frc consts  --      5.7897                 5.7885                 5.8493
 IR Inten    --     47.8437                31.9680                38.1662

                     46                     47                     48
                      A                      A                      A
 Frequencies --   3078.6651              3092.5297              3120.5668
 Red. masses --      1.0972                 1.1043                 1.1074
 Frc consts  --      6.1270                 6.2225                 6.3537
 IR Inten    --     29.8925                35.8740                20.9490

                     49                     50                     51
                      A                      A                      A
 Frequencies --   3127.2723              3219.5684              3805.7846
 Red. masses --      1.0560                 1.1156                 1.0659
 Frc consts  --      6.0849                 6.8131                 9.0962
 IR Inten    --     10.5951                 4.6997                21.7072

 - Thermochemistry -
 -------------------
 Temperature   298.150 Kelvin.  Pressure   1.00000 Atm.
 Atom     1 has atomic number  8 and mass  15.99491

 Molecular mass:   126.06808 amu.
 Principal axes and moments of inertia in atomic units:
                           1         2         3
     Eigenvalues --   551.917621227.862881380.73235
           X            0.99999   0.00511   0.00030
           Y           -0.00509   0.99918  -0.04017
           Z           -0.00050   0.04017   0.99919
 This molecule is an asymmetric top.
 Rotational symmetry number  1.
 Warning -- assumption of classical behavior for rotation
           may cause significant error
 Rotational temperatures (Kelvin)      0.15693     0.07054     0.06273
 Rotational constants (GHZ):           3.26995     1.46982     1.30709
 Zero-point vibrational energy     421016.4 (Joules/Mol)
                                  100.62533 (Kcal/Mol)
 Warning -- explicit consideration of   9 degrees of freedom as
           vibrations may cause significant error
 Vibrational temperatures:    170.36   261.34   355.19   402.17   448.74
          (Kelvin)            495.16   643.20   676.66   807.34   899.73
                              962.68  1044.82  1139.68  1205.79  1228.76
                             1252.60  1315.06  1342.04  1365.74  1382.61
                             1454.43  1489.11  1531.54  1554.94  1635.79
                             1684.01  1735.26  1751.02  1773.07  1776.82
                             1804.59  1825.59  1905.23  1921.54  1968.98
                             2000.74  2034.78  2112.12  2137.95  2154.28
                             2193.09  4332.92  4334.35  4380.86  4404.35
                             4429.51  4449.45  4489.79  4499.44  4632.24
                             5475.67

 Zero-point correction=                           0.160357 (Hartree/Particle)
 Thermal correction to Energy=                    0.168035
 Thermal correction to Enthalpy=                  0.168979
 Thermal correction to Gibbs Free Energy=         0.128557
 Sum of electronic and zero-point Energies=           -422.979732
 Sum of electronic and thermal Energies=              -422.972054
 Sum of electronic and thermal Enthalpies=            -422.971110
 Sum of electronic and thermal Free Energies=         -423.011532

                     E (Thermal)             CV                S
                      KCal/Mol        Cal/Mol-Kelvin    Cal/Mol-Kelvin
 Total                  105.443             30.874             85.075
 Electronic               0.000              0.000              0.000
 Translational            0.889              2.981             40.409
 Rotational               0.889              2.981             28.328
 Vibrational            103.666             24.913             16.339
 Vibration     1          0.609              1.934              3.126
 Vibration     2          0.630              1.865              2.311
 Vibration     3          0.661              1.768              1.753
 Vibration     4          0.680              1.711              1.537
 Vibration     5          0.700              1.651              1.352
 Vibration     6          0.723              1.587              1.193
 Vibration     7          0.806              1.367              0.805
 Vibration     8          0.827              1.316              0.737
 Vibration     9          0.917              1.115              0.522

 Optimization completed.
    -- Stationary point found.
 Normal termination of Gaussian 09 at Tue Jan 28 03:41:05 2020.
 Normal termination of Gaussian 09 at Tue Jan 28 02:44:28 2020.
