 Gaussian 09, Revision D.01,
 Gaussian 09:  ES64L-G09RevD.01 24-Apr-2013

 -----------------------------
 # b3lyp 6-31G(2df,p) opt Freq
 -----------------------------

 -----
 titel
 -----
 Symbolic Z-matrix:
 Charge =  0 Multiplicity = 1

 SCF Done:  E(RB3LYP) =  -423.165497282     A.U. after   14 cycles
 Optimization completed.
    -- Stationary point found.
 Normal termination of Gaussian 09 at Tue Jan 28 02:54:51 2020.

 ----------------------------------------------------------------------
 #N Geom=AllCheck Guess=TCheck SCRF=Check GenChk RB3LYP/6-31G(2df,p) Fr
 eq
 ----------------------------------------------------------------------

 Structure from the checkpoint file:  "/scratch/puck/g09_73ae934c-5d50-420b-b8de-26b660d357fa/Gau-11429.chk"
 -----
 titel
 -----
 Charge =  0 Multiplicity = 1

                         Standard orientation:
 ---------------------------------------------------------------------
 Center     Atomic      Atomic             Coordinates (Angstroms)
 Number     Number       Type             X           Y           Z
 ---------------------------------------------------------------------
      1          6           0       -3.127151    0.195550   -0.392841
      2          6           0       -1.801481    0.154987    0.339012
      3          8           0       -1.213559   -1.182137    0.304459
      4          6           0       -0.058889   -0.706836   -0.390977
      5          6           0        1.114445   -0.284927    0.571004
      6          6           0        0.594229    1.178355    0.537826
      7          6           0       -0.574754    0.756288   -0.385579
      8          6           0        2.475554   -0.519777   -0.023171
      9          8           0        3.176783    0.329116   -0.515281
     10          1           0       -3.545114    1.208026   -0.368775
     11          1           0       -3.005931   -0.107548   -1.437483
     12          1           0       -3.842799   -0.483836    0.080316
     13          1           0       -1.923512    0.495892    1.376365
     14          1           0        0.188825   -1.311477   -1.267969
     15          1           0        1.040056   -0.821785    1.521608
     16          1           0        0.308279    1.612046    1.499107
     17          1           0        1.317538    1.834246    0.049558
     18          1           0       -0.769752    1.344196   -1.282007
     19          1           0        2.794900   -1.587433   -0.015786
 ---------------------------------------------------------------------

 SCF Done:  E(RB3LYP) =  -423.165497282     A.U. after    1 cycles

 The electronic state is 1-A.
 Alpha  occ. eigenvalues --  -19.14259 -19.14008 -10.27235 -10.24729 -10.24178
 Alpha  occ. eigenvalues --  -10.19870 -10.19722 -10.18966 -10.18263  -1.05011
 Alpha  occ. eigenvalues --   -1.04654  -0.83715  -0.76636  -0.70749  -0.65761
 Alpha  occ. eigenvalues --   -0.62872  -0.56976  -0.52391  -0.51105  -0.49800
 Alpha  occ. eigenvalues --   -0.47982  -0.45894  -0.43005  -0.41368  -0.40619
 Alpha  occ. eigenvalues --   -0.38933  -0.38209  -0.38091  -0.34863  -0.33654
 Alpha  occ. eigenvalues --   -0.30804  -0.29288  -0.26475  -0.24444
 Alpha virt. eigenvalues --   -0.02609   0.06936   0.08843   0.09973   0.11286
 Alpha virt. eigenvalues --    0.12885   0.13208   0.14581   0.15389   0.16373
 Alpha virt. eigenvalues --    0.16922   0.17739   0.18765   0.19666   0.20429

 Mulliken charges:
               1
     1  C   -0.403661
     2  C    0.150500
     3  O   -0.305755
     4  C    0.100731
     5  C   -0.101270
     6  C   -0.277550
     7  C   -0.081999
     8  C    0.128625
     9  O   -0.240247
    10  H    0.117843
    11  H    0.122128
    12  H    0.129497
    13  H    0.077166
    14  H    0.084132
    15  H    0.101639
    16  H    0.102945
    17  H    0.133905
    18  H    0.081033
    19  H    0.080337
 Sum of Mulliken charges =   0.00000

 Dipole moment (field-independent basis, Debye):
    X=             -1.7952    Y=              0.2002    Z=              0.4288  Tot=              1.8566
 Quadrupole moment (field-independent basis, Debye-Ang):
   XX=            -60.1310   YY=            -54.1268   ZZ=            -51.9020
   XY=             -6.4728   XZ=              3.2892   YZ=              1.2823

  Exact polarizability:  96.485  -2.461  71.336  -1.693   0.438  63.344
 Approx polarizability: 122.343   3.782 112.516  -6.947  -3.152  98.563

                      1                      2                      3
                      A                      A                      A
 Frequencies --     56.0267                88.2432               159.5373
 Red. masses --      4.3817                 3.9291                 3.5350
 Frc consts  --      0.0081                 0.0180                 0.0530
 IR Inten    --      1.4624                 8.1053                 4.2096

                      4                      5                      6
                      A                      A                      A
 Frequencies --    242.0446               251.4892               264.0606
 Red. masses --      1.1544                 2.2445                 2.3160
 Frc consts  --      0.0398                 0.0836                 0.0951
 IR Inten    --      1.7575                 1.0219                 0.2545

                      7                      8                      9
                      A                      A                      A
 Frequencies --    306.4161               378.6827               476.5496
 Red. masses --      3.6255                 3.2114                 3.4052
 Frc consts  --      0.2006                 0.2713                 0.4556
 IR Inten    --      3.6975                 4.9932                 2.0954

                     10                     11                     12
                      A                      A                      A
 Frequencies --    660.9160               696.4394               789.5414
 Red. masses --      2.5173                 3.8596                 2.6487
 Frc consts  --      0.6479                 1.1030                 0.9728
 IR Inten    --      3.9188                 9.8461                21.6914

                     13                     14                     15
                      A                      A                      A
 Frequencies --    812.7471               832.4440               871.6721
 Red. masses --      2.1503                 2.2138                 2.2129
 Frc consts  --      0.8369                 0.9039                 0.9906
 IR Inten    --      1.7817                14.9841                 3.8713

                     16                     17                     18
                      A                      A                      A
 Frequencies --    884.6178               903.1817               974.4413
 Red. masses --      2.3442                 2.9079                 2.0990
 Frc consts  --      1.0808                 1.3976                 1.1743
 IR Inten    --     22.8895                13.9955                28.2262

                     19                     20                     21
                      A                      A                      A
 Frequencies --    984.8111              1020.4294              1036.3662
 Red. masses --      1.6270                 1.8781                 4.6638
 Frc consts  --      0.9297                 1.1522                 2.9513
 IR Inten    --      5.2751                 0.8037               116.3541

                     22                     23                     24
                      A                      A                      A
 Frequencies --   1070.5040              1080.8303              1101.6934
 Red. masses --      1.9308                 1.7485                 2.0219
 Frc consts  --      1.3036                 1.2034                 1.4459
 IR Inten    --     45.5030                 9.3820                 2.4018

                     25                     26                     27
                      A                      A                      A
 Frequencies --   1123.7896              1154.0510              1181.8657
 Red. masses --      2.2533                 1.4688                 1.5894
 Frc consts  --      1.6766                 1.1525                 1.3081
 IR Inten    --      8.5308                24.5901                 1.2629

                     28                     29                     30
                      A                      A                      A
 Frequencies --   1201.1551              1226.6064              1263.1466
 Red. masses --      1.9708                 1.4766                 1.3139
 Frc consts  --      1.6753                 1.3090                 1.2351
 IR Inten    --      6.1328                 1.3477                 1.9849

                     31                     32                     33
                      A                      A                      A
 Frequencies --   1276.5101              1295.4575              1333.0396
 Red. masses --      1.6300                 1.3322                 1.5100
 Frc consts  --      1.5649                 1.3173                 1.5809
 IR Inten    --      2.2105                 7.0745                 4.7882

                     34                     35                     36
                      A                      A                      A
 Frequencies --   1344.3633              1390.6800              1407.5915
 Red. masses --      1.6210                 1.4001                 1.3531
 Frc consts  --      1.7261                 1.5953                 1.5795
 IR Inten    --     37.2759                 2.6473                 9.7797

                     37                     38                     39
                      A                      A                      A
 Frequencies --   1421.3262              1479.2689              1484.7765
 Red. masses --      1.2009                 1.0871                 1.0686
 Frc consts  --      1.4294                 1.4015                 1.3880
 IR Inten    --     10.7350                 6.0151                 4.6454

                     40                     41                     42
                      A                      A                      A
 Frequencies --   1493.4750              1818.0414              2868.4302
 Red. masses --      1.0495                10.1835                 1.0825
 Frc consts  --      1.3792                19.8314                 5.2478
 IR Inten    --      2.4907               167.1198               127.6945

                     43                     44                     45
                      A                      A                      A
 Frequencies --   3008.1842              3033.6053              3065.2633
 Red. masses --      1.0847                 1.0351                 1.0782
 Frc consts  --      5.7834                 5.6123                 5.9686
 IR Inten    --     44.7240                15.8927                64.9037

                     46                     47                     48
                      A                      A                      A
 Frequencies --   3067.3751              3072.5081              3106.6908
 Red. masses --      1.0758                 1.0784                 1.1008
 Frc consts  --      5.9637                 5.9984                 6.2599
 IR Inten    --      2.7886                10.9958                19.8734

                     49                     50                     51
                      A                      A                      A
 Frequencies --   3112.5435              3115.4177              3129.2109
 Red. masses --      1.0974                 1.0966                 1.1047
 Frc consts  --      6.2638                 6.2711                 6.3734
 IR Inten    --     11.6277                28.4594                13.9629

 - Thermochemistry -
 -------------------
 Temperature   298.150 Kelvin.  Pressure   1.00000 Atm.
 Atom     1 has atomic number  6 and mass  12.00000

 Molecular mass:   126.06808 amu.
 Principal axes and moments of inertia in atomic units:
                           1         2         3
     Eigenvalues --   375.281921861.918422009.62004
           X            0.99980  -0.01673   0.01132
           Y            0.01632   0.99922   0.03584
           Z           -0.01191  -0.03565   0.99929
 This molecule is an asymmetric top.
 Rotational symmetry number  1.
 Rotational temperatures (Kelvin)      0.23080     0.04652     0.04310
 Rotational constants (GHZ):           4.80903     0.96929     0.89805
 Zero-point vibrational energy     415212.2 (Joules/Mol)
                                   99.23810 (Kcal/Mol)
 Warning -- explicit consideration of   9 degrees of freedom as
           vibrations may cause significant error
 Vibrational temperatures:     80.61   126.96   229.54   348.25   361.84
          (Kelvin)            379.92   440.86   544.84   685.65   950.91
                             1002.02  1135.97  1169.36  1197.70  1254.14
                             1272.77  1299.48  1402.00  1416.92  1468.17
                             1491.10  1540.21  1555.07  1585.09  1616.88
                             1660.42  1700.44  1728.19  1764.81  1817.38
                             1836.61  1863.87  1917.94  1934.24  2000.88
                             2025.21  2044.97  2128.34  2136.26  2148.77
                             2615.75  4127.03  4328.10  4364.68  4410.22
                             4413.26  4420.65  4469.83  4478.25  4482.39
                             4502.23

 Zero-point correction=                           0.158146 (Hartree/Particle)
 Thermal correction to Energy=                    0.166672
 Thermal correction to Enthalpy=                  0.167616
 Thermal correction to Gibbs Free Energy=         0.124376
 Sum of electronic and zero-point Energies=           -423.007351
 Sum of electronic and thermal Energies=              -422.998826
 Sum of electronic and thermal Enthalpies=            -422.997881
 Sum of electronic and thermal Free Energies=         -423.041122

                     E (Thermal)             CV                S
                      KCal/Mol        Cal/Mol-Kelvin    Cal/Mol-Kelvin
 Total                  104.588             31.529             91.007
 Electronic               0.000              0.000              0.000
 Translational            0.889              2.981             40.409
 Rotational               0.889              2.981             28.731
 Vibrational            102.811             25.567             21.867
 Vibration     1          0.596              1.975              4.592
 Vibration     2          0.601              1.957              3.699
 Vibration     3          0.621              1.892              2.555
 Vibration     4          0.658              1.776              1.788
 Vibration     5          0.663              1.760              1.720
 Vibration     6          0.671              1.739              1.635
 Vibration     7          0.697              1.662              1.382
 Vibration     8          0.749              1.516              1.044
 Vibration     9          0.833              1.302              0.719

 Normal termination of Gaussian 09 at Tue Jan 28 03:41:39 2020.
