 Gaussian 09, Revision D.01,
 Gaussian 09:  ES64L-G09RevD.01 24-Apr-2013

 -----------------------------
 # b3lyp 6-31G(2df,p) opt Freq
 -----------------------------

 -----
 titel
 -----
 Symbolic Z-matrix:
 Charge =  0 Multiplicity = 1

 SCF Done:  E(RB3LYP) =  -423.164869996     A.U. after   14 cycles
 Optimization completed.
    -- Stationary point found.
 Normal termination of Gaussian 09 at Mon Jan 27 17:25:10 2020.

 ----------------------------------------------------------------------
 #N Geom=AllCheck Guess=TCheck SCRF=Check GenChk RB3LYP/6-31G(2df,p) Fr
 eq
 ----------------------------------------------------------------------

 Structure from the checkpoint file:  "/scratch/puck/g09_1b43c7af-46f6-4e95-965f-b05b19c977b8/Gau-112393.chk"
 -----
 titel
 -----
 Charge =  0 Multiplicity = 1

                         Standard orientation:
 ---------------------------------------------------------------------
 Center     Atomic      Atomic             Coordinates (Angstroms)
 Number     Number       Type             X           Y           Z
 ---------------------------------------------------------------------
      1          6           0        2.564457   -0.906549    0.025173
      2          6           0        1.310300   -0.101211    0.103526
      3          6           0        0.182426   -0.184047    1.144715
      4          6           0       -0.824723    0.340018    0.062662
      5          6           0       -1.529371    1.670180    0.312139
      6          6           0       -1.795841   -0.723109   -0.405264
      7          8           0       -1.778655   -1.884144   -0.083080
      8          6           0        0.387771    0.402326   -0.924785
      9          8           0        1.352785    1.274137   -0.340565
     10          1           0        2.338233   -1.975360    0.089712
     11          1           0        3.087141   -0.711616   -0.914940
     12          1           0        3.239470   -0.654018    0.850572
     13          1           0       -0.058751   -1.206586    1.440946
     14          1           0        0.313980    0.452155    2.022867
     15          1           0       -2.178384    1.615320    1.192529
     16          1           0       -0.784393    2.451179    0.479941
     17          1           0       -2.148035    1.961762   -0.544573
     18          1           0       -2.554737   -0.347106   -1.130807
     19          1           0        0.382326    0.308678   -2.006081
 ---------------------------------------------------------------------

 SCF Done:  E(RB3LYP) =  -423.164869997     A.U. after    1 cycles

 The electronic state is 1-A.
 Alpha  occ. eigenvalues --  -19.15530 -19.14657 -10.27428 -10.24706 -10.24425
 Alpha  occ. eigenvalues --  -10.21136 -10.18972 -10.18840 -10.18518  -1.08239
 Alpha  occ. eigenvalues --   -1.05252  -0.82814  -0.75890  -0.71335  -0.66578
 Alpha  occ. eigenvalues --   -0.63120  -0.56970  -0.54090  -0.50790  -0.47298
 Alpha  occ. eigenvalues --   -0.46317  -0.44754  -0.42935  -0.42084  -0.41270
 Alpha  occ. eigenvalues --   -0.39830  -0.39113  -0.37762  -0.36194  -0.34319
 Alpha  occ. eigenvalues --   -0.32751  -0.29489  -0.26222  -0.25205
 Alpha virt. eigenvalues --   -0.03092   0.08471   0.10175   0.10474   0.11857
 Alpha virt. eigenvalues --    0.13275   0.14246   0.14792   0.15618   0.15952
 Alpha virt. eigenvalues --    0.16293   0.17050   0.18102   0.19573   0.20186

 Mulliken charges:
               1
     1  C   -0.502517
     2  C    0.435331
     3  C   -0.356292
     4  C    0.206155
     5  C   -0.474378
     6  C    0.107749
     7  O   -0.250182
     8  C   -0.088919
     9  O   -0.288213
    10  H    0.135427
    11  H    0.134735
    12  H    0.132825
    13  H    0.135132
    14  H    0.105398
    15  H    0.124971
    16  H    0.145790
    17  H    0.117365
    18  H    0.076942
    19  H    0.102681
 Sum of Mulliken charges =   0.00000

 Dipole moment (field-independent basis, Debye):
    X=              0.1619    Y=              0.6466    Z=             -0.3432  Tot=              0.7498
 Quadrupole moment (field-independent basis, Debye-Ang):
   XX=            -52.8179   YY=            -60.2865   ZZ=            -50.2270
   XY=             -7.6101   XZ=              1.2534   YZ=              0.4440

  Exact polarizability:  85.719  -3.871  74.170   4.049  -2.728  68.606
 Approx polarizability: 113.069   2.478 119.450   6.850  -8.632 105.650

                      1                      2                      3
                      A                      A                      A
 Frequencies --     71.1345               125.0230               195.0957
 Red. masses --      5.2232                 3.0074                 1.1134
 Frc consts  --      0.0156                 0.0277                 0.0250
 IR Inten    --      6.5414                 3.9857                 0.0594

                      4                      5                      6
                      A                      A                      A
 Frequencies --    209.9231               238.5811               267.0371
 Red. masses --      1.4541                 1.4705                 2.9704
 Frc consts  --      0.0378                 0.0493                 0.1248
 IR Inten    --      0.5569                 0.9605                 5.0720

                      7                      8                      9
                      A                      A                      A
 Frequencies --    291.2873               318.9665               381.2908
 Red. masses --      2.4506                 3.2090                 2.3194
 Frc consts  --      0.1225                 0.1924                 0.1987
 IR Inten    --      1.5203                 2.5226                 2.2104

                     10                     11                     12
                      A                      A                      A
 Frequencies --    410.2179               489.6094               571.5711
 Red. masses --      2.1179                 4.8333                 4.0049
 Frc consts  --      0.2100                 0.6826                 0.7709
 IR Inten    --      3.9173                 7.7912                 1.7196

                     13                     14                     15
                      A                      A                      A
 Frequencies --    664.8060               706.9847               771.1164
 Red. masses --      3.9027                 4.2650                 3.7437
 Frc consts  --      1.0163                 1.2560                 1.3116
 IR Inten    --     10.3304                11.9911                 7.9603

                     16                     17                     18
                      A                      A                      A
 Frequencies --    830.7112               881.6285               898.3404
 Red. masses --      2.7705                 2.3915                 2.3818
 Frc consts  --      1.1264                 1.0952                 1.1325
 IR Inten    --     14.3462                27.2655                 2.7870

                     19                     20                     21
                      A                      A                      A
 Frequencies --    930.2018               947.6550               995.8202
 Red. masses --      2.1352                 1.6781                 1.5834
 Frc consts  --      1.0885                 0.8879                 0.9251
 IR Inten    --     16.5488                13.7937                 1.3488

                     22                     23                     24
                      A                      A                      A
 Frequencies --   1021.3132              1041.3599              1061.2486
 Red. masses --      1.7150                 1.6759                 1.6765
 Frc consts  --      1.0540                 1.0708                 1.1125
 IR Inten    --      1.4349                 0.2538                22.4875

                     25                     26                     27
                      A                      A                      A
 Frequencies --   1138.8794              1157.4712              1182.3437
 Red. masses --      1.9805                 1.8789                 2.1511
 Frc consts  --      1.5135                 1.4831                 1.7718
 IR Inten    --      0.2075                 8.5512                 7.0215

                     28                     29                     30
                      A                      A                      A
 Frequencies --   1217.9922              1254.9512              1264.8979
 Red. masses --      1.5530                 2.0849                 2.1604
 Frc consts  --      1.3574                 1.9346                 2.0366
 IR Inten    --      1.3681                 5.3341                 9.8610

                     31                     32                     33
                      A                      A                      A
 Frequencies --   1285.9871              1397.7247              1406.0263
 Red. masses --      2.4326                 1.2738                 1.2750
 Frc consts  --      2.3702                 1.4662                 1.4851
 IR Inten    --     33.8576                 8.0033                 3.1899

                     34                     35                     36
                      A                      A                      A
 Frequencies --   1426.7123              1450.3767              1475.2878
 Red. masses --      1.2116                 1.5659                 1.2916
 Frc consts  --      1.4531                 1.9408                 1.6563
 IR Inten    --      3.2177                19.6549                 1.3943

                     37                     38                     39
                      A                      A                      A
 Frequencies --   1485.2927              1488.5832              1498.2281
 Red. masses --      1.1556                 1.0535                 1.3756
 Frc consts  --      1.5021                 1.3754                 1.8192
 IR Inten    --     11.3304                 4.7992                 6.1428

                     40                     41                     42
                      A                      A                      A
 Frequencies --   1504.5509              1821.3753              2859.7557
 Red. masses --      1.0603                10.8676                 1.0822
 Frc consts  --      1.4141                21.2414                 5.2144
 IR Inten    --      3.0715               139.1899               121.6572

                     43                     44                     45
                      A                      A                      A
 Frequencies --   3030.2753              3036.7401              3071.4321
 Red. masses --      1.0371                 1.0363                 1.0583
 Frc consts  --      5.6108                 5.6307                 5.8822
 IR Inten    --     29.6476                18.9217                19.0350

                     46                     47                     48
                      A                      A                      A
 Frequencies --   3093.6808              3100.7110              3123.6332
 Red. masses --      1.1004                 1.0995                 1.1016
 Frc consts  --      6.2049                 6.2283                 6.3326
 IR Inten    --     20.9394                12.3073                11.4136

                     49                     50                     51
                      A                      A                      A
 Frequencies --   3127.1984              3138.6227              3168.8343
 Red. masses --      1.0997                 1.1078                 1.0932
 Frc consts  --      6.3361                 6.4299                 6.4675
 IR Inten    --      6.3140                 5.6951                15.1686

 - Thermochemistry -
 -------------------
 Temperature   298.150 Kelvin.  Pressure   1.00000 Atm.
 Atom     1 has atomic number  6 and mass  12.00000

 Molecular mass:   126.06808 amu.
 Principal axes and moments of inertia in atomic units:
                           1         2         3
     Eigenvalues --   713.678901240.825051623.43257
           X            0.99309  -0.11729   0.00350
           Y            0.11726   0.99307   0.00783
           Z           -0.00439  -0.00736   0.99996
 This molecule is an asymmetric top.
 Rotational symmetry number  1.
 Warning -- assumption of classical behavior for rotation
           may cause significant error
 Rotational temperatures (Kelvin)      0.12136     0.06980     0.05335
 Rotational constants (GHZ):           2.52879     1.45447     1.11168
 Zero-point vibrational energy     409891.4 (Joules/Mol)
                                   97.96639 (Kcal/Mol)
 Warning -- explicit consideration of  12 degrees of freedom as
           vibrations may cause significant error
 Vibrational temperatures:    102.35   179.88   280.70   302.03   343.26
          (Kelvin)            384.21   419.10   458.92   548.59   590.21
                              704.44   822.36   956.51  1017.19  1109.46
                             1195.21  1268.47  1292.51  1338.35  1363.46
                             1432.76  1469.44  1498.28  1526.90  1638.59
                             1665.34  1701.13  1752.42  1805.59  1819.90
                             1850.25  2011.01  2022.96  2052.72  2086.77
                             2122.61  2137.00  2141.74  2155.61  2164.71
                             2620.55  4114.55  4359.88  4369.19  4419.10
                             4451.11  4461.23  4494.21  4499.34  4515.77
                             4559.24

 Zero-point correction=                           0.156119 (Hartree/Particle)
 Thermal correction to Energy=                    0.165274
 Thermal correction to Enthalpy=                  0.166218
 Thermal correction to Gibbs Free Energy=         0.122400
 Sum of electronic and zero-point Energies=           -423.008751
 Sum of electronic and thermal Energies=              -422.999596
 Sum of electronic and thermal Enthalpies=            -422.998652
 Sum of electronic and thermal Free Energies=         -423.042470

                     E (Thermal)             CV                S
                      KCal/Mol        Cal/Mol-Kelvin    Cal/Mol-Kelvin
 Total                  103.711             34.217             92.222
 Electronic               0.000              0.000              0.000
 Translational            0.889              2.981             40.409
 Rotational               0.889              2.981             28.754
 Vibrational            101.933             28.255             23.059
 Vibration     1          0.598              1.968              4.122
 Vibration     2          0.610              1.928              3.021
 Vibration     3          0.636              1.847              2.179
 Vibration     4          0.642              1.826              2.044
 Vibration     5          0.657              1.782              1.813
 Vibration     6          0.672              1.734              1.615
 Vibration     7          0.687              1.690              1.466
 Vibration     8          0.705              1.637              1.315
 Vibration     9          0.751              1.510              1.034
 Vibration    10          0.774              1.448              0.926
 Vibration    11          0.845              1.273              0.685
 Vibration    12          0.928              1.093              0.501

 Optimization completed.
    -- Stationary point found.
 Normal termination of Gaussian 09 at Mon Jan 27 18:05:08 2020.
