 Gaussian 09, Revision D.01,
 Gaussian 09:  ES64L-G09RevD.01 24-Apr-2013

 -----------------------------
 # b3lyp 6-31G(2df,p) opt Freq
 -----------------------------

 -----
 titel
 -----
 Symbolic Z-matrix:
 Charge =  0 Multiplicity = 1

 SCF Done:  E(RB3LYP) =  -423.177992774     A.U. after   14 cycles
 Optimization completed.
    -- Stationary point found.
 Normal termination of Gaussian 09 at Tue Jan 28 12:09:38 2020.

 ----------------------------------------------------------------------
 #N Geom=AllCheck Guess=TCheck SCRF=Check GenChk RB3LYP/6-31G(2df,p) Fr
 eq
 ----------------------------------------------------------------------

 Structure from the checkpoint file:  "/scratch/puck/g09_9e83b702-8c83-43fd-a390-f9757392d429/Gau-19194.chk"
 -----
 titel
 -----
 Charge =  0 Multiplicity = 1

                         Standard orientation:
 ---------------------------------------------------------------------
 Center     Atomic      Atomic             Coordinates (Angstroms)
 Number     Number       Type             X           Y           Z
 ---------------------------------------------------------------------
      1          8           0       -2.721174    0.310115    0.353764
      2          6           0       -1.831706   -0.617489   -0.247407
      3          6           0       -0.387713   -0.177409   -0.120584
      4          6           0        0.227987    0.020680    1.274004
      5          6           0        1.619964    0.336732    0.668451
      6          6           0        1.788291   -0.958544   -0.187225
      7          8           0        0.468189   -1.228746   -0.670171
      8          6           0        1.247373    1.422408   -0.327109
      9          6           0        0.036511    1.119136   -0.808081
     10          1           0       -2.620516    1.152829   -0.100836
     11          1           0       -1.970242   -1.566272    0.278367
     12          1           0       -2.070709   -0.789985   -1.307980
     13          1           0       -0.203302    0.856482    1.824038
     14          1           0        0.197375   -0.892754    1.875385
     15          1           0        2.445672    0.542882    1.348536
     16          1           0        2.477879   -0.822780   -1.028249
     17          1           0        2.134728   -1.800404    0.425485
     18          1           0        1.915436    2.205776   -0.663348
     19          1           0       -0.486673    1.590202   -1.632431
 ---------------------------------------------------------------------

 SCF Done:  E(RB3LYP) =  -423.177992774     A.U. after    1 cycles

 The electronic state is 1-A.
 Alpha  occ. eigenvalues --  -19.13725 -19.13282 -10.23497 -10.22631 -10.22469
 Alpha  occ. eigenvalues --  -10.19894 -10.18865 -10.18248 -10.18189  -1.03301
 Alpha  occ. eigenvalues --   -1.01567  -0.84101  -0.75875  -0.71944  -0.66722
 Alpha  occ. eigenvalues --   -0.61209  -0.57576  -0.52884  -0.51977  -0.49100
 Alpha  occ. eigenvalues --   -0.47787  -0.44973  -0.43872  -0.42169  -0.39692
 Alpha  occ. eigenvalues --   -0.37199  -0.35883  -0.35614  -0.34368  -0.32608
 Alpha  occ. eigenvalues --   -0.31222  -0.26983  -0.25740  -0.24129
 Alpha virt. eigenvalues --    0.00150   0.07912   0.10558   0.11970   0.12544
 Alpha virt. eigenvalues --    0.13543   0.15498   0.15850   0.16316   0.16845
 Alpha virt. eigenvalues --    0.17432   0.18517   0.19607   0.20772   0.21506

 Mulliken charges:
               1
     1  O   -0.417147
     2  C   -0.179364
     3  C    0.382612
     4  C   -0.244288
     5  C   -0.110448
     6  C   -0.071442
     7  O   -0.314655
     8  C   -0.088072
     9  C   -0.132986
    10  H    0.285629
    11  H    0.118549
    12  H    0.097160
    13  H    0.110450
    14  H    0.097956
    15  H    0.070059
    16  H    0.097742
    17  H    0.099911
    18  H    0.101129
    19  H    0.097205
 Sum of Mulliken charges =   0.00000

 Dipole moment (field-independent basis, Debye):
    X=              1.4884    Y=              1.4090    Z=             -0.1342  Tot=              2.0539
 Quadrupole moment (field-independent basis, Debye-Ang):
   XX=            -53.8168   YY=            -52.1300   ZZ=            -53.4058
   XY=             -0.9359   XZ=              3.9336   YZ=             -3.1349

  Exact polarizability:  85.558   0.591  72.898   3.768  -4.153  66.142
 Approx polarizability: 124.930   2.116 111.499   8.553  -2.972 101.535

                      1                      2                      3
                      A                      A                      A
 Frequencies --     99.9875               162.3884               245.2917
 Red. masses --      3.1475                 3.6374                 1.7969
 Frc consts  --      0.0185                 0.0565                 0.0637
 IR Inten    --      2.4578                 1.8359                47.5182

                      4                      5                      6
                      A                      A                      A
 Frequencies --    288.7680               330.7129               383.0820
 Red. masses --      1.6954                 1.8073                 3.7756
 Frc consts  --      0.0833                 0.1165                 0.3265
 IR Inten    --     60.6824                35.5025                 1.5088

                      7                      8                      9
                      A                      A                      A
 Frequencies --    434.2559               503.9977               514.5753
 Red. masses --      3.0725                 2.1243                 2.9527
 Frc consts  --      0.3414                 0.3179                 0.4606
 IR Inten    --      9.9912                 1.9486                 1.0454

                     10                     11                     12
                      A                      A                      A
 Frequencies --    645.8156               696.6015               743.8091
 Red. masses --      3.9184                 4.2250                 1.6122
 Frc consts  --      0.9629                 1.2079                 0.5255
 IR Inten    --      8.1805                10.0021                20.7970

                     13                     14                     15
                      A                      A                      A
 Frequencies --    803.2938               818.7554               866.4334
 Red. masses --      3.7862                 5.5376                 2.3913
 Frc consts  --      1.4395                 2.1872                 1.0577
 IR Inten    --      5.9279                 4.5680                 3.8728

                     16                     17                     18
                      A                      A                      A
 Frequencies --    883.9842               913.5478               925.1979
 Red. masses --      2.5196                 2.3127                 1.9242
 Frc consts  --      1.1600                 1.1372                 0.9704
 IR Inten    --     29.8958                15.2393                11.6683

                     19                     20                     21
                      A                      A                      A
 Frequencies --    951.2916               960.0514               981.6138
 Red. masses --      1.4289                 1.9864                 3.0979
 Frc consts  --      0.7619                 1.0787                 1.7587
 IR Inten    --      4.3407                 2.6512                23.7335

                     22                     23                     24
                      A                      A                      A
 Frequencies --   1033.3200              1061.2502              1074.0844
 Red. masses --      2.2354                 2.6053                 1.5240
 Frc consts  --      1.4063                 1.7288                 1.0359
 IR Inten    --     20.2949               123.5439                11.2216

                     25                     26                     27
                      A                      A                      A
 Frequencies --   1094.9958              1113.6221              1141.2031
 Red. masses --      1.4134                 1.8513                 1.2055
 Frc consts  --      0.9985                 1.3527                 0.9250
 IR Inten    --      3.5333                 0.6768                 4.2387

                     28                     29                     30
                      A                      A                      A
 Frequencies --   1178.4081              1209.9154              1248.7270
 Red. masses --      1.4057                 1.3230                 1.4610
 Frc consts  --      1.1501                 1.1411                 1.3422
 IR Inten    --      7.4342                 0.9707                 0.8071

                     31                     32                     33
                      A                      A                      A
 Frequencies --   1260.8328              1297.0050              1299.1489
 Red. masses --      1.5558                 1.8466                 1.9120
 Frc consts  --      1.4572                 1.8302                 1.9013
 IR Inten    --      7.7324                 5.2768                 4.8868

                     34                     35                     36
                      A                      A                      A
 Frequencies --   1356.2667              1370.7707              1372.7535
 Red. masses --      1.5496                 1.6634                 1.3687
 Frc consts  --      1.6795                 1.8415                 1.5197
 IR Inten    --      6.0436                14.9190                 9.7224

                     37                     38                     39
                      A                      A                      A
 Frequencies --   1418.5467              1488.4432              1505.0659
 Red. masses --      1.4272                 1.1205                 1.0851
 Frc consts  --      1.6921                 1.4626                 1.4482
 IR Inten    --     40.6574                 2.6554                 0.4054

                     40                     41                     42
                      A                      A                      A
 Frequencies --   1522.2603              1633.9838              2991.4233
 Red. masses --      1.0920                 6.0312                 1.0700
 Frc consts  --      1.4909                 9.4874                 5.6417
 IR Inten    --      0.8698                 3.6378                52.5722

                     43                     44                     45
                      A                      A                      A
 Frequencies --   3016.2215              3060.0080              3065.3435
 Red. masses --      1.0571                 1.1047                 1.0666
 Frc consts  --      5.6660                 6.0948                 5.9050
 IR Inten    --     67.7594                19.9990                41.0279

                     46                     47                     48
                      A                      A                      A
 Frequencies --   3092.7573              3124.5676              3145.7594
 Red. masses --      1.0930                 1.0890                 1.1030
 Frc consts  --      6.1596                 6.2641                 6.4308
 IR Inten    --     22.1367                33.3241                14.9598

                     49                     50                     51
                      A                      A                      A
 Frequencies --   3186.1911              3215.3427              3813.5181
 Red. masses --      1.0866                 1.1054                 1.0660
 Frc consts  --      6.4994                 6.7330                 9.1340
 IR Inten    --      7.7442                14.2763                14.6561

 - Thermochemistry -
 -------------------
 Temperature   298.150 Kelvin.  Pressure   1.00000 Atm.
 Atom     1 has atomic number  8 and mass  15.99491

 Molecular mass:   126.06808 amu.
 Principal axes and moments of inertia in atomic units:
                           1         2         3
     Eigenvalues --   569.050631243.919191390.63699
           X            0.99988   0.00261   0.01548
           Y           -0.00153   0.99759  -0.06936
           Z           -0.01562   0.06933   0.99747
 This molecule is an asymmetric top.
 Rotational symmetry number  1.
 Warning -- assumption of classical behavior for rotation
           may cause significant error
 Rotational temperatures (Kelvin)      0.15221     0.06963     0.06228
 Rotational constants (GHZ):           3.17149     1.45085     1.29778
 Zero-point vibrational energy     421953.9 (Joules/Mol)
                                  100.84941 (Kcal/Mol)
 Warning -- explicit consideration of   9 degrees of freedom as
           vibrations may cause significant error
 Vibrational temperatures:    143.86   233.64   352.92   415.47   475.82
          (Kelvin)            551.17   624.80   725.14   740.36   929.18
                             1002.25  1070.17  1155.76  1178.00  1246.60
                             1271.85  1314.39  1331.15  1368.69  1381.30
                             1412.32  1486.72  1526.90  1545.37  1575.45
                             1602.25  1641.93  1695.46  1740.80  1796.64
                             1814.05  1866.10  1869.18  1951.36  1972.23
                             1975.08  2040.97  2141.54  2165.45  2190.19
                             2350.94  4303.99  4339.66  4402.66  4410.34
                             4449.78  4495.55  4526.04  4584.21  4626.16
                             5486.80

 Zero-point correction=                           0.160714 (Hartree/Particle)
 Thermal correction to Energy=                    0.168388
 Thermal correction to Enthalpy=                  0.169332
 Thermal correction to Gibbs Free Energy=         0.128772
 Sum of electronic and zero-point Energies=           -423.017279
 Sum of electronic and thermal Energies=              -423.009605
 Sum of electronic and thermal Enthalpies=            -423.008660
 Sum of electronic and thermal Free Energies=         -423.049221

                     E (Thermal)             CV                S
                      KCal/Mol        Cal/Mol-Kelvin    Cal/Mol-Kelvin
 Total                  105.665             30.840             85.367
 Electronic               0.000              0.000              0.000
 Translational            0.889              2.981             40.409
 Rotational               0.889              2.981             28.378
 Vibrational            103.888             24.878             16.580
 Vibration     1          0.604              1.949              3.455
 Vibration     2          0.622              1.889              2.522
 Vibration     3          0.660              1.771              1.764
 Vibration     4          0.685              1.695              1.481
 Vibration     5          0.713              1.614              1.257
 Vibration     6          0.752              1.506              1.027
 Vibration     7          0.795              1.396              0.845
 Vibration     8          0.859              1.241              0.648
 Vibration     9          0.870              1.218              0.623

 Optimization completed.
    -- Stationary point found.
 Normal termination of Gaussian 09 at Tue Jan 28 12:58:41 2020.
