 Gaussian 09, Revision D.01,
 Gaussian 09:  ES64L-G09RevD.01 24-Apr-2013

 -----------------------------
 # b3lyp 6-31G(2df,p) opt Freq
 -----------------------------

 -----
 titel
 -----
 Symbolic Z-matrix:
 Charge =  0 Multiplicity = 1

 SCF Done:  E(RB3LYP) =  -423.109126415     A.U. after   13 cycles
 Optimization completed.
    -- Stationary point found.
 Normal termination of Gaussian 09 at Mon Jan 27 22:12:59 2020.

 ----------------------------------------------------------------------
 #N Geom=AllCheck Guess=TCheck SCRF=Check GenChk RB3LYP/6-31G(2df,p) Fr
 eq
 ----------------------------------------------------------------------

 Structure from the checkpoint file:  "/scratch/puck/g09_4870c0a7-8af7-4b69-bee3-ea38a0fef09a/Gau-28879.chk"
 -----
 titel
 -----
 Charge =  0 Multiplicity = 1

                         Standard orientation:
 ---------------------------------------------------------------------
 Center     Atomic      Atomic             Coordinates (Angstroms)
 Number     Number       Type             X           Y           Z
 ---------------------------------------------------------------------
      1          6           0       -1.796163    1.780546   -0.253022
      2          6           0       -0.760083    0.734186   -0.010557
      3          8           0       -0.800072    0.000013    1.232913
      4          6           0       -0.760176   -0.734150   -0.010538
      5          6           0       -1.796375   -1.780388   -0.253036
      6          6           0        0.719232   -0.768927   -0.508406
      7          6           0        1.649447    0.000019    0.396956
      8          8           0        3.015025    0.000028    0.104375
      9          6           0        0.719235    0.768647   -0.508670
     10          1           0       -1.575618    2.684069    0.327170
     11          1           0       -1.824249    2.059872   -1.311504
     12          1           0       -2.784465    1.418939    0.042451
     13          1           0       -1.824281   -2.059895   -1.311473
     14          1           0       -1.576083   -2.683841    0.327362
     15          1           0       -2.784690   -1.418591    0.042164
     16          1           0        1.085973   -1.443552   -1.273044
     17          1           0        1.497467    0.000214    1.467656
     18          1           0        3.129656   -0.000141   -0.851900
     19          1           0        1.085962    1.443005   -1.273550
 ---------------------------------------------------------------------

 SCF Done:  E(RB3LYP) =  -423.109126415     A.U. after    1 cycles

 The electronic state is 1-A.
 Alpha  occ. eigenvalues --  -19.14469 -19.14283 -10.24036 -10.24003 -10.23658
 Alpha  occ. eigenvalues --  -10.18932 -10.18910 -10.18769 -10.18768  -1.07063
 Alpha  occ. eigenvalues --   -1.02928  -0.85358  -0.74927  -0.74583  -0.65469
 Alpha  occ. eigenvalues --   -0.61137  -0.58805  -0.51832  -0.51442  -0.50053
 Alpha  occ. eigenvalues --   -0.45100  -0.43169  -0.42513  -0.41898  -0.40742
 Alpha  occ. eigenvalues --   -0.40355  -0.37484  -0.36553  -0.35428  -0.33244
 Alpha  occ. eigenvalues --   -0.32971  -0.25861  -0.24282  -0.22363
 Alpha virt. eigenvalues --    0.06935   0.07115   0.09682   0.10236   0.12484
 Alpha virt. eigenvalues --    0.12599   0.14569   0.14624   0.15969   0.15975
 Alpha virt. eigenvalues --    0.18174   0.18774   0.19372   0.20973   0.23062

 Mulliken charges:
               1
     1  C   -0.505527
     2  C    0.345052
     3  O   -0.331631
     4  C    0.345096
     5  C   -0.505534
     6  C   -0.216350
     7  C    0.155124
     8  O   -0.445358
     9  C   -0.216329
    10  H    0.134759
    11  H    0.124959
    12  H    0.133187
    13  H    0.124959
    14  H    0.134760
    15  H    0.133185
    16  H    0.086566
    17  H    0.133250
    18  H    0.283259
    19  H    0.086572
 Sum of Mulliken charges =   0.00000

 Dipole moment (field-independent basis, Debye):
    X=             -1.1754    Y=             -0.0001    Z=             -2.8870  Tot=              3.1171
 Quadrupole moment (field-independent basis, Debye-Ang):
   XX=            -54.8052   YY=            -50.5000   ZZ=            -53.1816
   XY=             -0.0007   XZ=             -3.1572   YZ=              0.0004

  Exact polarizability:  85.048   0.000  78.545  -1.601   0.000  63.221
 Approx polarizability: 111.302   0.001 115.745  -2.784  -0.001 104.685

                      1                      2                      3
                      A                      A                      A
 Frequencies --    172.1253               182.6843               187.2855
 Red. masses --      2.1416                 1.1878                 1.0462
 Frc consts  --      0.0374                 0.0234                 0.0216
 IR Inten    --      0.8144                 0.0726                 0.3465

                      4                      5                      6
                      A                      A                      A
 Frequencies --    203.0960               207.9294               230.1781
 Red. masses --      2.9183                 3.2411                 1.3104
 Frc consts  --      0.0709                 0.0826                 0.0409
 IR Inten    --      3.4276                 0.2126                50.6859

                      7                      8                      9
                      A                      A                      A
 Frequencies --    271.3383               338.9681               382.9948
 Red. masses --      1.9129                 3.1901                 3.8050
 Frc consts  --      0.0830                 0.2160                 0.3288
 IR Inten    --     28.0970                 4.4945                 7.7168

                     10                     11                     12
                      A                      A                      A
 Frequencies --    413.7232               540.0760               561.2006
 Red. masses --      5.1083                 3.1111                 5.1955
 Frc consts  --      0.5152                 0.5347                 0.9641
 IR Inten    --      3.0369                 1.8465                17.6982

                     13                     14                     15
                      A                      A                      A
 Frequencies --    574.8666               726.1072               728.0650
 Red. masses --      4.1964                 2.1087                 5.3784
 Frc consts  --      0.8171                 0.6550                 1.6798
 IR Inten    --      4.1540                 4.2280                 1.9354

                     16                     17                     18
                      A                      A                      A
 Frequencies --    802.4720               848.0362               853.7061
 Red. masses --      1.6761                 4.8350                 2.5643
 Frc consts  --      0.6359                 2.0487                 1.1011
 IR Inten    --      1.6571                15.2137                 0.1958

                     19                     20                     21
                      A                      A                      A
 Frequencies --    873.9457               906.1425               944.2316
 Red. masses --      2.7052                 2.5918                 1.7946
 Frc consts  --      1.2174                 1.2539                 0.9427
 IR Inten    --     29.6144                23.6690                 4.2089

                     22                     23                     24
                      A                      A                      A
 Frequencies --    982.2082              1081.1058              1087.1555
 Red. masses --      1.5560                 1.7525                 1.6523
 Frc consts  --      0.8844                 1.2068                 1.1506
 IR Inten    --      1.7689                 0.2995                18.1792

                     25                     26                     27
                      A                      A                      A
 Frequencies --   1100.9918              1113.4502              1128.6768
 Red. masses --      1.6830                 1.2677                 1.8757
 Frc consts  --      1.2020                 0.9260                 1.4078
 IR Inten    --     19.5190                 0.3477                 8.6377

                     28                     29                     30
                      A                      A                      A
 Frequencies --   1139.1455              1162.8959              1226.4000
 Red. masses --      2.5468                 1.8033                 3.1888
 Frc consts  --      1.9471                 1.4368                 2.8258
 IR Inten    --    122.1720                 5.2074                49.3009

                     31                     32                     33
                      A                      A                      A
 Frequencies --   1239.5932              1281.0654              1325.5788
 Red. masses --      1.6108                 2.6152                 2.0649
 Frc consts  --      1.4583                 2.5287                 2.1377
 IR Inten    --     25.6617                11.7767                 7.9417

                     34                     35                     36
                      A                      A                      A
 Frequencies --   1407.8780              1407.9694              1426.5140
 Red. masses --      1.3690                 1.2319                 1.6075
 Frc consts  --      1.5987                 1.4388                 1.9273
 IR Inten    --      1.6698                14.4320                86.4788

                     37                     38                     39
                      A                      A                      A
 Frequencies --   1472.3677              1474.5834              1485.9646
 Red. masses --      1.1958                 1.0441                 1.0446
 Frc consts  --      1.5274                 1.3376                 1.3590
 IR Inten    --      1.1480                 1.6436                 0.9927

                     40                     41                     42
                      A                      A                      A
 Frequencies --   1491.3503              1535.4059              3031.1926
 Red. masses --      1.0779                 3.8844                 1.0363
 Frc consts  --      1.4125                 5.3954                 5.6102
 IR Inten    --      8.2827                23.6270                33.8779

                     43                     44                     45
                      A                      A                      A
 Frequencies --   3032.8222              3092.8332              3093.4730
 Red. masses --      1.0365                 1.0998                 1.0997
 Frc consts  --      5.6173                 6.1984                 6.2002
 IR Inten    --     11.9126                 5.2949                25.5987

                     46                     47                     48
                      A                      A                      A
 Frequencies --   3120.3569              3122.7617              3176.7462
 Red. masses --      1.1006                 1.1004                 1.0888
 Frc consts  --      6.3137                 6.3223                 6.4737
 IR Inten    --      6.4986                19.6789                10.0205

                     49                     50                     51
                      A                      A                      A
 Frequencies --   3187.3981              3212.8318              3808.8936
 Red. masses --      1.0962                 1.0893                 1.0658
 Frc consts  --      6.5616                 6.6246                 9.1100
 IR Inten    --     11.2034                 5.4569                18.9422

 - Thermochemistry -
 -------------------
 Temperature   298.150 Kelvin.  Pressure   1.00000 Atm.
 Atom     1 has atomic number  6 and mass  12.00000

 Molecular mass:   126.06808 amu.
 Principal axes and moments of inertia in atomic units:
                           1         2         3
     Eigenvalues --   637.071581348.021051671.78709
           X            1.00000   0.00000   0.00153
           Y            0.00000   1.00000   0.00000
           Z           -0.00153   0.00000   1.00000
 This molecule is an asymmetric top.
 Rotational symmetry number  1.
 Warning -- assumption of classical behavior for rotation
           may cause significant error
 Rotational temperatures (Kelvin)      0.13596     0.06425     0.05181
 Rotational constants (GHZ):           2.83287     1.33881     1.07953
 Zero-point vibrational energy     409115.6 (Joules/Mol)
                                   97.78097 (Kcal/Mol)
 Warning -- explicit consideration of  13 degrees of freedom as
           vibrations may cause significant error
 Vibrational temperatures:    247.65   262.84   269.46   292.21   299.16
          (Kelvin)            331.17   390.39   487.70   551.04   595.25
                              777.05   807.44   827.10  1044.70  1047.52
                             1154.58  1220.13  1228.29  1257.41  1303.74
                             1358.54  1413.18  1555.47  1564.17  1584.08
                             1602.00  1623.91  1638.97  1673.15  1764.51
                             1783.50  1843.17  1907.21  2025.62  2025.75
                             2052.43  2118.41  2121.59  2137.97  2145.72
                             2209.10  4361.20  4363.55  4449.89  4450.81
                             4489.49  4492.95  4570.62  4585.95  4622.54
                             5480.14

 Zero-point correction=                           0.155824 (Hartree/Particle)
 Thermal correction to Energy=                    0.164929
 Thermal correction to Enthalpy=                  0.165874
 Thermal correction to Gibbs Free Energy=         0.122753
 Sum of electronic and zero-point Energies=           -422.953303
 Sum of electronic and thermal Energies=              -422.944197
 Sum of electronic and thermal Enthalpies=            -422.943253
 Sum of electronic and thermal Free Energies=         -422.986373

                     E (Thermal)             CV                S
                      KCal/Mol        Cal/Mol-Kelvin    Cal/Mol-Kelvin
 Total                  103.495             35.086             90.754
 Electronic               0.000              0.000              0.000
 Translational            0.889              2.981             40.409
 Rotational               0.889              2.981             28.753
 Vibrational            101.717             29.124             21.592
 Vibration     1          0.626              1.877              2.412
 Vibration     2          0.630              1.863              2.301
 Vibration     3          0.632              1.857              2.255
 Vibration     4          0.639              1.835              2.105
 Vibration     5          0.641              1.829              2.062
 Vibration     6          0.652              1.795              1.878
 Vibration     7          0.675              1.726              1.588
 Vibration     8          0.719              1.598              1.217
 Vibration     9          0.752              1.506              1.027
 Vibration    10          0.777              1.440              0.914
 Vibration    11          0.895              1.161              0.565
 Vibration    12          0.917              1.115              0.521
 Vibration    13          0.931              1.086              0.495

 Optimization completed.
    -- Stationary point found.
 Normal termination of Gaussian 09 at Tue Jan 28 00:25:06 2020.
