 Gaussian 09, Revision D.01,
 Gaussian 09:  ES64L-G09RevD.01 24-Apr-2013

 -----------------------------
 # b3lyp 6-31G(2df,p) opt Freq
 -----------------------------

 -----
 titel
 -----
 Symbolic Z-matrix:
 Charge =  0 Multiplicity = 1

 SCF Done:  E(RB3LYP) =  -423.205727859     A.U. after   14 cycles
 Optimization completed.
    -- Stationary point found.
 Normal termination of Gaussian 09 at Mon Jan 27 16:13:24 2020.

 ----------------------------------------------------------------------
 #N Geom=AllCheck Guess=TCheck SCRF=Check GenChk RB3LYP/6-31G(2df,p) Fr
 eq
 ----------------------------------------------------------------------

 Structure from the checkpoint file:  "/scratch/puck/g09_5886fbf8-84ef-4474-9ca3-cc041f38e7cd/Gau-56908.chk"
 -----
 titel
 -----
 Charge =  0 Multiplicity = 1

                         Standard orientation:
 ---------------------------------------------------------------------
 Center     Atomic      Atomic             Coordinates (Angstroms)
 Number     Number       Type             X           Y           Z
 ---------------------------------------------------------------------
      1          6           0        1.345373    0.090695    1.331385
      2          6           0        0.838530   -0.488556    0.006961
      3          6           0        1.987665   -0.751592   -0.961921
      4          6           0       -0.125565   -1.704423    0.256952
      5          6           0       -1.312184   -0.787448   -0.040015
      6          8           0       -2.490864   -0.838187    0.152071
      7          6           0       -0.373376    0.303613   -0.608568
      8          6           0       -0.681138    1.747367   -0.314271
      9          8           0        0.106494    2.555825    0.107860
     10          1           0        2.033439   -0.619122    1.803606
     11          1           0        1.863998    1.038346    1.178043
     12          1           0        0.525035    0.274856    2.033375
     13          1           0        2.717532   -1.441325   -0.524049
     14          1           0        1.630392   -1.194000   -1.898552
     15          1           0        2.512307    0.178184   -1.205727
     16          1           0       -0.039931   -2.489464   -0.502852
     17          1           0       -0.110153   -2.169569    1.246217
     18          1           0       -0.396851    0.197325   -1.704450
     19          1           0       -1.736631    2.025739   -0.528189
 ---------------------------------------------------------------------

 SCF Done:  E(RB3LYP) =  -423.205727859     A.U. after    1 cycles

 The electronic state is 1-A.
 Alpha  occ. eigenvalues --  -19.15062 -19.14866 -10.28525 -10.28154 -10.21930
 Alpha  occ. eigenvalues --  -10.20989 -10.20052 -10.18776 -10.18066  -1.06069
 Alpha  occ. eigenvalues --   -1.05458  -0.87276  -0.75209  -0.72206  -0.69761
 Alpha  occ. eigenvalues --   -0.60726  -0.56150  -0.53097  -0.49989  -0.47096
 Alpha  occ. eigenvalues --   -0.46807  -0.44830  -0.44131  -0.43260  -0.42018
 Alpha  occ. eigenvalues --   -0.39897  -0.38570  -0.38480  -0.37033  -0.34548
 Alpha  occ. eigenvalues --   -0.33557  -0.32902  -0.26781  -0.24634
 Alpha virt. eigenvalues --   -0.03468  -0.02534   0.06963   0.11032   0.11940
 Alpha virt. eigenvalues --    0.12413   0.13830   0.14083   0.15105   0.15323
 Alpha virt. eigenvalues --    0.15644   0.18241   0.18944   0.19332   0.20761

 Mulliken charges:
               1
     1  C   -0.434694
     2  C    0.295083
     3  C   -0.456118
     4  C   -0.378325
     5  C    0.382503
     6  O   -0.289320
     7  C   -0.245894
     8  C    0.144223
     9  O   -0.247356
    10  H    0.111124
    11  H    0.145600
    12  H    0.115898
    13  H    0.121179
    14  H    0.109496
    15  H    0.131535
    16  H    0.130416
    17  H    0.132519
    18  H    0.130265
    19  H    0.101866
 Sum of Mulliken charges =   0.00000

 Dipole moment (field-independent basis, Debye):
    X=              1.6829    Y=             -1.8458    Z=             -1.1738  Tot=              2.7599
 Quadrupole moment (field-independent basis, Debye-Ang):
   XX=            -60.0106   YY=            -58.4379   ZZ=            -50.6750
   XY=             -4.8453   XZ=              1.3438   YZ=             -1.2110

  Exact polarizability:  83.573  -0.148  82.061   1.440  -0.587  65.091
 Approx polarizability: 125.909   7.639 121.346   2.309   0.821  98.196

                      1                      2                      3
                      A                      A                      A
 Frequencies --     53.7592                89.2693               159.5341
 Red. masses --      3.6396                 4.3349                 3.5058
 Frc consts  --      0.0062                 0.0204                 0.0526
 IR Inten    --      0.4901                 9.8960                 5.3834

                      4                      5                      6
                      A                      A                      A
 Frequencies --    203.9283               234.1168               263.2988
 Red. masses --      2.9045                 1.4057                 1.3641
 Frc consts  --      0.0712                 0.0454                 0.0557
 IR Inten    --      1.5714                 0.8672                 0.1564

                      7                      8                      9
                      A                      A                      A
 Frequencies --    280.1802               330.0514               368.6750
 Red. masses --      1.4772                 2.3112                 2.5724
 Frc consts  --      0.0683                 0.1483                 0.2060
 IR Inten    --      0.3352                 0.3840                 1.1347

                     10                     11                     12
                      A                      A                      A
 Frequencies --    372.8063               428.5504               546.5112
 Red. masses --      2.6388                 2.6376                 3.2615
 Frc consts  --      0.2161                 0.2854                 0.5739
 IR Inten    --      4.5920                 0.9912                 2.5618

                     13                     14                     15
                      A                      A                      A
 Frequencies --    599.7255               639.5311               708.3275
 Red. masses --      3.5413                 4.1083                 3.2828
 Frc consts  --      0.7504                 0.9900                 0.9704
 IR Inten    --      1.2791                20.5161                 8.5024

                     16                     17                     18
                      A                      A                      A
 Frequencies --    800.8289               828.7122               908.5345
 Red. masses --      2.5853                 1.6668                 2.5365
 Frc consts  --      0.9769                 0.6744                 1.2336
 IR Inten    --     11.4682                 1.7060                 3.0717

                     19                     20                     21
                      A                      A                      A
 Frequencies --    931.2324               962.3577               998.1399
 Red. masses --      1.6295                 1.3885                 1.6158
 Frc consts  --      0.8326                 0.7577                 0.9485
 IR Inten    --      2.4783                 0.3180                 0.2744

                     22                     23                     24
                      A                      A                      A
 Frequencies --   1004.6367              1051.7245              1069.6348
 Red. masses --      1.5758                 2.4305                 1.9924
 Frc consts  --      0.9370                 1.5840                 1.3431
 IR Inten    --      1.0807                23.0430                63.2584

                     25                     26                     27
                      A                      A                      A
 Frequencies --   1115.3875              1136.8316              1182.6559
 Red. masses --      1.8811                 1.9778                 1.6340
 Frc consts  --      1.3788                 1.5060                 1.3465
 IR Inten    --      2.4679                 5.5451                 5.0452

                     28                     29                     30
                      A                      A                      A
 Frequencies --   1215.5961              1243.4078              1276.3814
 Red. masses --      1.8693                 2.4255                 2.7020
 Frc consts  --      1.6275                 2.2094                 2.5936
 IR Inten    --      4.6490                61.3946                13.2125

                     31                     32                     33
                      A                      A                      A
 Frequencies --   1319.1801              1405.2839              1415.7312
 Red. masses --      2.3607                 1.2624                 1.2035
 Frc consts  --      2.4205                 1.4688                 1.4213
 IR Inten    --     35.0126                 6.4914                 6.2230

                     34                     35                     36
                      A                      A                      A
 Frequencies --   1423.9931              1441.0528              1482.8045
 Red. masses --      1.1874                 1.1266                 1.0440
 Frc consts  --      1.4187                 1.3785                 1.3524
 IR Inten    --      2.9415                 5.3312                 0.0566

                     37                     38                     39
                      A                      A                      A
 Frequencies --   1486.6092              1502.3874              1505.0968
 Red. masses --      1.0555                 1.0582                 1.0503
 Frc consts  --      1.3743                 1.4072                 1.4019
 IR Inten    --      3.4080                 5.4235                 5.1368

                     40                     41                     42
                      A                      A                      A
 Frequencies --   1816.8465              1889.2690              2892.4905
 Red. masses --     10.2982                12.7702                 1.0832
 Frc consts  --     20.0286                26.8556                 5.3394
 IR Inten    --    212.5376               238.7954               100.0875

                     43                     44                     45
                      A                      A                      A
 Frequencies --   3004.2330              3024.9931              3034.0236
 Red. masses --      1.0803                 1.0353                 1.0388
 Frc consts  --      5.7448                 5.5819                 5.6338
 IR Inten    --      4.6633                25.0110                14.3914

                     46                     47                     48
                      A                      A                      A
 Frequencies --   3048.5423              3091.2862              3094.8384
 Red. masses --      1.0602                 1.1017                 1.1010
 Frc consts  --      5.8054                 6.2028                 6.2130
 IR Inten    --      7.2212                12.8840                39.6163

                     49                     50                     51
                      A                      A                      A
 Frequencies --   3100.1891              3109.2699              3139.2626
 Red. masses --      1.1014                 1.1038                 1.0984
 Frc consts  --      6.2369                 6.2873                 6.3777
 IR Inten    --     18.2206                 7.9872                 9.1740

 - Thermochemistry -
 -------------------
 Temperature   298.150 Kelvin.  Pressure   1.00000 Atm.
 Atom     1 has atomic number  6 and mass  12.00000

 Molecular mass:   126.06808 amu.
 Principal axes and moments of inertia in atomic units:
                           1         2         3
     Eigenvalues --   995.578931057.682741634.63515
           X            0.82780  -0.56100   0.00470
           Y            0.56099   0.82781   0.00345
           Z           -0.00582  -0.00022   0.99998
 This molecule is an asymmetric top.
 Rotational symmetry number  1.
 Warning -- assumption of classical behavior for rotation
           may cause significant error
 Rotational temperatures (Kelvin)      0.08700     0.08189     0.05299
 Rotational constants (GHZ):           1.81276     1.70632     1.10406
 Zero-point vibrational energy     408116.3 (Joules/Mol)
                                   97.54213 (Kcal/Mol)
 Warning -- explicit consideration of  13 degrees of freedom as
           vibrations may cause significant error
 Vibrational temperatures:     77.35   128.44   229.53   293.41   336.84
          (Kelvin)            378.83   403.12   474.87   530.44   536.38
                              616.59   786.31   862.87   920.14  1019.12
                             1152.21  1192.33  1307.18  1339.83  1384.62
                             1436.10  1445.45  1513.20  1538.96  1604.79
                             1635.65  1701.58  1748.97  1788.98  1836.43
                             1898.00  2021.89  2036.92  2048.81  2073.35
                             2133.42  2138.90  2161.60  2165.50  2614.03
                             2718.23  4161.64  4322.42  4352.28  4365.28
                             4386.17  4447.67  4452.78  4460.48  4473.54
                             4516.69

 Zero-point correction=                           0.155443 (Hartree/Particle)
 Thermal correction to Energy=                    0.164996
 Thermal correction to Enthalpy=                  0.165940
 Thermal correction to Gibbs Free Energy=         0.120887
 Sum of electronic and zero-point Energies=           -423.050285
 Sum of electronic and thermal Energies=              -423.040732
 Sum of electronic and thermal Enthalpies=            -423.039788
 Sum of electronic and thermal Free Energies=         -423.084840

                     E (Thermal)             CV                S
                      KCal/Mol        Cal/Mol-Kelvin    Cal/Mol-Kelvin
 Total                  103.537             35.043             94.821
 Electronic               0.000              0.000              0.000
 Translational            0.889              2.981             40.409
 Rotational               0.889              2.981             28.933
 Vibrational            101.759             29.081             25.479
 Vibration     1          0.596              1.976              4.674
 Vibration     2          0.602              1.957              3.676
 Vibration     3          0.621              1.892              2.555
 Vibration     4          0.640              1.834              2.097
 Vibration     5          0.654              1.789              1.847
 Vibration     6          0.670              1.740              1.640
 Vibration     7          0.680              1.710              1.533
 Vibration     8          0.713              1.615              1.260
 Vibration     9          0.741              1.537              1.085
 Vibration    10          0.744              1.528              1.068
 Vibration    11          0.790              1.408              0.863
 Vibration    12          0.902              1.147              0.551
 Vibration    13          0.958              1.032              0.450

 Normal termination of Gaussian 09 at Mon Jan 27 16:55:41 2020.
