 Gaussian 09, Revision D.01,
 Gaussian 09:  ES64L-G09RevD.01 24-Apr-2013

 -----------------------------
 # b3lyp 6-31G(2df,p) opt Freq
 -----------------------------

 -----
 titel
 -----
 Symbolic Z-matrix:
 Charge =  0 Multiplicity = 1

 SCF Done:  E(RB3LYP) =  -423.157318441     A.U. after   13 cycles
 Optimization completed.
    -- Stationary point found.
 Normal termination of Gaussian 09 at Mon Jan 27 11:19:38 2020.

 ----------------------------------------------------------------------
 #N Geom=AllCheck Guess=TCheck SCRF=Check GenChk RB3LYP/6-31G(2df,p) Fr
 eq
 ----------------------------------------------------------------------

 Structure from the checkpoint file:  "/scratch/puck/g09_40d2ef6b-1ff9-47e6-b1d2-3b502af44e1b/Gau-32312.chk"
 -----
 titel
 -----
 Charge =  0 Multiplicity = 1

                         Standard orientation:
 ---------------------------------------------------------------------
 Center     Atomic      Atomic             Coordinates (Angstroms)
 Number     Number       Type             X           Y           Z
 ---------------------------------------------------------------------
      1          6           0        1.757443    0.082002   -0.575134
      2          6           0        1.122666   -1.355766   -0.464717
      3          6           0       -0.151930   -0.941029    0.244779
      4          6           0        0.320216   -0.009709    1.356648
      5          6           0        0.936298    1.010037    0.397978
      6          8           0       -0.113012    1.742238   -0.269549
      7          6           0       -1.409471    1.108608   -0.282044
      8          6           0       -1.187576   -0.352616   -0.608474
      9          8           0       -1.459858   -1.475402    0.265871
     10          1           0        2.812693    0.075469   -0.287756
     11          1           0        1.689640    0.476582   -1.591314
     12          1           0        0.948919   -1.821443   -1.436139
     13          1           0        1.747073   -2.026268    0.134607
     14          1           0       -0.470910    0.382670    1.993545
     15          1           0        1.079489   -0.483630    1.986272
     16          1           0        1.570034    1.770261    0.859259
     17          1           0       -1.936113    1.235542    0.672009
     18          1           0       -1.976716    1.633479   -1.054010
     19          1           0       -1.207022   -0.626506   -1.661268
 ---------------------------------------------------------------------

 SCF Done:  E(RB3LYP) =  -423.157318441     A.U. after    1 cycles

 The electronic state is 1-A.
 Alpha  occ. eigenvalues --  -19.15981 -19.13708 -10.23942 -10.23795 -10.23384
 Alpha  occ. eigenvalues --  -10.22961 -10.19221 -10.18831 -10.18615  -1.07689
 Alpha  occ. eigenvalues --   -1.02097  -0.83549  -0.74564  -0.72034  -0.67262
 Alpha  occ. eigenvalues --   -0.62984  -0.56976  -0.53733  -0.51479  -0.49532
 Alpha  occ. eigenvalues --   -0.46976  -0.46223  -0.44068  -0.42070  -0.39907
 Alpha  occ. eigenvalues --   -0.38716  -0.36735  -0.36462  -0.35144  -0.34710
 Alpha  occ. eigenvalues --   -0.30081  -0.28075  -0.26893  -0.24686
 Alpha virt. eigenvalues --    0.07233   0.08169   0.10407   0.10887   0.11249
 Alpha virt. eigenvalues --    0.12636   0.15306   0.15860   0.16186   0.16839
 Alpha virt. eigenvalues --    0.18910   0.19067   0.19690   0.20712   0.22359

 Mulliken charges:
               1
     1  C   -0.216331
     2  C   -0.308095
     3  C    0.402555
     4  C   -0.300816
     5  C    0.129678
     6  O   -0.291490
     7  C   -0.126027
     8  C   -0.015211
     9  O   -0.318412
    10  H    0.102812
    11  H    0.114794
    12  H    0.109521
    13  H    0.100995
    14  H    0.114853
    15  H    0.099004
    16  H    0.079279
    17  H    0.109800
    18  H    0.112477
    19  H    0.100615
 Sum of Mulliken charges =   0.00000

 Dipole moment (field-independent basis, Debye):
    X=              1.2405    Y=              0.1504    Z=             -0.1178  Tot=              1.2551
 Quadrupole moment (field-independent basis, Debye-Ang):
   XX=            -52.0158   YY=            -58.8556   ZZ=            -50.6977
   XY=             -3.9727   XZ=              2.1820   YZ=              1.8656

  Exact polarizability:  80.153  -3.746  70.793   3.135   0.366  68.452
 Approx polarizability: 116.300  -1.230 107.113   5.263  -4.642 104.636

                      1                      2                      3
                      A                      A                      A
 Frequencies --    187.4525               282.3876               350.8738
 Red. masses --      2.4737                 2.6220                 2.5738
 Frc consts  --      0.0512                 0.1232                 0.1867
 IR Inten    --      2.1805                 5.6970                 3.1815

                      4                      5                      6
                      A                      A                      A
 Frequencies --    388.4550               423.9472               477.9498
 Red. masses --      2.8113                 3.5536                 4.6319
 Frc consts  --      0.2499                 0.3763                 0.6234
 IR Inten    --      5.5466                 1.4747                 0.3265

                      7                      8                      9
                      A                      A                      A
 Frequencies --    495.0091               558.3775               569.4389
 Red. masses --      2.2611                 4.1899                 4.3188
 Frc consts  --      0.3264                 0.7697                 0.8251
 IR Inten    --      3.0797                 0.8611                 5.5097

                     10                     11                     12
                      A                      A                      A
 Frequencies --    711.7778               767.2522               801.5509
 Red. masses --      2.4412                 3.0253                 2.9829
 Frc consts  --      0.7287                 1.0493                 1.1292
 IR Inten    --      0.3099                 4.9558                 1.9709

                     13                     14                     15
                      A                      A                      A
 Frequencies --    843.4151               861.7348               879.1119
 Red. masses --      2.1706                 2.4480                 3.4049
 Frc consts  --      0.9097                 1.0710                 1.5504
 IR Inten    --      8.5467                 6.5704                29.8491

                     16                     17                     18
                      A                      A                      A
 Frequencies --    910.9354               937.3713               976.0934
 Red. masses --      3.1997                 2.0824                 2.5164
 Frc consts  --      1.5644                 1.0780                 1.4126
 IR Inten    --     14.0360                29.1025                 5.5688

                     19                     20                     21
                      A                      A                      A
 Frequencies --    988.1236              1004.3782              1035.3468
 Red. masses --      2.4093                 1.7023                 2.6253
 Frc consts  --      1.3860                 1.0118                 1.6580
 IR Inten    --     11.1155                 5.6287                47.7295

                     22                     23                     24
                      A                      A                      A
 Frequencies --   1052.4883              1074.4690              1102.5759
 Red. masses --      2.0240                 1.5547                 2.5583
 Frc consts  --      1.3210                 1.0575                 1.8324
 IR Inten    --      9.9098                 3.6412                 1.1095

                     25                     26                     27
                      A                      A                      A
 Frequencies --   1151.2990              1157.5050              1214.2483
 Red. masses --      1.6552                 1.6693                 1.4453
 Frc consts  --      1.2927                 1.3178                 1.2555
 IR Inten    --      0.8543                29.4467                 6.3117

                     28                     29                     30
                      A                      A                      A
 Frequencies --   1217.9550              1228.1039              1251.4233
 Red. masses --      1.6956                 1.4071                 1.1936
 Frc consts  --      1.4819                 1.2504                 1.1013
 IR Inten    --     18.7961                 8.7436                 3.2439

                     31                     32                     33
                      A                      A                      A
 Frequencies --   1274.7362              1308.3998              1327.7780
 Red. masses --      1.5621                 1.4098                 1.5287
 Frc consts  --      1.4956                 1.4220                 1.5879
 IR Inten    --      2.8939                 6.3122                 1.9681

                     34                     35                     36
                      A                      A                      A
 Frequencies --   1338.0646              1361.4472              1381.9504
 Red. masses --      1.2900                 1.2570                 1.3249
 Frc consts  --      1.3608                 1.3727                 1.4908
 IR Inten    --      2.6254                 5.1860                 3.0845

                     37                     38                     39
                      A                      A                      A
 Frequencies --   1470.2164              1485.4361              1487.1675
 Red. masses --      1.2258                 2.6791                 1.0995
 Frc consts  --      1.5610                 3.4830                 1.4327
 IR Inten    --      3.6646                24.2992                 2.7915

                     40                     41                     42
                      A                      A                      A
 Frequencies --   1508.2220              1524.2275              3025.8041
 Red. masses --      1.1457                 1.0934                 1.0675
 Frc consts  --      1.5356                 1.4967                 5.7585
 IR Inten    --      5.4540                 3.6234                41.7810

                     43                     44                     45
                      A                      A                      A
 Frequencies --   3050.1249              3062.1171              3063.3737
 Red. masses --      1.0645                 1.0654                 1.0654
 Frc consts  --      5.8347                 5.8859                 5.8904
 IR Inten    --     25.1514                22.5239                27.1337

                     46                     47                     48
                      A                      A                      A
 Frequencies --   3088.9296              3100.3367              3109.4200
 Red. masses --      1.0868                 1.0957                 1.1021
 Frc consts  --      6.1096                 6.2055                 6.2779
 IR Inten    --     54.1994                20.5112                 3.8134

                     49                     50                     51
                      A                      A                      A
 Frequencies --   3124.1726              3133.6426              3145.5400
 Red. masses --      1.1028                 1.0904                 1.0983
 Frc consts  --      6.3418                 6.3089                 6.4029
 IR Inten    --     19.0393                34.6371                17.3459

 - Thermochemistry -
 -------------------
 Temperature   298.150 Kelvin.  Pressure   1.00000 Atm.
 Atom     1 has atomic number  6 and mass  12.00000

 Molecular mass:   126.06808 amu.
 Principal axes and moments of inertia in atomic units:
                           1         2         3
     Eigenvalues --   759.94784 814.802481169.93101
           X            0.84259  -0.53853   0.00450
           Y            0.53821   0.84233   0.02864
           Z           -0.01921  -0.02171   0.99958
 This molecule is an asymmetric top.
 Rotational symmetry number  1.
 Warning -- assumption of classical behavior for rotation
           may cause significant error
 Rotational temperatures (Kelvin)      0.11397     0.10630     0.07403
 Rotational constants (GHZ):           2.37482     2.21494     1.54260
 Zero-point vibrational energy     426302.2 (Joules/Mol)
                                  101.88866 (Kcal/Mol)
 Warning -- explicit consideration of   9 degrees of freedom as
           vibrations may cause significant error
 Vibrational temperatures:    269.70   406.29   504.83   558.90   609.96
          (Kelvin)            687.66   712.21   803.38   819.29  1024.09
                             1103.90  1153.25  1213.48  1239.84  1264.84
                             1310.63  1348.67  1404.38  1421.69  1445.07
                             1489.63  1514.29  1545.92  1586.36  1656.46
                             1665.39  1747.03  1752.36  1766.97  1800.52
                             1834.06  1882.49  1910.37  1925.17  1958.82
                             1988.32  2115.31  2137.21  2139.70  2169.99
                             2193.02  4353.45  4388.44  4405.70  4407.51
                             4444.28  4460.69  4473.76  4494.98  4508.61
                             4525.72

 Zero-point correction=                           0.162370 (Hartree/Particle)
 Thermal correction to Energy=                    0.168999
 Thermal correction to Enthalpy=                  0.169944
 Thermal correction to Gibbs Free Energy=         0.131824
 Sum of electronic and zero-point Energies=           -422.994949
 Sum of electronic and thermal Energies=              -422.988319
 Sum of electronic and thermal Enthalpies=            -422.987375
 Sum of electronic and thermal Free Energies=         -423.025495

                     E (Thermal)             CV                S
                      KCal/Mol        Cal/Mol-Kelvin    Cal/Mol-Kelvin
 Total                  106.049             28.374             80.230
 Electronic               0.000              0.000              0.000
 Translational            0.889              2.981             40.409
 Rotational               0.889              2.981             28.073
 Vibrational            104.271             22.412             11.748
 Vibration     1          0.632              1.857              2.253
 Vibration     2          0.681              1.706              1.519
 Vibration     3          0.728              1.573              1.162
 Vibration     4          0.757              1.495              1.006
 Vibration     5          0.786              1.418              0.879
 Vibration     6          0.834              1.299              0.716
 Vibration     7          0.851              1.261              0.671
 Vibration     8          0.914              1.121              0.527
 Vibration     9          0.925              1.097              0.505

 Optimization completed.
    -- Stationary point found.
 Normal termination of Gaussian 09 at Mon Jan 27 12:10:10 2020.
