 Gaussian 09, Revision D.01,
 Gaussian 09:  ES64L-G09RevD.01 24-Apr-2013

 -----------------------------
 # b3lyp 6-31G(2df,p) opt Freq
 -----------------------------

 -----
 titel
 -----
 Symbolic Z-matrix:
 Charge =  0 Multiplicity = 1

 SCF Done:  E(RB3LYP) =  -423.139996583     A.U. after   13 cycles
 Optimization completed.
    -- Stationary point found.
 Normal termination of Gaussian 09 at Mon Jan 27 16:01:42 2020.

 ----------------------------------------------------------------------
 #N Geom=AllCheck Guess=TCheck SCRF=Check GenChk RB3LYP/6-31G(2df,p) Fr
 eq
 ----------------------------------------------------------------------

 Structure from the checkpoint file:  "/scratch/puck/g09_3e4a8fcb-cac1-4814-8a71-8d8bb58dfb19/Gau-175354.chk"
 -----
 titel
 -----
 Charge =  0 Multiplicity = 1

                         Standard orientation:
 ---------------------------------------------------------------------
 Center     Atomic      Atomic             Coordinates (Angstroms)
 Number     Number       Type             X           Y           Z
 ---------------------------------------------------------------------
      1          6           0        2.209417    1.117928   -0.005668
      2          6           0        1.207320   -0.026821   -0.004518
      3          8           0        1.891052   -1.269288   -0.084761
      4          6           0       -0.013901    0.016532    0.957410
      5          6           0       -0.717051    1.039154   -0.002100
      6          6           0       -2.198260    0.683382   -0.003210
      7          8           0       -2.135002   -0.749589    0.007434
      8          6           0       -0.742382   -0.990010    0.010863
      9          6           0       -0.011713    0.005015   -0.948316
     10          1           0        2.845223    1.056212   -0.894249
     11          1           0        1.734063    2.100698    0.012714
     12          1           0        2.861408    1.054403    0.875192
     13          1           0        2.572070   -1.280269    0.595706
     14          1           0       -0.022606    0.029074    2.049075
     15          1           0       -0.440902    2.091899   -0.009337
     16          1           0       -2.731337    1.046661    0.884640
     17          1           0       -2.727347    1.033543   -0.898781
     18          1           0       -0.525447   -2.052697    0.016064
     19          1           0       -0.014109    0.000418   -2.039180
 ---------------------------------------------------------------------

 SCF Done:  E(RB3LYP) =  -423.139996583     A.U. after    1 cycles

 The electronic state is 1-A.
 Alpha  occ. eigenvalues --  -19.13548 -19.13080 -10.24333 -10.23080 -10.22220
 Alpha  occ. eigenvalues --  -10.19950 -10.19268 -10.19173 -10.18058  -1.04281
 Alpha  occ. eigenvalues --   -1.02049  -0.88830  -0.73318  -0.72594  -0.63748
 Alpha  occ. eigenvalues --   -0.62056  -0.58431  -0.54144  -0.50925  -0.49421
 Alpha  occ. eigenvalues --   -0.46930  -0.45465  -0.42316  -0.40947  -0.39756
 Alpha  occ. eigenvalues --   -0.37399  -0.35671  -0.34803  -0.33740  -0.31800
 Alpha  occ. eigenvalues --   -0.30800  -0.29895  -0.26146  -0.23360
 Alpha virt. eigenvalues --    0.07303   0.11034   0.11758   0.12891   0.13685
 Alpha virt. eigenvalues --    0.13898   0.14047   0.14292   0.15477   0.16677
 Alpha virt. eigenvalues --    0.17457   0.19215   0.19509   0.20638   0.21167

 Mulliken charges:
               1
     1  C   -0.474193
     2  C    0.438585
     3  O   -0.486297
     4  C   -0.168967
     5  C   -0.075669
     6  C   -0.109101
     7  O   -0.284708
     8  C    0.147043
     9  C   -0.135434
    10  H    0.128405
    11  H    0.121800
    12  H    0.107184
    13  H    0.275556
    14  H    0.065068
    15  H    0.071818
    16  H    0.100825
    17  H    0.101586
    18  H    0.105007
    19  H    0.071491
 Sum of Mulliken charges =   0.00000

 Dipole moment (field-independent basis, Debye):
    X=              1.5798    Y=              1.9246    Z=              0.9090  Tot=              2.6507
 Quadrupole moment (field-independent basis, Debye-Ang):
   XX=            -53.4823   YY=            -53.6990   ZZ=            -51.5936
   XY=             -2.9042   XZ=              2.8997   YZ=             -1.5665

  Exact polarizability:  87.007  -3.308  70.334   1.361  -0.431  66.390
 Approx polarizability: 114.668  -4.964 108.690   1.944   0.138 105.667

                      1                      2                      3
                      A                      A                      A
 Frequencies --    208.6595               218.5658               233.0829
 Red. masses --      1.0729                 2.8851                 3.9647
 Frc consts  --      0.0275                 0.0812                 0.1269
 IR Inten    --      0.4624                 1.3545                 0.1627

                      4                      5                      6
                      A                      A                      A
 Frequencies --    271.0735               287.5834               362.7247
 Red. masses --      1.2784                 1.6818                 3.7487
 Frc consts  --      0.0553                 0.0819                 0.2906
 IR Inten    --     61.4589                27.0095                11.5827

                      7                      8                      9
                      A                      A                      A
 Frequencies --    388.9458               504.5327               535.8875
 Red. masses --      3.5264                 2.5475                 4.8361
 Frc consts  --      0.3143                 0.3821                 0.8183
 IR Inten    --      4.5304                 3.1673                11.4620

                     10                     11                     12
                      A                      A                      A
 Frequencies --    591.7057               733.9849               767.2685
 Red. masses --      4.0773                 4.5476                 2.7691
 Frc consts  --      0.8411                 1.4435                 0.9605
 IR Inten    --      4.1938                 2.3014                 0.9340

                     13                     14                     15
                      A                      A                      A
 Frequencies --    775.3985               791.6886               899.3401
 Red. masses --      2.9708                 2.8303                 1.9738
 Frc consts  --      1.0524                 1.0452                 0.9406
 IR Inten    --      2.1238                 3.9207                 1.8948

                     16                     17                     18
                      A                      A                      A
 Frequencies --    906.3446               947.3280               972.5269
 Red. masses --      2.4671                 2.0823                 3.0326
 Frc consts  --      1.1941                 1.1010                 1.6899
 IR Inten    --      5.4164                56.5214                19.4185

                     19                     20                     21
                      A                      A                      A
 Frequencies --    976.6165               981.4316               983.1776
 Red. masses --      2.4893                 1.1121                 2.8550
 Frc consts  --      1.3989                 0.6311                 1.6260
 IR Inten    --     21.1041                 0.4749                 1.8946

                     22                     23                     24
                      A                      A                      A
 Frequencies --   1043.9718              1052.5976              1093.8298
 Red. masses --      1.5290                 3.2561                 1.9577
 Frc consts  --      0.9818                 2.1255                 1.3800
 IR Inten    --      9.7928                78.8472                 6.1706

                     25                     26                     27
                      A                      A                      A
 Frequencies --   1113.4137              1139.2714              1148.4669
 Red. masses --      3.4004                 1.7778                 1.5266
 Frc consts  --      2.4837                 1.3595                 1.1863
 IR Inten    --     10.5958                14.2524                 2.0087

                     28                     29                     30
                      A                      A                      A
 Frequencies --   1153.5331              1180.0360              1186.5468
 Red. masses --      1.4225                 1.3657                 2.6755
 Frc consts  --      1.1152                 1.1204                 2.2194
 IR Inten    --      0.3027                 4.3588                76.5738

                     31                     32                     33
                      A                      A                      A
 Frequencies --   1216.3712              1223.6612              1264.3255
 Red. masses --      1.8537                 1.4007                 1.8121
 Frc consts  --      1.6159                 1.2357                 1.7066
 IR Inten    --     17.7823                26.2817                61.7704

                     34                     35                     36
                      A                      A                      A
 Frequencies --   1279.2208              1320.9852              1379.5428
 Red. masses --      1.5789                 1.6854                 1.6634
 Frc consts  --      1.5223                 1.7328                 1.8652
 IR Inten    --     13.8973                 4.1283                31.4237

                     37                     38                     39
                      A                      A                      A
 Frequencies --   1399.2026              1414.5663              1491.2044
 Red. masses --      1.8002                 1.3048                 1.0545
 Frc consts  --      2.0765                 1.5383                 1.3816
 IR Inten    --      5.0624                11.1354                 4.9367

                     40                     41                     42
                      A                      A                      A
 Frequencies --   1497.3463              1522.7404              3013.6595
 Red. masses --      1.0732                 1.0982                 1.0558
 Frc consts  --      1.4177                 1.5003                 5.6497
 IR Inten    --      5.3778                 0.3485                76.4247

                     43                     44                     45
                      A                      A                      A
 Frequencies --   3024.8245              3050.1282              3090.0399
 Red. masses --      1.0436                 1.1097                 1.0932
 Frc consts  --      5.6259                 6.0825                 6.1498
 IR Inten    --     27.6409                34.9940                18.5795

                     46                     47                     48
                      A                      A                      A
 Frequencies --   3094.1068              3106.1728              3125.9935
 Red. masses --      1.0899                 1.0902                 1.0992
 Frc consts  --      6.1478                 6.1976                 6.3284
 IR Inten    --     60.0546                29.7366                12.6844

                     49                     50                     51
                      A                      A                      A
 Frequencies --   3140.9724              3191.8222              3810.8495
 Red. masses --      1.0897                 1.0917                 1.0660
 Frc consts  --      6.3340                 6.5531                 9.1208
 IR Inten    --     39.7127                14.5317                16.9020

 - Thermochemistry -
 -------------------
 Temperature   298.150 Kelvin.  Pressure   1.00000 Atm.
 Atom     1 has atomic number  6 and mass  12.00000

 Molecular mass:   126.06808 amu.
 Principal axes and moments of inertia in atomic units:
                           1         2         3
     Eigenvalues --   474.689181258.147251491.06382
           X            0.99998   0.00454   0.00534
           Y           -0.00448   0.99993  -0.01103
           Z           -0.00539   0.01101   0.99992
 This molecule is an asymmetric top.
 Rotational symmetry number  1.
 Warning -- assumption of classical behavior for rotation
           may cause significant error
 Rotational temperatures (Kelvin)      0.18246     0.06884     0.05809
 Rotational constants (GHZ):           3.80194     1.43444     1.21037
 Zero-point vibrational energy     419334.6 (Joules/Mol)
                                  100.22337 (Kcal/Mol)
 Warning -- explicit consideration of  10 degrees of freedom as
           vibrations may cause significant error
 Vibrational temperatures:    300.21   314.47   335.35   390.01   413.77
          (Kelvin)            521.88   559.61   725.91   771.02   851.33
                             1056.04  1103.93  1115.62  1139.06  1293.95
                             1304.03  1362.99  1399.25  1405.13  1412.06
                             1414.57  1502.04  1514.45  1573.78  1601.95
                             1639.16  1652.39  1659.67  1697.81  1707.17
                             1750.08  1760.57  1819.08  1840.51  1900.60
                             1984.85  2013.14  2035.24  2145.51  2154.34
                             2190.88  4335.98  4352.04  4388.45  4445.87
                             4451.72  4469.08  4497.60  4519.15  4592.31
                             5482.96

 Zero-point correction=                           0.159716 (Hartree/Particle)
 Thermal correction to Energy=                    0.167263
 Thermal correction to Enthalpy=                  0.168207
 Thermal correction to Gibbs Free Energy=         0.128313
 Sum of electronic and zero-point Energies=           -422.980280
 Sum of electronic and thermal Energies=              -422.972734
 Sum of electronic and thermal Enthalpies=            -422.971790
 Sum of electronic and thermal Free Energies=         -423.011683

                     E (Thermal)             CV                S
                      KCal/Mol        Cal/Mol-Kelvin    Cal/Mol-Kelvin
 Total                  104.959             30.942             83.964
 Electronic               0.000              0.000              0.000
 Translational            0.889              2.981             40.409
 Rotational               0.889              2.981             28.278
 Vibrational            103.182             24.980             15.277
 Vibration     1          0.642              1.827              2.055
 Vibration     2          0.646              1.813              1.971
 Vibration     3          0.654              1.790              1.855
 Vibration     4          0.675              1.727              1.589
 Vibration     5          0.685              1.697              1.488
 Vibration     6          0.737              1.549              1.110
 Vibration     7          0.757              1.494              1.004
 Vibration     8          0.860              1.240              0.647
 Vibration     9          0.891              1.171              0.574
 Vibration    10          0.949              1.049              0.464

 Normal termination of Gaussian 09 at Mon Jan 27 16:49:33 2020.
