 Gaussian 09, Revision D.01,
 Gaussian 09:  ES64L-G09RevD.01 24-Apr-2013

 -----------------------------
 # b3lyp 6-31G(2df,p) opt Freq
 -----------------------------

 -----
 titel
 -----
 Symbolic Z-matrix:
 Charge =  0 Multiplicity = 1

 SCF Done:  E(RB3LYP) =  -423.194862078     A.U. after   14 cycles
 Optimization completed.
    -- Stationary point found.
 Normal termination of Gaussian 09 at Tue Jan 28 02:22:02 2020.

 ----------------------------------------------------------------------
 #N Geom=AllCheck Guess=TCheck SCRF=Check GenChk RB3LYP/6-31G(2df,p) Fr
 eq
 ----------------------------------------------------------------------

 Structure from the checkpoint file:  "/scratch/puck/g09_20498ee9-b677-4f07-a8ae-b28283300819/Gau-112331.chk"
 -----
 titel
 -----
 Charge =  0 Multiplicity = 1

                         Standard orientation:
 ---------------------------------------------------------------------
 Center     Atomic      Atomic             Coordinates (Angstroms)
 Number     Number       Type             X           Y           Z
 ---------------------------------------------------------------------
      1          6           0       -2.020582   -1.430567    0.029352
      2          6           0       -0.780478   -0.574080    0.057134
      3          6           0       -0.014816   -0.178197    1.372252
      4          6           0        0.572613    0.994537    0.516298
      5          6           0        1.414190    0.223429   -0.512141
      6          8           0        2.601719   -0.233288    0.112133
      7          6           0        0.406346   -0.925986   -0.874520
      8          6           0       -0.814742    0.954359   -0.153777
      9          8           0       -1.635950    1.753594   -0.494343
     10          1           0       -2.448273   -1.461270   -0.978429
     11          1           0       -1.800696   -2.460528    0.330708
     12          1           0       -2.787789   -1.035412    0.702319
     13          1           0       -0.680927    0.161621    2.167103
     14          1           0        0.717022   -0.895353    1.745940
     15          1           0        0.997706    1.897352    0.947270
     16          1           0        1.655418    0.847105   -1.383183
     17          1           0        3.088214   -0.766017   -0.525521
     18          1           0        0.120939   -0.929623   -1.930928
     19          1           0        0.837047   -1.901297   -0.625187
 ---------------------------------------------------------------------

 SCF Done:  E(RB3LYP) =  -423.194862078     A.U. after    1 cycles

 The electronic state is 1-A.
 Alpha  occ. eigenvalues --  -19.14453 -19.13548 -10.26588 -10.24538 -10.20549
 Alpha  occ. eigenvalues --  -10.19672 -10.19648 -10.19354 -10.18208  -1.04609
 Alpha  occ. eigenvalues --   -1.02808  -0.89380  -0.74890  -0.72495  -0.66579
 Alpha  occ. eigenvalues --   -0.62724  -0.56762  -0.52716  -0.49652  -0.48886
 Alpha  occ. eigenvalues --   -0.46047  -0.45186  -0.42857  -0.40983  -0.39063
 Alpha  occ. eigenvalues --   -0.38682  -0.37593  -0.37264  -0.35412  -0.34495
 Alpha  occ. eigenvalues --   -0.32495  -0.31153  -0.27249  -0.23417
 Alpha virt. eigenvalues --   -0.00299   0.07076   0.08910   0.11269   0.12638
 Alpha virt. eigenvalues --    0.13491   0.14046   0.15846   0.16791   0.16855
 Alpha virt. eigenvalues --    0.17315   0.18655   0.19605   0.19651   0.21667

 Mulliken charges:
               1
     1  C   -0.498953
     2  C    0.203410
     3  C   -0.280078
     4  C   -0.151424
     5  C    0.123776
     6  O   -0.437491
     7  C   -0.297995
     8  C    0.399849
     9  O   -0.329052
    10  H    0.128227
    11  H    0.118856
    12  H    0.127073
    13  H    0.112902
    14  H    0.122479
    15  H    0.088951
    16  H    0.077157
    17  H    0.283152
    18  H    0.106346
    19  H    0.102815
 Sum of Mulliken charges =   0.00000

 Dipole moment (field-independent basis, Debye):
    X=              1.5159    Y=             -2.4684    Z=             -0.4402  Tot=              2.9299
 Quadrupole moment (field-independent basis, Debye-Ang):
   XX=            -55.6658   YY=            -55.5193   ZZ=            -51.2406
   XY=              2.4557   XZ=             -5.6000   YZ=              2.4740

  Exact polarizability:  83.003  -0.944  74.770   0.230   0.448  68.274
 Approx polarizability: 116.907  -9.341 113.014   4.765  -2.906 105.384

                      1                      2                      3
                      A                      A                      A
 Frequencies --    136.9406               154.6926               178.4473
 Red. masses --      4.4427                 2.1368                 1.3469
 Frc consts  --      0.0491                 0.0301                 0.0253
 IR Inten    --      3.6676                 0.2889                 0.5881

                      4                      5                      6
                      A                      A                      A
 Frequencies --    222.5225               255.1784               283.6532
 Red. masses --      2.9739                 1.3494                 2.1370
 Frc consts  --      0.0868                 0.0518                 0.1013
 IR Inten    --      4.0652                60.3058                45.1759

                      7                      8                      9
                      A                      A                      A
 Frequencies --    336.5849               436.6299               449.6989
 Red. masses --      3.0731                 2.1265                 3.9685
 Frc consts  --      0.2051                 0.2389                 0.4728
 IR Inten    --      4.3507                 1.6937                 4.3972

                     10                     11                     12
                      A                      A                      A
 Frequencies --    520.4562               618.5551               672.6450
 Red. masses --      3.2183                 3.4245                 3.0883
 Frc consts  --      0.5136                 0.7720                 0.8233
 IR Inten    --      7.2266                 0.7524                 0.2838

                     13                     14                     15
                      A                      A                      A
 Frequencies --    705.8792               780.2146               801.0908
 Red. masses --      3.8395                 3.7013                 4.5096
 Frc consts  --      1.1272                 1.3275                 1.7051
 IR Inten    --      1.3940                 5.2748                11.1743

                     16                     17                     18
                      A                      A                      A
 Frequencies --    847.8831               867.7852               921.7370
 Red. masses --      2.3823                 3.0626                 2.1273
 Frc consts  --      1.0091                 1.3588                 1.0649
 IR Inten    --      7.6905                 7.0882                 0.0996

                     19                     20                     21
                      A                      A                      A
 Frequencies --    958.1285               985.5534              1006.4775
 Red. masses --      1.7903                 2.0316                 1.4797
 Frc consts  --      0.9683                 1.1627                 0.8831
 IR Inten    --     20.4941                 1.2167                 6.0917

                     22                     23                     24
                      A                      A                      A
 Frequencies --   1017.8120              1059.6363              1076.3752
 Red. masses --      1.9723                 1.7562                 1.5755
 Frc consts  --      1.2038                 1.1618                 1.0755
 IR Inten    --     13.4502                29.9696                38.5243

                     25                     26                     27
                      A                      A                      A
 Frequencies --   1118.2794              1148.9134              1165.9207
 Red. masses --      1.6958                 1.8217                 1.9452
 Frc consts  --      1.2495                 1.4168                 1.5579
 IR Inten    --      4.5410                25.0781                 2.9595

                     28                     29                     30
                      A                      A                      A
 Frequencies --   1194.5573              1225.5260              1239.5499
 Red. masses --      1.8273                 1.4040                 1.3820
 Frc consts  --      1.5363                 1.2424                 1.2511
 IR Inten    --      6.4836                19.2923                31.2528

                     31                     32                     33
                      A                      A                      A
 Frequencies --   1248.7345              1271.8352              1337.9956
 Red. masses --      1.7800                 1.5652                 1.4694
 Frc consts  --      1.6353                 1.4917                 1.5499
 IR Inten    --      2.7289                 7.2519                34.6337

                     34                     35                     36
                      A                      A                      A
 Frequencies --   1354.0152              1415.1038              1423.1374
 Red. masses --      2.4718                 1.3580                 1.3998
 Frc consts  --      2.6700                 1.6022                 1.6703
 IR Inten    --      1.1590                 3.3987                 5.8264

                     37                     38                     39
                      A                      A                      A
 Frequencies --   1478.6087              1490.9106              1491.3931
 Red. masses --      1.0876                 1.0465                 1.0502
 Frc consts  --      1.4009                 1.3705                 1.3762
 IR Inten    --      0.7355                 4.7253                 5.4492

                     40                     41                     42
                      A                      A                      A
 Frequencies --   1500.6313              1894.4625              3008.4942
 Red. masses --      1.1220                12.3622                 1.0851
 Frc consts  --      1.4886                26.1407                 5.7864
 IR Inten    --      1.7736               301.8383                49.1683

                     43                     44                     45
                      A                      A                      A
 Frequencies --   3031.6083              3044.0653              3079.9307
 Red. masses --      1.0359                 1.0584                 1.0554
 Frc consts  --      5.6093                 5.7782                 5.8987
 IR Inten    --     24.1188                31.3627                15.8282

                     46                     47                     48
                      A                      A                      A
 Frequencies --   3094.4705              3096.9578              3105.0306
 Red. masses --      1.1063                 1.1013                 1.1011
 Frc consts  --      6.2413                 6.2236                 6.2545
 IR Inten    --      8.0236                30.1572                17.0352

                     49                     50                     51
                      A                      A                      A
 Frequencies --   3148.6851              3158.6563              3811.6190
 Red. masses --      1.1111                 1.0913                 1.0662
 Frc consts  --      6.4902                 6.4152                 9.1263
 IR Inten    --      9.8705                17.7754                19.9890

 - Thermochemistry -
 -------------------
 Temperature   298.150 Kelvin.  Pressure   1.00000 Atm.
 Atom     1 has atomic number  6 and mass  12.00000

 Molecular mass:   126.06808 amu.
 Principal axes and moments of inertia in atomic units:
                           1         2         3
     Eigenvalues --   680.140741204.167541462.62094
           X            0.99778   0.06437  -0.01717
           Y           -0.06376   0.99739   0.03400
           Z            0.01931  -0.03283   0.99927
 This molecule is an asymmetric top.
 Rotational symmetry number  1.
 Warning -- assumption of classical behavior for rotation
           may cause significant error
 Rotational temperatures (Kelvin)      0.12735     0.07193     0.05922
 Rotational constants (GHZ):           2.65348     1.49875     1.23391
 Zero-point vibrational energy     417937.4 (Joules/Mol)
                                   99.88942 (Kcal/Mol)
 Warning -- explicit consideration of  11 degrees of freedom as
           vibrations may cause significant error
 Vibrational temperatures:    197.03   222.57   256.75   320.16   367.14
          (Kelvin)            408.11   484.27   628.21   647.02   748.82
                              889.96   967.78  1015.60  1122.55  1152.59
                             1219.91  1248.55  1326.17  1378.53  1417.99
                             1448.09  1464.40  1524.58  1548.66  1608.95
                             1653.03  1677.50  1718.70  1763.26  1783.43
                             1796.65  1829.88  1925.07  1948.12  2036.02
                             2047.57  2127.39  2145.09  2145.78  2159.07
                             2725.71  4328.55  4361.80  4379.73  4431.33
                             4452.25  4455.83  4467.44  4530.25  4544.60
                             5484.06

 Zero-point correction=                           0.159184 (Hartree/Particle)
 Thermal correction to Energy=                    0.167607
 Thermal correction to Enthalpy=                  0.168551
 Thermal correction to Gibbs Free Energy=         0.126576
 Sum of electronic and zero-point Energies=           -423.035678
 Sum of electronic and thermal Energies=              -423.027255
 Sum of electronic and thermal Enthalpies=            -423.026311
 Sum of electronic and thermal Free Energies=         -423.068286

                     E (Thermal)             CV                S
                      KCal/Mol        Cal/Mol-Kelvin    Cal/Mol-Kelvin
 Total                  105.175             32.680             88.344
 Electronic               0.000              0.000              0.000
 Translational            0.889              2.981             40.409
 Rotational               0.889              2.981             28.573
 Vibrational            103.398             26.719             19.363
 Vibration     1          0.614              1.916              2.846
 Vibration     2          0.620              1.897              2.614
 Vibration     3          0.629              1.869              2.345
 Vibration     4          0.648              1.807              1.938
 Vibration     5          0.666              1.754              1.695
 Vibration     6          0.682              1.704              1.512
 Vibration     7          0.717              1.602              1.228
 Vibration     8          0.797              1.390              0.837
 Vibration     9          0.809              1.362              0.797
 Vibration    10          0.875              1.205              0.609
 Vibration    11          0.978              0.993              0.419

 Optimization completed.
    -- Stationary point found.
 Normal termination of Gaussian 09 at Tue Jan 28 03:07:02 2020.
