 Gaussian 09, Revision D.01,
 Gaussian 09:  ES64L-G09RevD.01 24-Apr-2013

 -----------------------------
 # b3lyp 6-31G(2df,p) opt Freq
 -----------------------------

 -----
 titel
 -----
 Symbolic Z-matrix:
 Charge =  0 Multiplicity = 1

 SCF Done:  E(RB3LYP) =  -423.179977853     A.U. after   14 cycles
 Optimization completed.
    -- Stationary point found.
 Normal termination of Gaussian 09 at Mon Jan 27 16:52:13 2020.

 ----------------------------------------------------------------------
 #N Geom=AllCheck Guess=TCheck SCRF=Check GenChk RB3LYP/6-31G(2df,p) Fr
 eq
 ----------------------------------------------------------------------

 Structure from the checkpoint file:  "/scratch/puck/g09_8478c62a-c60d-4850-861e-82371a10a2eb/Gau-64805.chk"
 -----
 titel
 -----
 Charge =  0 Multiplicity = 1

                         Standard orientation:
 ---------------------------------------------------------------------
 Center     Atomic      Atomic             Coordinates (Angstroms)
 Number     Number       Type             X           Y           Z
 ---------------------------------------------------------------------
      1          6           0       -0.885797    1.816670    0.591449
      2          6           0       -0.467127    0.434715    0.059305
      3          6           0       -0.009275   -0.533857    1.174778
      4          8           0        0.995511   -1.379577    0.616982
      5          6           0        1.586612   -0.711180   -0.463339
      6          6           0        2.105578    0.687124   -0.251773
      7          6           0        0.739330    0.455469   -0.880088
      8          6           0       -1.656290   -0.131437   -0.716545
      9          8           0       -2.362515   -1.034533   -0.354798
     10          1           0       -0.026437    2.327671    1.034655
     11          1           0       -1.273093    2.451454   -0.212869
     12          1           0       -1.667289    1.726191    1.352957
     13          1           0        0.391707    0.031083    2.027461
     14          1           0       -0.830276   -1.164377    1.523149
     15          1           0        2.071093   -1.393272   -1.151449
     16          1           0        2.170245    1.076884    0.758514
     17          1           0        2.892662    1.032566   -0.913434
     18          1           0        0.582369    0.722258   -1.919898
     19          1           0       -1.853134    0.397389   -1.679282
 ---------------------------------------------------------------------

 SCF Done:  E(RB3LYP) =  -423.179977853     A.U. after    1 cycles

 The electronic state is 1-A.
 Alpha  occ. eigenvalues --  -19.14690 -19.14457 -10.27423 -10.23988 -10.22859
 Alpha  occ. eigenvalues --  -10.21342 -10.20170 -10.19505 -10.19362  -1.05579
 Alpha  occ. eigenvalues --   -1.04568  -0.86001  -0.80399  -0.69549  -0.66844
 Alpha  occ. eigenvalues --   -0.60329  -0.58746  -0.55603  -0.52196  -0.49602
 Alpha  occ. eigenvalues --   -0.45649  -0.44990  -0.43445  -0.42949  -0.41574
 Alpha  occ. eigenvalues --   -0.40333  -0.39522  -0.37953  -0.35185  -0.33729
 Alpha  occ. eigenvalues --   -0.32729  -0.29751  -0.25355  -0.23632
 Alpha virt. eigenvalues --   -0.02631   0.08530   0.08844   0.10050   0.11517
 Alpha virt. eigenvalues --    0.14141   0.14620   0.14828   0.15619   0.15925
 Alpha virt. eigenvalues --    0.17523   0.18451   0.19256   0.20810   0.21761

 Mulliken charges:
               1
     1  C   -0.448730
     2  C    0.161722
     3  C   -0.134152
     4  O   -0.257051
     5  C    0.122182
     6  C   -0.350027
     7  C   -0.112342
     8  C    0.140150
     9  O   -0.248464
    10  H    0.128981
    11  H    0.122921
    12  H    0.132782
    13  H    0.091265
    14  H    0.136505
    15  H    0.106556
    16  H    0.120499
    17  H    0.118684
    18  H    0.090238
    19  H    0.078279
 Sum of Mulliken charges =   0.00000

 Dipole moment (field-independent basis, Debye):
    X=              1.2420    Y=              2.9397    Z=             -0.7806  Tot=              3.2853
 Quadrupole moment (field-independent basis, Debye-Ang):
   XX=            -57.2686   YY=            -56.8023   ZZ=            -50.0013
   XY=             -2.7071   XZ=             -2.3328   YZ=              1.0994

  Exact polarizability:  81.936   3.007  71.430  -1.913  -1.221  70.107
 Approx polarizability: 114.487   8.846 111.787  -2.302  -5.173 105.236

                      1                      2                      3
                      A                      A                      A
 Frequencies --     69.9812               129.1709               196.4359
 Red. masses --      5.1751                 3.8586                 3.1007
 Frc consts  --      0.0149                 0.0379                 0.0705
 IR Inten    --      4.2217                 0.4411                 0.7099

                      4                      5                      6
                      A                      A                      A
 Frequencies --    229.7884               303.5790               312.2648
 Red. masses --      1.0348                 2.3794                 2.8254
 Frc consts  --      0.0322                 0.1292                 0.1623
 IR Inten    --      0.4801                 1.9895                 9.3861

                      7                      8                      9
                      A                      A                      A
 Frequencies --    328.0984               377.8270               449.0160
 Red. masses --      2.0833                 3.2661                 2.9978
 Frc consts  --      0.1321                 0.2747                 0.3561
 IR Inten    --      4.2826                 0.6853                 2.3320

                     10                     11                     12
                      A                      A                      A
 Frequencies --    557.9254               624.0054               705.5310
 Red. masses --      3.7890                 3.0868                 4.0007
 Frc consts  --      0.6949                 0.7082                 1.1733
 IR Inten    --      1.4774                 9.4055                 1.1508

                     13                     14                     15
                      A                      A                      A
 Frequencies --    775.3528               792.4607               851.0169
 Red. masses --      2.4094                 1.7459                 2.4341
 Frc consts  --      0.8534                 0.6460                 1.0386
 IR Inten    --     12.9940                23.4758                 0.7688

                     16                     17                     18
                      A                      A                      A
 Frequencies --    889.5473               929.2904               960.2709
 Red. masses --      2.2626                 1.7726                 2.4966
 Frc consts  --      1.0549                 0.9019                 1.3564
 IR Inten    --     22.1560                11.2077                11.2868

                     19                     20                     21
                      A                      A                      A
 Frequencies --    969.3743               990.7361              1010.0121
 Red. masses --      2.5018                 2.0242                 1.5690
 Frc consts  --      1.3851                 1.1706                 0.9430
 IR Inten    --      9.8366                21.4668                 7.6149

                     22                     23                     24
                      A                      A                      A
 Frequencies --   1036.2772              1048.8880              1064.9718
 Red. masses --      1.6107                 1.5749                 1.7739
 Frc consts  --      1.0191                 1.0209                 1.1854
 IR Inten    --     10.3596                 6.1132                 5.5454

                     25                     26                     27
                      A                      A                      A
 Frequencies --   1098.8821              1145.9118              1179.1650
 Red. masses --      1.3067                 2.7952                 3.1327
 Frc consts  --      0.9297                 2.1625                 2.5664
 IR Inten    --      2.2823                34.2775                25.5874

                     28                     29                     30
                      A                      A                      A
 Frequencies --   1189.0055              1202.2681              1237.0707
 Red. masses --      2.3178                 1.7613                 1.7474
 Frc consts  --      1.9306                 1.5000                 1.5755
 IR Inten    --     13.4733                 8.9707                15.5010

                     31                     32                     33
                      A                      A                      A
 Frequencies --   1271.7980              1323.2658              1373.2931
 Red. masses --      1.7319                 1.3331                 1.8365
 Frc consts  --      1.6504                 1.3754                 2.0407
 IR Inten    --      1.9376                 2.2353                 7.4354

                     34                     35                     36
                      A                      A                      A
 Frequencies --   1396.8819              1402.9621              1427.7067
 Red. masses --      1.4408                 1.2020                 1.2174
 Frc consts  --      1.6565                 1.3939                 1.4620
 IR Inten    --      4.6028                 2.0570                 3.8921

                     37                     38                     39
                      A                      A                      A
 Frequencies --   1476.2933              1492.3204              1497.6502
 Red. masses --      1.2731                 1.0558                 1.0569
 Frc consts  --      1.6348                 1.3853                 1.3967
 IR Inten    --      9.4645                 4.7876                 4.7689

                     40                     41                     42
                      A                      A                      A
 Frequencies --   1519.2914              1834.9163              2850.8381
 Red. masses --      1.0859                10.9160                 1.0822
 Frc consts  --      1.4768                21.6545                 5.1822
 IR Inten    --      6.3912               157.0175               107.9933

                     43                     44                     45
                      A                      A                      A
 Frequencies --   3007.7234              3032.8090              3100.1072
 Red. masses --      1.0696                 1.0348                 1.1012
 Frc consts  --      5.7009                 5.6077                 6.2353
 IR Inten    --     42.7392                22.4932                17.9234

                     46                     47                     48
                      A                      A                      A
 Frequencies --   3108.4596              3113.5240              3132.5078
 Red. masses --      1.0943                 1.1018                 1.0541
 Frc consts  --      6.2299                 6.2932                 6.0944
 IR Inten    --      5.9756                16.8603                10.7270

                     49                     50                     51
                      A                      A                      A
 Frequencies --   3161.3207              3189.3296              3218.8664
 Red. masses --      1.0899                 1.0942                 1.1155
 Frc consts  --      6.4174                 6.5574                 6.8094
 IR Inten    --      9.0948                14.6211                10.1317

 - Thermochemistry -
 -------------------
 Temperature   298.150 Kelvin.  Pressure   1.00000 Atm.
 Atom     1 has atomic number  6 and mass  12.00000

 Molecular mass:   126.06808 amu.
 Principal axes and moments of inertia in atomic units:
                           1         2         3
     Eigenvalues --   692.712301189.298561408.37402
           X            0.99963  -0.01917  -0.01950
           Y            0.01981   0.99926   0.03288
           Z            0.01885  -0.03326   0.99927
 This molecule is an asymmetric top.
 Rotational symmetry number  1.
 Warning -- assumption of classical behavior for rotation
           may cause significant error
 Rotational temperatures (Kelvin)      0.12504     0.07283     0.06150
 Rotational constants (GHZ):           2.60533     1.51748     1.28144
 Zero-point vibrational energy     416216.6 (Joules/Mol)
                                   99.47817 (Kcal/Mol)
 Warning -- explicit consideration of  10 degrees of freedom as
           vibrations may cause significant error
 Vibrational temperatures:    100.69   185.85   282.63   330.61   436.78
          (Kelvin)            449.28   472.06   543.61   646.03   802.73
                              897.80  1015.10  1115.56  1140.17  1224.42
                             1279.86  1337.04  1381.61  1394.71  1425.45
                             1453.18  1490.97  1509.11  1532.26  1581.04
                             1648.71  1696.55  1710.71  1729.79  1779.87
                             1829.83  1903.88  1975.86  2009.80  2018.55
                             2054.15  2124.05  2147.11  2154.78  2185.92
                             2640.03  4101.72  4327.44  4363.53  4460.36
                             4472.37  4479.66  4506.97  4548.43  4588.73
                             4631.23

 Zero-point correction=                           0.158529 (Hartree/Particle)
 Thermal correction to Energy=                    0.166934
 Thermal correction to Enthalpy=                  0.167878
 Thermal correction to Gibbs Free Energy=         0.125505
 Sum of electronic and zero-point Energies=           -423.021449
 Sum of electronic and thermal Energies=              -423.013044
 Sum of electronic and thermal Enthalpies=            -423.012100
 Sum of electronic and thermal Free Energies=         -423.054473

                     E (Thermal)             CV                S
                      KCal/Mol        Cal/Mol-Kelvin    Cal/Mol-Kelvin
 Total                  104.752             32.092             89.181
 Electronic               0.000              0.000              0.000
 Translational            0.889              2.981             40.409
 Rotational               0.889              2.981             28.541
 Vibrational            102.975             26.131             20.231
 Vibration     1          0.598              1.968              4.154
 Vibration     2          0.612              1.924              2.958
 Vibration     3          0.636              1.845              2.166
 Vibration     4          0.652              1.796              1.881
 Vibration     5          0.695              1.667              1.397
 Vibration     6          0.701              1.650              1.350
 Vibration     7          0.711              1.619              1.269
 Vibration     8          0.748              1.517              1.048
 Vibration     9          0.808              1.363              0.799
 Vibration    10          0.913              1.122              0.528

 Optimization completed.
    -- Stationary point found.
 Normal termination of Gaussian 09 at Mon Jan 27 17:40:43 2020.
