 Gaussian 09, Revision D.01,
 Gaussian 09:  ES64L-G09RevD.01 24-Apr-2013

 -----------------------------
 # b3lyp 6-31G(2df,p) opt Freq
 -----------------------------

 -----
 titel
 -----
 Symbolic Z-matrix:
 Charge =  0 Multiplicity = 1

 SCF Done:  E(RB3LYP) =  -423.106787692     A.U. after   14 cycles
 Optimization completed.
    -- Stationary point found.
 Normal termination of Gaussian 09 at Mon Jan 27 18:03:46 2020.

 ----------------------------------------------------------------------
 #N Geom=AllCheck Guess=TCheck SCRF=Check GenChk RB3LYP/6-31G(2df,p) Fr
 eq
 ----------------------------------------------------------------------

 Structure from the checkpoint file:  "/scratch/puck/g09_d78c035c-e023-4114-a7d3-da6f863e1f25/Gau-88444.chk"
 -----
 titel
 -----
 Charge =  0 Multiplicity = 1

                         Standard orientation:
 ---------------------------------------------------------------------
 Center     Atomic      Atomic             Coordinates (Angstroms)
 Number     Number       Type             X           Y           Z
 ---------------------------------------------------------------------
      1          6           0       -2.287707   -1.082762   -0.064767
      2          6           0       -0.998117   -0.321141    0.035692
      3          6           0       -0.169222   -0.083994    1.302083
      4          6           0        0.804581    0.513877    0.216077
      5          6           0        0.051599    1.756253   -0.217232
      6          8           0       -1.233826    1.082462   -0.388276
      7          8           0        2.153706    0.072763    0.221392
      8          6           0        1.671806   -1.202148   -0.339044
      9          6           0        0.310262   -0.565418   -0.762712
     10          1           0       -2.663166   -1.063236   -1.092435
     11          1           0       -2.136801   -2.124638    0.231494
     12          1           0       -3.047931   -0.640290    0.585991
     13          1           0       -0.594454    0.591902    2.045736
     14          1           0        0.225050   -0.985177    1.769968
     15          1           0       -0.041621    2.550866    0.530567
     16          1           0        0.391798    2.174921   -1.169286
     17          1           0        2.299177   -1.509236   -1.178775
     18          1           0        1.653821   -1.991340    0.418236
     19          1           0        0.255865   -0.333580   -1.827002
 ---------------------------------------------------------------------

 SCF Done:  E(RB3LYP) =  -423.106787692     A.U. after    1 cycles

 The electronic state is 1-A.
 Alpha  occ. eigenvalues --  -19.14565 -19.13676 -10.25086 -10.24695 -10.24627
 Alpha  occ. eigenvalues --  -10.23200 -10.18636 -10.18225 -10.17953  -1.05812
 Alpha  occ. eigenvalues --   -1.02368  -0.82339  -0.75590  -0.71734  -0.68144
 Alpha  occ. eigenvalues --   -0.64624  -0.55170  -0.53303  -0.51072  -0.48937
 Alpha  occ. eigenvalues --   -0.47169  -0.45506  -0.43948  -0.41416  -0.40376
 Alpha  occ. eigenvalues --   -0.38096  -0.37753  -0.36387  -0.34025  -0.33596
 Alpha  occ. eigenvalues --   -0.32133  -0.26681  -0.25259  -0.24545
 Alpha virt. eigenvalues --    0.05952   0.08450   0.09781   0.11325   0.11879
 Alpha virt. eigenvalues --    0.13244   0.14080   0.15474   0.15827   0.16693
 Alpha virt. eigenvalues --    0.17319   0.17919   0.18651   0.20635   0.21286

 Mulliken charges:
               1
     1  C   -0.493401
     2  C    0.406949
     3  C   -0.334176
     4  C    0.405098
     5  C   -0.154424
     6  O   -0.323940
     7  O   -0.350152
     8  C   -0.159468
     9  C   -0.125021
    10  H    0.129765
    11  H    0.119797
    12  H    0.129385
    13  H    0.100964
    14  H    0.106940
    15  H    0.105395
    16  H    0.110547
    17  H    0.121010
    18  H    0.114900
    19  H    0.089830
 Sum of Mulliken charges =   0.00000

 Dipole moment (field-independent basis, Debye):
    X=             -0.2819    Y=             -1.3337    Z=             -0.0256  Tot=              1.3634
 Quadrupole moment (field-independent basis, Debye-Ang):
   XX=            -58.7980   YY=            -50.2708   ZZ=            -51.7871
   XY=              0.3280   XZ=             -2.7438   YZ=              0.6327

  Exact polarizability:  78.650  -2.393  77.157  -3.185   0.493  68.372
 Approx polarizability: 113.258  -4.491 113.452  -1.675   1.327 104.363

                      1                      2                      3
                      A                      A                      A
 Frequencies --    208.4578               235.7675               259.9000
 Red. masses --      1.0223                 2.8009                 3.0940
 Frc consts  --      0.0262                 0.0917                 0.1231
 IR Inten    --      0.0024                 0.4606                 0.4650

                      4                      5                      6
                      A                      A                      A
 Frequencies --    311.3069               368.6668               397.8391
 Red. masses --      2.1988                 3.8247                 2.9509
 Frc consts  --      0.1255                 0.3063                 0.2752
 IR Inten    --      4.5792                 6.6280                 5.0732

                      7                      8                      9
                      A                      A                      A
 Frequencies --    472.9013               503.9119               540.7433
 Red. masses --      2.7135                 2.0634                 4.8591
 Frc consts  --      0.3575                 0.3087                 0.8371
 IR Inten    --      3.5884                 0.3458                 2.7648

                     10                     11                     12
                      A                      A                      A
 Frequencies --    613.2261               660.2938               755.8878
 Red. masses --      3.7465                 3.0421                 3.6633
 Frc consts  --      0.8301                 0.7815                 1.2332
 IR Inten    --      4.9428                 2.9174                 4.3701

                     13                     14                     15
                      A                      A                      A
 Frequencies --    785.7591               819.1143               873.4914
 Red. masses --      3.2159                 3.4301                 2.6683
 Frc consts  --      1.1698                 1.3559                 1.1995
 IR Inten    --     20.8325                15.2540                13.1922

                     16                     17                     18
                      A                      A                      A
 Frequencies --    900.4018               928.5718               937.9800
 Red. masses --      3.8200                 3.1057                 4.7194
 Frc consts  --      1.8247                 1.5777                 2.4464
 IR Inten    --     39.8628                13.5752                39.6591

                     19                     20                     21
                      A                      A                      A
 Frequencies --    973.0996              1006.9113              1011.2216
 Red. masses --      1.7132                 1.6943                 1.4832
 Frc consts  --      0.9558                 1.0121                 0.8936
 IR Inten    --      1.9882                10.2566                 9.4542

                     22                     23                     24
                      A                      A                      A
 Frequencies --   1042.0564              1074.1159              1090.1930
 Red. masses --      2.1208                 1.9619                 2.1000
 Frc consts  --      1.3568                 1.3336                 1.4705
 IR Inten    --      7.9759                 3.8868                32.1892

                     25                     26                     27
                      A                      A                      A
 Frequencies --   1135.5602              1147.0534              1157.6449
 Red. masses --      1.5758                 1.4535                 1.2650
 Frc consts  --      1.1972                 1.1267                 0.9988
 IR Inten    --      7.0342                 9.6967                 4.2811

                     28                     29                     30
                      A                      A                      A
 Frequencies --   1177.4902              1206.9288              1222.8215
 Red. masses --      1.3331                 2.2042                 2.3343
 Frc consts  --      1.0890                 1.8917                 2.0565
 IR Inten    --      0.9958                30.0385                39.9913

                     31                     32                     33
                      A                      A                      A
 Frequencies --   1281.4622              1284.7792              1312.7590
 Red. masses --      1.7949                 2.0678                 1.5275
 Frc consts  --      1.7366                 2.0110                 1.5509
 IR Inten    --     26.6444                28.7062                 0.3398

                     34                     35                     36
                      A                      A                      A
 Frequencies --   1341.5847              1374.6420              1419.5403
 Red. masses --      1.6854                 1.7752                 1.6662
 Frc consts  --      1.7873                 1.9764                 1.9782
 IR Inten    --     28.6965                 3.1554                16.9361

                     37                     38                     39
                      A                      A                      A
 Frequencies --   1479.7777              1489.2314              1492.1315
 Red. masses --      1.0485                 1.0835                 1.1478
 Frc consts  --      1.3528                 1.4159                 1.5057
 IR Inten    --      3.4465                 2.8811                 3.1142

                     40                     41                     42
                      A                      A                      A
 Frequencies --   1516.3068              1531.7569              3036.6932
 Red. masses --      1.1080                 1.1131                 1.0557
 Frc consts  --      1.5010                 1.5387                 5.7357
 IR Inten    --      3.0935                 0.9295                68.1246

                     43                     44                     45
                      A                      A                      A
 Frequencies --   3041.6621              3051.3218              3085.2877
 Red. masses --      1.0349                 1.0570                 1.0664
 Frc consts  --      5.6411                 5.7984                 5.9809
 IR Inten    --     17.3777                46.6929                 5.6249

                     46                     47                     48
                      A                      A                      A
 Frequencies --   3088.3459              3100.5201              3113.7607
 Red. masses --      1.1033                 1.0935                 1.1015
 Frc consts  --      6.2000                 6.1935                 6.2922
 IR Inten    --     39.8328                 3.3432                10.8562

                     49                     50                     51
                      A                      A                      A
 Frequencies --   3116.4194              3119.2638              3155.8388
 Red. masses --      1.1039                 1.1015                 1.1086
 Frc consts  --      6.3165                 6.3145                 6.5054
 IR Inten    --     45.6321                15.6771                18.2229

 - Thermochemistry -
 -------------------
 Temperature   298.150 Kelvin.  Pressure   1.00000 Atm.
 Atom     1 has atomic number  6 and mass  12.00000

 Molecular mass:   126.06808 amu.
 Principal axes and moments of inertia in atomic units:
                           1         2         3
     Eigenvalues --   604.285051052.000161309.01818
           X            0.99964   0.02169  -0.01588
           Y           -0.02167   0.99976   0.00102
           Z            0.01590  -0.00067   0.99987
 This molecule is an asymmetric top.
 Rotational symmetry number  1.
 Warning -- assumption of classical behavior for rotation
           may cause significant error
 Rotational temperatures (Kelvin)      0.14333     0.08233     0.06617
 Rotational constants (GHZ):           2.98657     1.71553     1.37870
 Zero-point vibrational energy     420202.7 (Joules/Mol)
                                  100.43085 (Kcal/Mol)
 Warning -- explicit consideration of  10 degrees of freedom as
           vibrations may cause significant error
 Vibrational temperatures:    299.92   339.22   373.94   447.90   530.43
          (Kelvin)            572.40   680.40   725.02   778.01   882.29
                              950.01  1087.55  1130.53  1178.52  1256.76
                             1295.48  1336.01  1349.54  1400.07  1448.72
                             1454.92  1499.28  1545.41  1568.54  1633.82
                             1650.35  1665.59  1694.14  1736.50  1759.37
                             1843.74  1848.51  1888.77  1930.24  1977.80
                             2042.40  2129.07  2142.67  2146.84  2181.62
                             2203.85  4369.12  4376.27  4390.17  4439.04
                             4443.44  4460.95  4480.00  4483.83  4487.92
                             4540.54

 Zero-point correction=                           0.160047 (Hartree/Particle)
 Thermal correction to Energy=                    0.167259
 Thermal correction to Enthalpy=                  0.168203
 Thermal correction to Gibbs Free Energy=         0.129011
 Sum of electronic and zero-point Energies=           -422.946741
 Sum of electronic and thermal Energies=              -422.939529
 Sum of electronic and thermal Enthalpies=            -422.938585
 Sum of electronic and thermal Free Energies=         -422.977777

                     E (Thermal)             CV                S
                      KCal/Mol        Cal/Mol-Kelvin    Cal/Mol-Kelvin
 Total                  104.956             30.155             82.486
 Electronic               0.000              0.000              0.000
 Translational            0.889              2.981             40.409
 Rotational               0.889              2.981             28.211
 Vibrational            103.179             24.193             13.866
 Vibration     1          0.642              1.828              2.057
 Vibration     2          0.655              1.786              1.835
 Vibration     3          0.668              1.746              1.662
 Vibration     4          0.700              1.652              1.355
 Vibration     5          0.741              1.537              1.085
 Vibration     6          0.764              1.475              0.971
 Vibration     7          0.830              1.310              0.729
 Vibration     8          0.859              1.241              0.648
 Vibration     9          0.896              1.160              0.564
 Vibration    10          0.973              1.004              0.427

 Normal termination of Gaussian 09 at Mon Jan 27 18:50:36 2020.
