 Gaussian 09, Revision D.01,
 Gaussian 09:  ES64L-G09RevD.01 24-Apr-2013

 -----------------------------
 # b3lyp 6-31G(2df,p) opt Freq
 -----------------------------

 -----
 titel
 -----
 Symbolic Z-matrix:
 Charge =  0 Multiplicity = 1

 SCF Done:  E(RB3LYP) =  -423.188797874     A.U. after   14 cycles
 Optimization completed.
    -- Stationary point found.
 Normal termination of Gaussian 09 at Mon Jan 27 16:38:54 2020.

 ----------------------------------------------------------------------
 #N Geom=AllCheck Guess=TCheck SCRF=Check GenChk RB3LYP/6-31G(2df,p) Fr
 eq
 ----------------------------------------------------------------------

 Structure from the checkpoint file:  "/scratch/puck/g09_1a9150fb-7a42-457a-92a9-477d7ce61465/Gau-48457.chk"
 -----
 titel
 -----
 Charge =  0 Multiplicity = 1

                         Standard orientation:
 ---------------------------------------------------------------------
 Center     Atomic      Atomic             Coordinates (Angstroms)
 Number     Number       Type             X           Y           Z
 ---------------------------------------------------------------------
      1          6           0       -0.435730    1.806124   -0.657795
      2          6           0        0.083592    0.574885    0.068462
      3          6           0        1.441504    0.786727    0.804353
      4          6           0        2.087951   -0.213608   -0.162075
      5          6           0        1.412085   -1.544249   -0.024330
      6          6           0        0.731638   -0.474327   -0.832544
      7          8           0       -0.927956    0.086520    0.999629
      8          6           0       -1.992520   -0.543829    0.494700
      9          8           0       -2.233554   -0.739175   -0.666606
     10          1           0       -0.737691    2.572348    0.063013
     11          1           0        0.351890    2.220835   -1.293435
     12          1           0       -1.289948    1.550120   -1.287736
     13          1           0        1.802684    1.812545    0.706720
     14          1           0        1.449577    0.502353    1.860392
     15          1           0        3.056823   -0.097272   -0.630243
     16          1           0        1.832563   -2.352024   -0.614151
     17          1           0        1.004816   -1.855646    0.934213
     18          1           0        0.485034   -0.612097   -1.876859
     19          1           0       -2.634805   -0.870265    1.329274
 ---------------------------------------------------------------------

 SCF Done:  E(RB3LYP) =  -423.188797874     A.U. after    1 cycles

 The electronic state is 1-A.
 Alpha  occ. eigenvalues --  -19.18205 -19.12832 -10.30388 -10.25423 -10.19869
 Alpha  occ. eigenvalues --  -10.19380 -10.19035 -10.18970 -10.17970  -1.09831
 Alpha  occ. eigenvalues --   -1.01612  -0.90117  -0.77145  -0.69913  -0.66124
 Alpha  occ. eigenvalues --   -0.61985  -0.57453  -0.52800  -0.51239  -0.49779
 Alpha  occ. eigenvalues --   -0.46792  -0.46348  -0.44301  -0.41221  -0.40380
 Alpha  occ. eigenvalues --   -0.39174  -0.38679  -0.36708  -0.34808  -0.31837
 Alpha  occ. eigenvalues --   -0.30407  -0.28954  -0.27983  -0.26063
 Alpha virt. eigenvalues --    0.01250   0.09090   0.10626   0.11250   0.12396
 Alpha virt. eigenvalues --    0.13036   0.13948   0.14494   0.15466   0.17155
 Alpha virt. eigenvalues --    0.17736   0.18103   0.18882   0.21679   0.21935

 Mulliken charges:
               1
     1  C   -0.460334
     2  C    0.425939
     3  C   -0.297075
     4  C   -0.050804
     5  C   -0.289213
     6  C   -0.062175
     7  O   -0.259329
     8  C    0.177844
     9  O   -0.312750
    10  H    0.120839
    11  H    0.122436
    12  H    0.149211
    13  H    0.107047
    14  H    0.106551
    15  H    0.090578
    16  H    0.116095
    17  H    0.113354
    18  H    0.095740
    19  H    0.106045
 Sum of Mulliken charges =   0.00000

 Dipole moment (field-independent basis, Debye):
    X=              1.6305    Y=              0.7492    Z=              0.7332  Tot=              1.9384
 Quadrupole moment (field-independent basis, Debye-Ang):
   XX=            -54.3079   YY=            -51.5784   ZZ=            -53.4820
   XY=             -1.2419   XZ=             -4.8337   YZ=             -1.5836

  Exact polarizability:  82.139   2.093  74.124  -0.337   0.346  69.077
 Approx polarizability: 112.575   6.518 103.679   4.830   3.648 113.738

                      1                      2                      3
                      A                      A                      A
 Frequencies --     84.8008               149.8970               181.8957
 Red. masses --      6.7925                 3.1130                 4.2051
 Frc consts  --      0.0288                 0.0412                 0.0820
 IR Inten    --      1.5950                 1.2535                 4.3148

                      4                      5                      6
                      A                      A                      A
 Frequencies --    249.3923               254.5974               274.6755
 Red. masses --      1.7002                 2.2788                 1.4516
 Frc consts  --      0.0623                 0.0870                 0.0645
 IR Inten    --      2.2156                 7.7800                 1.7870

                      7                      8                      9
                      A                      A                      A
 Frequencies --    381.7647               395.9547               418.5956
 Red. masses --      3.0261                 3.1869                 1.7984
 Frc consts  --      0.2599                 0.2944                 0.1857
 IR Inten    --      5.2467                 5.1209                 0.2503

                     10                     11                     12
                      A                      A                      A
 Frequencies --    533.8785               588.6260               760.7467
 Red. masses --      3.3771                 4.4476                 2.3398
 Frc consts  --      0.5671                 0.9079                 0.7978
 IR Inten    --      9.8288                 1.4490                 3.5308

                     13                     14                     15
                      A                      A                      A
 Frequencies --    782.1996               805.4077               823.8332
 Red. masses --      1.9823                 4.3471                 2.5646
 Frc consts  --      0.7146                 1.6614                 1.0255
 IR Inten    --      8.6294                 5.8231                 8.6321

                     16                     17                     18
                      A                      A                      A
 Frequencies --    898.8190               912.7585               935.7490
 Red. masses --      1.6389                 2.4589                 1.6613
 Frc consts  --      0.7801                 1.2070                 0.8571
 IR Inten    --     29.5488                 6.9815                 6.1710

                     19                     20                     21
                      A                      A                      A
 Frequencies --    971.3434               987.7659               997.5374
 Red. masses --      1.9251                 1.8390                 1.3461
 Frc consts  --      1.0702                 1.0571                 0.7892
 IR Inten    --      0.8383                 2.5333                 1.8059

                     22                     23                     24
                      A                      A                      A
 Frequencies --   1031.9895              1044.7703              1062.7468
 Red. masses --      1.4661                 1.6621                 1.1964
 Frc consts  --      0.9200                 1.0689                 0.7962
 IR Inten    --      4.4718                 0.7431                 0.9018

                     25                     26                     27
                      A                      A                      A
 Frequencies --   1088.9088              1137.4353              1155.7610
 Red. masses --      1.4317                 1.6631                 1.8197
 Frc consts  --      1.0002                 1.2677                 1.4321
 IR Inten    --      1.4060                 3.5183               111.8890

                     28                     29                     30
                      A                      A                      A
 Frequencies --   1206.1702              1209.9819              1219.8776
 Red. masses --      3.1562                 2.3938                 3.1265
 Frc consts  --      2.7054                 2.0649                 2.7412
 IR Inten    --    127.1820               132.9305                66.6590

                     31                     32                     33
                      A                      A                      A
 Frequencies --   1237.6743              1256.0417              1311.9104
 Red. masses --      2.2767                 1.5616                 2.0743
 Frc consts  --      2.0548                 1.4515                 2.1034
 IR Inten    --      3.2133                 0.4925                 9.0444

                     34                     35                     36
                      A                      A                      A
 Frequencies --   1366.8932              1403.5291              1412.7850
 Red. masses --      2.3022                 1.2714                 1.1479
 Frc consts  --      2.5343                 1.4757                 1.3499
 IR Inten    --      5.5270                11.3450                 2.9999

                     37                     38                     39
                      A                      A                      A
 Frequencies --   1477.5764              1485.8931              1496.7128
 Red. masses --      1.1114                 1.0742                 1.1796
 Frc consts  --      1.4296                 1.3973                 1.5569
 IR Inten    --      2.3873                 2.5146                 1.9983

                     40                     41                     42
                      A                      A                      A
 Frequencies --   1505.4928              1810.8779              3010.8749
 Red. masses --      1.0514                 9.6534                 1.0891
 Frc consts  --      1.4041                18.6513                 5.8172
 IR Inten    --      4.4756               229.2756                80.9659

                     43                     44                     45
                      A                      A                      A
 Frequencies --   3044.6754              3058.7639              3114.1800
 Red. masses --      1.0360                 1.0596                 1.1030
 Frc consts  --      5.6585                 5.8408                 6.3026
 IR Inten    --     13.2897                32.2151                14.8275

                     46                     47                     48
                      A                      A                      A
 Frequencies --   3115.9141              3117.8219              3138.5787
 Red. masses --      1.0584                 1.1027                 1.1011
 Frc consts  --      6.0541                 6.3156                 6.3904
 IR Inten    --     10.1302                25.2357                 8.3505

                     49                     50                     51
                      A                      A                      A
 Frequencies --   3192.0895              3200.1276              3211.5465
 Red. masses --      1.0916                 1.1044                 1.1043
 Frc consts  --      6.5532                 6.6638                 6.7105
 IR Inten    --     14.6033                 1.1836                16.2615

 - Thermochemistry -
 -------------------
 Temperature   298.150 Kelvin.  Pressure   1.00000 Atm.
 Atom     1 has atomic number  6 and mass  12.00000

 Molecular mass:   126.06808 amu.
 Principal axes and moments of inertia in atomic units:
                           1         2         3
     Eigenvalues --   658.866621220.316861437.16410
           X            0.99974  -0.02227  -0.00579
           Y            0.02199   0.99877  -0.04446
           Z            0.00677   0.04432   0.99899
 This molecule is an asymmetric top.
 Rotational symmetry number  1.
 Warning -- assumption of classical behavior for rotation
           may cause significant error
 Rotational temperatures (Kelvin)      0.13146     0.07098     0.06027
 Rotational constants (GHZ):           2.73916     1.47891     1.25577
 Zero-point vibrational energy     415809.0 (Joules/Mol)
                                   99.38074 (Kcal/Mol)
 Warning -- explicit consideration of  11 degrees of freedom as
           vibrations may cause significant error
 Vibrational temperatures:    122.01   215.67   261.71   358.82   366.31
          (Kelvin)            395.20   549.27   569.69   602.26   768.13
                              846.90  1094.54  1125.41  1158.80  1185.31
                             1293.20  1313.25  1346.33  1397.54  1421.17
                             1435.23  1484.80  1503.19  1529.05  1566.69
                             1636.51  1662.88  1735.41  1740.89  1755.13
                             1780.74  1807.16  1887.54  1966.65  2019.36
                             2032.68  2125.90  2137.87  2153.43  2166.07
                             2605.45  4331.97  4380.60  4400.87  4480.60
                             4483.10  4485.84  4515.71  4592.70  4604.26
                             4620.69

 Zero-point correction=                           0.158373 (Hartree/Particle)
 Thermal correction to Energy=                    0.166806
 Thermal correction to Enthalpy=                  0.167750
 Thermal correction to Gibbs Free Energy=         0.125498
 Sum of electronic and zero-point Energies=           -423.030425
 Sum of electronic and thermal Energies=              -423.021992
 Sum of electronic and thermal Enthalpies=            -423.021048
 Sum of electronic and thermal Free Energies=         -423.063300

                     E (Thermal)             CV                S
                      KCal/Mol        Cal/Mol-Kelvin    Cal/Mol-Kelvin
 Total                  104.672             32.354             88.928
 Electronic               0.000              0.000              0.000
 Translational            0.889              2.981             40.409
 Rotational               0.889              2.981             28.537
 Vibrational            102.895             26.392             19.982
 Vibration     1          0.601              1.960              3.777
 Vibration     2          0.618              1.903              2.674
 Vibration     3          0.630              1.864              2.309
 Vibration     4          0.662              1.764              1.735
 Vibration     5          0.665              1.755              1.699
 Vibration     6          0.677              1.720              1.567
 Vibration     7          0.751              1.509              1.032
 Vibration     8          0.763              1.479              0.978
 Vibration     9          0.781              1.430              0.897
 Vibration    10          0.889              1.175              0.579
 Vibration    11          0.946              1.056              0.470

 Optimization completed.
    -- Stationary point found.
 Normal termination of Gaussian 09 at Mon Jan 27 17:22:03 2020.
