 Gaussian 09, Revision D.01,
 Gaussian 09:  ES64L-G09RevD.01 24-Apr-2013

 -----------------------------
 # b3lyp 6-31G(2df,p) opt Freq
 -----------------------------

 -----
 titel
 -----
 Symbolic Z-matrix:
 Charge =  0 Multiplicity = 1

 SCF Done:  E(RB3LYP) =  -423.138431094     A.U. after   13 cycles
 Optimization completed.
    -- Stationary point found.
 Normal termination of Gaussian 09 at Mon Jan 27 11:18:26 2020.

 ----------------------------------------------------------------------
 #N Geom=AllCheck Guess=TCheck SCRF=Check GenChk RB3LYP/6-31G(2df,p) Fr
 eq
 ----------------------------------------------------------------------

 Structure from the checkpoint file:  "/scratch/puck/g09_2da07578-cedf-4e9d-a431-29067f294fd8/Gau-150505.chk"
 -----
 titel
 -----
 Charge =  0 Multiplicity = 1

                         Standard orientation:
 ---------------------------------------------------------------------
 Center     Atomic      Atomic             Coordinates (Angstroms)
 Number     Number       Type             X           Y           Z
 ---------------------------------------------------------------------
      1          6           0        1.887263   -0.693541   -0.073397
      2          6           0        0.604686   -1.385848   -0.554084
      3          6           0       -0.584147   -1.263208    0.387562
      4          6           0       -1.810767   -0.510501   -0.052678
      5          8           0       -1.430108    0.529335   -0.960166
      6          6           0       -0.666215    1.189660    0.105554
      7          6           0        0.817722    1.469233   -0.204454
      8          8           0        1.699418    0.601863    0.478094
      9          6           0       -0.972266    0.044727    1.065499
     10          1           0        2.362957   -1.265898    0.730351
     11          1           0        2.600378   -0.648368   -0.913591
     12          1           0        0.313608   -0.960296   -1.519159
     13          1           0        0.835801   -2.441542   -0.735104
     14          1           0       -0.801128   -2.121290    1.018582
     15          1           0       -2.824236   -0.888940   -0.111603
     16          1           0       -1.188655    2.118674    0.360846
     17          1           0        0.966719    1.452621   -1.294843
     18          1           0        1.076830    2.472262    0.149724
     19          1           0       -1.154407    0.130061    2.127358
 ---------------------------------------------------------------------

 SCF Done:  E(RB3LYP) =  -423.138431094     A.U. after    1 cycles

 The electronic state is 1-A.
 Alpha  occ. eigenvalues --  -19.13785 -19.13449 -10.23637 -10.23547 -10.22655
 Alpha  occ. eigenvalues --  -10.22386 -10.19380 -10.19333 -10.17991  -1.05152
 Alpha  occ. eigenvalues --   -1.02387  -0.83605  -0.76650  -0.72520  -0.67045
 Alpha  occ. eigenvalues --   -0.59682  -0.56526  -0.53866  -0.52696  -0.48420
 Alpha  occ. eigenvalues --   -0.47927  -0.45417  -0.43920  -0.43414  -0.41570
 Alpha  occ. eigenvalues --   -0.38248  -0.36667  -0.34587  -0.32709  -0.31512
 Alpha  occ. eigenvalues --   -0.30919  -0.27174  -0.25648  -0.22755
 Alpha virt. eigenvalues --    0.07577   0.08811   0.10117   0.11665   0.12665
 Alpha virt. eigenvalues --    0.14017   0.15003   0.15668   0.15892   0.17023
 Alpha virt. eigenvalues --    0.17372   0.18688   0.19943   0.20900   0.22172

 Mulliken charges:
               1
     1  C   -0.060854
     2  C   -0.266991
     3  C   -0.048244
     4  C    0.069908
     5  O   -0.304779
     6  C    0.098041
     7  C   -0.115760
     8  O   -0.234957
     9  C   -0.139074
    10  H    0.105033
    11  H    0.086406
    12  H    0.126134
    13  H    0.097178
    14  H    0.089825
    15  H    0.102118
    16  H    0.084631
    17  H    0.106432
    18  H    0.108306
    19  H    0.096646
 Sum of Mulliken charges =   0.00000

 Dipole moment (field-independent basis, Debye):
    X=             -0.3570    Y=             -0.7549    Z=              0.6536  Tot=              1.0604
 Quadrupole moment (field-independent basis, Debye-Ang):
   XX=            -54.5094   YY=            -49.0449   ZZ=            -54.4102
   XY=             -0.1905   XZ=             -4.4921   YZ=             -0.0922

  Exact polarizability:  77.367  -1.391  79.634  -2.511   0.345  63.876
 Approx polarizability: 105.576  -1.974 114.174   2.652   0.720 103.898

                      1                      2                      3
                      A                      A                      A
 Frequencies --    148.6638               239.0860               266.8225
 Red. masses --      2.3155                 4.0398                 2.3355
 Frc consts  --      0.0302                 0.1361                 0.0980
 IR Inten    --      2.1824                 7.4397                 5.2317

                      4                      5                      6
                      A                      A                      A
 Frequencies --    338.5514               363.7757               398.0976
 Red. masses --      3.4519                 3.2722                 3.7848
 Frc consts  --      0.2331                 0.2551                 0.3534
 IR Inten    --      0.7220                 2.2476                 2.8368

                      7                      8                      9
                      A                      A                      A
 Frequencies --    575.8249               597.6342               684.4902
 Red. masses --      2.6813                 3.2472                 4.0671
 Frc consts  --      0.5238                 0.6833                 1.1227
 IR Inten    --      1.9773                 6.1222                11.0731

                     10                     11                     12
                      A                      A                      A
 Frequencies --    724.0205               758.1123               809.3594
 Red. masses --      2.4509                 2.0396                 2.0489
 Frc consts  --      0.7570                 0.6907                 0.7908
 IR Inten    --      2.1516                 5.1954                12.7644

                     13                     14                     15
                      A                      A                      A
 Frequencies --    836.5509               847.1435               913.5424
 Red. masses --      2.7091                 2.8175                 1.8331
 Frc consts  --      1.1170                 1.1913                 0.9013
 IR Inten    --     18.8026                 5.9919                16.0242

                     16                     17                     18
                      A                      A                      A
 Frequencies --    919.9914               955.2234               988.8996
 Red. masses --      3.0070                 2.6008                 1.7482
 Frc consts  --      1.4995                 1.3982                 1.0072
 IR Inten    --     18.3704                 1.4571                13.3452

                     19                     20                     21
                      A                      A                      A
 Frequencies --   1018.8445              1025.2847              1043.8636
 Red. masses --      3.1623                 2.6480                 1.9035
 Frc consts  --      1.9340                 1.6401                 1.2221
 IR Inten    --     25.6405                21.3577                 2.8756

                     22                     23                     24
                      A                      A                      A
 Frequencies --   1050.2268              1079.9671              1096.0701
 Red. masses --      1.5782                 2.2434                 1.6246
 Frc consts  --      1.0256                 1.5416                 1.1499
 IR Inten    --      9.5769                24.0297                 5.1077

                     25                     26                     27
                      A                      A                      A
 Frequencies --   1116.0544              1151.7590              1176.0158
 Red. masses --      2.6422                 2.9979                 1.9853
 Frc consts  --      1.9391                 2.3431                 1.6177
 IR Inten    --      0.4939                53.8427                37.0262

                     28                     29                     30
                      A                      A                      A
 Frequencies --   1246.1786              1266.7458              1272.3785
 Red. masses --      1.3081                 1.2101                 1.6370
 Frc consts  --      1.1969                 1.1440                 1.5615
 IR Inten    --      2.0256                15.4516                11.1967

                     31                     32                     33
                      A                      A                      A
 Frequencies --   1299.0904              1313.3451              1321.2980
 Red. masses --      1.6364                 1.3167                 1.2879
 Frc consts  --      1.6272                 1.3381                 1.3247
 IR Inten    --      4.8455                 2.5549                 4.5221

                     34                     35                     36
                      A                      A                      A
 Frequencies --   1361.2928              1384.0996              1391.4698
 Red. masses --      1.3957                 1.4023                 1.2420
 Frc consts  --      1.5238                 1.5828                 1.4168
 IR Inten    --      3.9792                 2.4460                 2.0272

                     37                     38                     39
                      A                      A                      A
 Frequencies --   1417.3330              1427.9398              1474.0445
 Red. masses --      1.3829                 2.0503                 1.0878
 Frc consts  --      1.6367                 2.4631                 1.3926
 IR Inten    --      5.5674                 2.3173                 4.7848

                     40                     41                     42
                      A                      A                      A
 Frequencies --   1487.4021              1505.4110              2964.1212
 Red. masses --      1.0772                 1.0961                 1.0711
 Frc consts  --      1.4041                 1.4636                 5.5444
 IR Inten    --      6.5335                 1.1850                82.9276

                     43                     44                     45
                      A                      A                      A
 Frequencies --   2995.5007              3035.5997              3045.3446
 Red. masses --      1.0660                 1.0872                 1.0618
 Frc consts  --      5.6357                 5.9027                 5.8017
 IR Inten    --     35.9174                42.8432                30.8633

                     46                     47                     48
                      A                      A                      A
 Frequencies --   3060.3368              3075.9045              3090.9349
 Red. masses --      1.0924                 1.0963                 1.0998
 Frc consts  --      6.0278                 6.1113                 6.1909
 IR Inten    --     20.8127                49.4409                17.0095

                     49                     50                     51
                      A                      A                      A
 Frequencies --   3146.4496              3184.0231              3212.2078
 Red. masses --      1.0873                 1.0916                 1.0973
 Frc consts  --      6.3419                 6.5205                 6.6709
 IR Inten    --     12.5384                25.8822                12.8246

 - Thermochemistry -
 -------------------
 Temperature   298.150 Kelvin.  Pressure   1.00000 Atm.
 Atom     1 has atomic number  6 and mass  12.00000

 Molecular mass:   126.06808 amu.
 Principal axes and moments of inertia in atomic units:
                           1         2         3
     Eigenvalues --   646.69595 967.468061258.96393
           X            0.99923  -0.01561  -0.03600
           Y            0.01582   0.99986   0.00540
           Z            0.03591  -0.00596   0.99934
 This molecule is an asymmetric top.
 Rotational symmetry number  1.
 Warning -- assumption of classical behavior for rotation
           may cause significant error
 Rotational temperatures (Kelvin)      0.13393     0.08953     0.06880
 Rotational constants (GHZ):           2.79071     1.86543     1.43351
 Zero-point vibrational energy     425286.4 (Joules/Mol)
                                  101.64588 (Kcal/Mol)
 Warning -- explicit consideration of   8 degrees of freedom as
           vibrations may cause significant error
 Vibrational temperatures:    213.89   343.99   383.90   487.10   523.39
          (Kelvin)            572.77   828.48   859.86   984.83  1041.70
                             1090.75  1164.49  1203.61  1218.85  1314.38
                             1323.66  1374.35  1422.80  1465.89  1475.15
                             1501.89  1511.04  1553.83  1577.00  1605.75
                             1657.12  1692.02  1792.97  1822.56  1830.67
                             1869.10  1889.61  1901.05  1958.59  1991.41
                             2002.01  2039.22  2054.48  2120.82  2140.04
                             2165.95  4264.70  4309.85  4367.55  4381.57
                             4403.14  4425.54  4447.16  4527.03  4581.09
                             4621.64

 Zero-point correction=                           0.161983 (Hartree/Particle)
 Thermal correction to Energy=                    0.168869
 Thermal correction to Enthalpy=                  0.169813
 Thermal correction to Gibbs Free Energy=         0.130991
 Sum of electronic and zero-point Energies=           -422.976448
 Sum of electronic and thermal Energies=              -422.969562
 Sum of electronic and thermal Enthalpies=            -422.968618
 Sum of electronic and thermal Free Energies=         -423.007440

                     E (Thermal)             CV                S
                      KCal/Mol        Cal/Mol-Kelvin    Cal/Mol-Kelvin
 Total                  105.967             28.439             81.707
 Electronic               0.000              0.000              0.000
 Translational            0.889              2.981             40.409
 Rotational               0.889              2.981             28.156
 Vibrational            104.189             22.478             13.142
 Vibration     1          0.618              1.904              2.689
 Vibration     2          0.657              1.781              1.810
 Vibration     3          0.672              1.734              1.617
 Vibration     4          0.719              1.598              1.219
 Vibration     5          0.737              1.547              1.106
 Vibration     6          0.764              1.474              0.970
 Vibration     7          0.932              1.084              0.493
 Vibration     8          0.956              1.037              0.454

 Optimization completed.
    -- Stationary point found.
 Normal termination of Gaussian 09 at Mon Jan 27 12:08:06 2020.
