 Gaussian 09, Revision D.01,
 Gaussian 09:  ES64L-G09RevD.01 24-Apr-2013

 -----------------------------
 # b3lyp 6-31G(2df,p) opt Freq
 -----------------------------

 -----
 titel
 -----
 Symbolic Z-matrix:
 Charge =  0 Multiplicity = 1

 SCF Done:  E(RB3LYP) =  -423.134390140     A.U. after   12 cycles
 Optimization completed.
    -- Stationary point found.
 Normal termination of Gaussian 09 at Mon Jan 27 22:05:14 2020.

 ----------------------------------------------------------------------
 #N Geom=AllCheck Guess=TCheck SCRF=Check GenChk RB3LYP/6-31G(2df,p) Fr
 eq
 ----------------------------------------------------------------------

 Structure from the checkpoint file:  "/scratch/puck/g09_d8c4c65e-6bc8-4f8e-95a1-509085ab05e6/Gau-111365.chk"
 -----
 titel
 -----
 Charge =  0 Multiplicity = 1

                         Standard orientation:
 ---------------------------------------------------------------------
 Center     Atomic      Atomic             Coordinates (Angstroms)
 Number     Number       Type             X           Y           Z
 ---------------------------------------------------------------------
      1          6           0       -2.564227    0.408571   -0.064032
      2          6           0       -1.232791   -0.078623   -0.623060
      3          6           0       -0.748868   -1.401854   -0.008612
      4          6           0        0.783809   -1.421511   -0.044920
      5          6           0        0.037663   -0.717140    1.076154
      6          6           0        0.007867    0.539360    0.054214
      7          8           0        0.056438    1.880481    0.338611
      8          6           0        1.224224   -0.103761   -0.660767
      9          8           0        2.443023    0.419293   -0.150229
     10          1           0       -2.742134    1.450642   -0.345197
     11          1           0       -3.394256   -0.194146   -0.447753
     12          1           0       -2.578127    0.347514    1.029195
     13          1           0       -1.233843   -0.013676   -1.720012
     14          1           0       -1.306479   -2.326310    0.073465
     15          1           0        1.340384   -2.349703   -0.003607
     16          1           0        0.044090   -0.844827    2.148785
     17          1           0        0.997345    2.106855    0.388637
     18          1           0        1.283486    0.001340   -1.749706
     19          1           0        2.547788    0.073866    0.745280
 ---------------------------------------------------------------------

 SCF Done:  E(RB3LYP) =  -423.134390140     A.U. after    1 cycles

 The electronic state is 1-A.
 Alpha  occ. eigenvalues --  -19.14901 -19.14460 -10.23769 -10.23215 -10.19672
 Alpha  occ. eigenvalues --  -10.19649 -10.19016 -10.18823 -10.16972  -1.04564
 Alpha  occ. eigenvalues --   -1.01884  -0.92249  -0.75623  -0.70052  -0.65297
 Alpha  occ. eigenvalues --   -0.61915  -0.57090  -0.54873  -0.52337  -0.48604
 Alpha  occ. eigenvalues --   -0.46593  -0.45891  -0.43678  -0.40717  -0.38473
 Alpha  occ. eigenvalues --   -0.37867  -0.36239  -0.35545  -0.34096  -0.32875
 Alpha  occ. eigenvalues --   -0.29423  -0.26827  -0.25353  -0.24821
 Alpha virt. eigenvalues --    0.06927   0.09930   0.11012   0.11605   0.12059
 Alpha virt. eigenvalues --    0.13202   0.14073   0.15235   0.16053   0.17537
 Alpha virt. eigenvalues --    0.17803   0.19211   0.19927   0.21992   0.22319

 Mulliken charges:
               1
     1  C   -0.407060
     2  C   -0.047239
     3  C   -0.057690
     4  C   -0.130847
     5  C   -0.213340
     6  C    0.389693
     7  O   -0.485610
     8  C    0.071261
     9  O   -0.458532
    10  H    0.127159
    11  H    0.108520
    12  H    0.117610
    13  H    0.060535
    14  H    0.090171
    15  H    0.091533
    16  H    0.093597
    17  H    0.284892
    18  H    0.081122
    19  H    0.284227
 Sum of Mulliken charges =   0.00000

 Dipole moment (field-independent basis, Debye):
    X=              0.1904    Y=             -1.5564    Z=              0.7860  Tot=              1.7540
 Quadrupole moment (field-independent basis, Debye-Ang):
   XX=            -54.3306   YY=            -53.5319   ZZ=            -51.3665
   XY=              0.7665   XZ=              3.6472   YZ=             -0.6611

  Exact polarizability:  83.019   0.039  73.530   1.583  -1.165  66.493
 Approx polarizability: 113.488   1.901 110.508   1.950   0.151 107.229

                      1                      2                      3
                      A                      A                      A
 Frequencies --    159.1969               212.2789               224.4488
 Red. masses --      4.0975                 2.4814                 1.2827
 Frc consts  --      0.0612                 0.0659                 0.0381
 IR Inten    --      0.8813                 4.2803                 1.0122

                      4                      5                      6
                      A                      A                      A
 Frequencies --    240.7854               265.6874               361.6879
 Red. masses --      3.1747                 3.3099                 1.1741
 Frc consts  --      0.1084                 0.1377                 0.0905
 IR Inten    --      3.0373                 5.0531                62.3302

                      7                      8                      9
                      A                      A                      A
 Frequencies --    372.5396               457.0684               482.6123
 Red. masses --      2.9882                 4.1233                 2.2505
 Frc consts  --      0.2443                 0.5075                 0.3088
 IR Inten    --      8.3249                 3.9408                17.2085

                     10                     11                     12
                      A                      A                      A
 Frequencies --    529.0455               563.6974               681.2252
 Red. masses --      1.5517                 2.5997                 5.0757
 Frc consts  --      0.2559                 0.4867                 1.3878
 IR Inten    --     41.4638                24.5984                 7.9193

                     13                     14                     15
                      A                      A                      A
 Frequencies --    746.8204               769.0971               802.5170
 Red. masses --      2.6258                 2.2145                 1.4900
 Frc consts  --      0.8629                 0.7718                 0.5654
 IR Inten    --      1.7678                16.0855                12.0521

                     16                     17                     18
                      A                      A                      A
 Frequencies --    824.3751               896.1139               923.2662
 Red. masses --      1.8600                 2.1050                 2.0373
 Frc consts  --      0.7448                 0.9959                 1.0232
 IR Inten    --     14.2157                 1.3074                 1.5494

                     19                     20                     21
                      A                      A                      A
 Frequencies --    934.8733               948.7040               969.5452
 Red. masses --      2.0469                 2.9687                 3.1384
 Frc consts  --      1.0540                 1.5742                 1.7382
 IR Inten    --      5.3688                47.0560                21.3611

                     22                     23                     24
                      A                      A                      A
 Frequencies --   1004.8937              1027.0659              1031.2673
 Red. masses --      2.1558                 1.3449                 1.4058
 Frc consts  --      1.2826                 0.8359                 0.8809
 IR Inten    --      7.6498                 7.0936                 3.9640

                     25                     26                     27
                      A                      A                      A
 Frequencies --   1081.1170              1094.8126              1111.6979
 Red. masses --      1.4909                 2.0499                 2.7757
 Frc consts  --      1.0267                 1.4477                 2.0212
 IR Inten    --     16.7159                36.4767                36.6109

                     28                     29                     30
                      A                      A                      A
 Frequencies --   1132.6676              1160.6522              1228.5341
 Red. masses --      2.5153                 1.7910                 1.4571
 Frc consts  --      1.9013                 1.4215                 1.2958
 IR Inten    --     14.2586                 5.7543                 9.0017

                     31                     32                     33
                      A                      A                      A
 Frequencies --   1261.5967              1267.6052              1279.7278
 Red. masses --      1.7388                 1.4777                 1.7148
 Frc consts  --      1.6305                 1.3990                 1.6546
 IR Inten    --      3.6315                36.1188                 3.4777

                     34                     35                     36
                      A                      A                      A
 Frequencies --   1334.5457              1345.7469              1360.7560
 Red. masses --      2.0067                 2.6858                 1.9480
 Frc consts  --      2.1057                 2.8658                 2.1251
 IR Inten    --     99.8362                75.6156                 9.2884

                     37                     38                     39
                      A                      A                      A
 Frequencies --   1409.9830              1423.6683              1430.8325
 Red. masses --      1.2838                 1.4687                 1.7508
 Frc consts  --      1.5037                 1.7539                 2.1119
 IR Inten    --      2.4089                85.9153                19.6937

                     40                     41                     42
                      A                      A                      A
 Frequencies --   1495.7956              1497.9296              3006.7436
 Red. masses --      1.0509                 1.0697                 1.0832
 Frc consts  --      1.3854                 1.4142                 5.7698
 IR Inten    --      3.7197                 5.5316                38.0780

                     43                     44                     45
                      A                      A                      A
 Frequencies --   3033.7878              3054.6418              3100.1121
 Red. masses --      1.0353                 1.0857                 1.1013
 Frc consts  --      5.6139                 5.9684                 6.2361
 IR Inten    --     27.5645                54.6814                28.5567

                     46                     47                     48
                      A                      A                      A
 Frequencies --   3111.2531              3188.8007              3196.1718
 Red. masses --      1.1011                 1.0917                 1.0911
 Frc consts  --      6.2797                 6.5408                 6.5671
 IR Inten    --     21.7523                 7.5203                18.8468

                     49                     50                     51
                      A                      A                      A
 Frequencies --   3223.8669              3717.8908              3777.2505
 Red. masses --      1.1002                 1.0648                 1.0652
 Frc consts  --      6.7370                 8.6719                 8.9541
 IR Inten    --      6.1611                46.2157                13.7114

 - Thermochemistry -
 -------------------
 Temperature   298.150 Kelvin.  Pressure   1.00000 Atm.
 Atom     1 has atomic number  6 and mass  12.00000

 Molecular mass:   126.06808 amu.
 Principal axes and moments of inertia in atomic units:
                           1         2         3
     Eigenvalues --   630.032481084.408461436.63409
           X            0.99985  -0.01526   0.00873
           Y            0.01536   0.99981  -0.01161
           Z           -0.00855   0.01175   0.99989
 This molecule is an asymmetric top.
 Rotational symmetry number  1.
 Warning -- assumption of classical behavior for rotation
           may cause significant error
 Rotational temperatures (Kelvin)      0.13748     0.07987     0.06029
 Rotational constants (GHZ):           2.86452     1.66426     1.25623
 Zero-point vibrational energy     417239.5 (Joules/Mol)
                                   99.72264 (Kcal/Mol)
 Warning -- explicit consideration of  11 degrees of freedom as
           vibrations may cause significant error
 Vibrational temperatures:    229.05   305.42   322.93   346.44   382.26
          (Kelvin)            520.39   536.00   657.62   694.37   761.18
                              811.03   980.13  1074.51  1106.56  1154.64
                             1186.09  1289.31  1328.37  1345.07  1364.97
                             1394.96  1445.82  1477.72  1483.76  1555.48
                             1575.19  1599.48  1629.65  1669.92  1767.58
                             1815.15  1823.80  1841.24  1920.11  1936.23
                             1957.82  2028.65  2048.34  2058.65  2152.11
                             2155.18  4326.03  4364.94  4394.94  4460.36
                             4476.39  4587.97  4598.57  4638.42  5349.21
                             5434.61

 Zero-point correction=                           0.158918 (Hartree/Particle)
 Thermal correction to Energy=                    0.166994
 Thermal correction to Enthalpy=                  0.167939
 Thermal correction to Gibbs Free Energy=         0.127018
 Sum of electronic and zero-point Energies=           -422.975472
 Sum of electronic and thermal Energies=              -422.967396
 Sum of electronic and thermal Enthalpies=            -422.966452
 Sum of electronic and thermal Free Energies=         -423.007372

                     E (Thermal)             CV                S
                      KCal/Mol        Cal/Mol-Kelvin    Cal/Mol-Kelvin
 Total                  104.791             32.756             86.124
 Electronic               0.000              0.000              0.000
 Translational            0.889              2.981             40.409
 Rotational               0.889              2.981             28.375
 Vibrational            103.013             26.794             17.340
 Vibration     1          0.621              1.892              2.559
 Vibration     2          0.643              1.822              2.024
 Vibration     3          0.649              1.804              1.923
 Vibration     4          0.658              1.778              1.797
 Vibration     5          0.672              1.736              1.624
 Vibration     6          0.736              1.551              1.115
 Vibration     7          0.744              1.529              1.069
 Vibration     8          0.815              1.345              0.775
 Vibration     9          0.839              1.289              0.703
 Vibration    10          0.884              1.186              0.589
 Vibration    11          0.919              1.110              0.517

 Optimization completed.
    -- Stationary point found.
 Normal termination of Gaussian 09 at Mon Jan 27 23:02:51 2020.
