 Gaussian 09, Revision D.01,
 Gaussian 09:  ES64L-G09RevD.01 24-Apr-2013

 -----------------------------
 # b3lyp 6-31G(2df,p) opt Freq
 -----------------------------

 -----
 titel
 -----
 Symbolic Z-matrix:
 Charge =  0 Multiplicity = 1

 SCF Done:  E(RB3LYP) =  -423.194844703     A.U. after   14 cycles
 Optimization completed.
    -- Stationary point found.
 Normal termination of Gaussian 09 at Mon Jan 27 22:04:03 2020.

 ----------------------------------------------------------------------
 #N Geom=AllCheck Guess=TCheck SCRF=Check GenChk RB3LYP/6-31G(2df,p) Fr
 eq
 ----------------------------------------------------------------------

 Structure from the checkpoint file:  "/scratch/puck/g09_1cd208f7-4a74-4197-9dc3-ce4303239238/Gau-53196.chk"
 -----
 titel
 -----
 Charge =  0 Multiplicity = 1

                         Standard orientation:
 ---------------------------------------------------------------------
 Center     Atomic      Atomic             Coordinates (Angstroms)
 Number     Number       Type             X           Y           Z
 ---------------------------------------------------------------------
      1          6           0       -0.637889    1.908698    0.377802
      2          6           0        0.142280    0.681682   -0.019753
      3          6           0        1.565904    0.862201   -0.539215
      4          8           0        2.202101   -0.404120   -0.421653
      5          6           0        1.620638   -1.088232    0.686602
      6          6           0        0.186631   -0.601437    0.740495
      7          6           0       -0.531373   -0.578192   -0.605993
      8          6           0       -2.004082   -0.702250   -0.608191
      9          8           0       -2.732902   -0.404102    0.312814
     10          1           0       -1.620059    1.643366    0.770707
     11          1           0       -0.095166    2.466297    1.149455
     12          1           0       -0.780099    2.579310   -0.477222
     13          1           0        1.628517    1.168091   -1.588817
     14          1           0        2.073050    1.625327    0.075122
     15          1           0        1.731982   -2.161576    0.503106
     16          1           0        2.137202   -0.840186    1.628219
     17          1           0       -0.427376   -0.758835    1.619273
     18          1           0       -0.024511   -1.038909   -1.448783
     19          1           0       -2.429778   -1.111931   -1.550825
 ---------------------------------------------------------------------

 SCF Done:  E(RB3LYP) =  -423.194844703     A.U. after    1 cycles

 The electronic state is 1-A.
 Alpha  occ. eigenvalues --  -19.14661 -19.13463 -10.26992 -10.23739 -10.23608
 Alpha  occ. eigenvalues --  -10.21748 -10.20524 -10.20224 -10.18352  -1.04707
 Alpha  occ. eigenvalues --   -1.04072  -0.87847  -0.75648  -0.71512  -0.68740
 Alpha  occ. eigenvalues --   -0.62647  -0.57177  -0.53959  -0.51691  -0.48156
 Alpha  occ. eigenvalues --   -0.46391  -0.45300  -0.44527  -0.41966  -0.41701
 Alpha  occ. eigenvalues --   -0.40102  -0.39881  -0.37968  -0.36582  -0.33015
 Alpha  occ. eigenvalues --   -0.29424  -0.28650  -0.26310  -0.25104
 Alpha virt. eigenvalues --   -0.02731   0.09197   0.09604   0.11477   0.12186
 Alpha virt. eigenvalues --    0.13242   0.14601   0.15315   0.16349   0.16602
 Alpha virt. eigenvalues --    0.16973   0.18070   0.18985   0.20168   0.20994

 Mulliken charges:
               1
     1  C   -0.502060
     2  C    0.293925
     3  C   -0.133883
     4  O   -0.254359
     5  C   -0.110826
     6  C   -0.099418
     7  C   -0.163295
     8  C    0.123894
     9  O   -0.275081
    10  H    0.162457
    11  H    0.119555
    12  H    0.119803
    13  H    0.112129
    14  H    0.095416
    15  H    0.115238
    16  H    0.099234
    17  H    0.115013
    18  H    0.102147
    19  H    0.080111
 Sum of Mulliken charges =   0.00000

 Dipole moment (field-independent basis, Debye):
    X=              1.1644    Y=              0.3638    Z=             -0.3876  Tot=              1.2800
 Quadrupole moment (field-independent basis, Debye-Ang):
   XX=            -64.5317   YY=            -50.1453   ZZ=            -50.9319
   XY=              0.8906   XZ=              5.0839   YZ=             -0.3601

  Exact polarizability:  85.319   2.413  75.660   3.681   1.274  70.041
 Approx polarizability: 119.976   3.422 108.321  -1.304   2.699 112.162

                      1                      2                      3
                      A                      A                      A
 Frequencies --    123.8416               175.7520               200.1851
 Red. masses --      4.3785                 4.3442                 1.2826
 Frc consts  --      0.0396                 0.0791                 0.0303
 IR Inten    --     11.2015                11.6399                 1.2424

                      4                      5                      6
                      A                      A                      A
 Frequencies --    209.8722               226.7548               251.5199
 Red. masses --      2.2925                 1.9570                 3.4440
 Frc consts  --      0.0595                 0.0593                 0.1284
 IR Inten    --      4.6290                 1.6519                 0.0942

                      7                      8                      9
                      A                      A                      A
 Frequencies --    314.3677               337.7546               403.0714
 Red. masses --      2.2727                 2.6560                 2.3720
 Frc consts  --      0.1323                 0.1785                 0.2271
 IR Inten    --      1.3265                 0.2352                 0.6313

                     10                     11                     12
                      A                      A                      A
 Frequencies --    595.8753               657.6383               694.0503
 Red. masses --      4.3783                 4.0431                 5.0963
 Frc consts  --      0.9159                 1.0302                 1.4464
 IR Inten    --      3.7356                 0.3876                 9.5023

                     13                     14                     15
                      A                      A                      A
 Frequencies --    765.2973               821.6544               891.6031
 Red. masses --      4.4787                 3.3872                 2.5359
 Frc consts  --      1.5455                 1.3473                 1.1878
 IR Inten    --      2.5640                21.7456                 1.4216

                     16                     17                     18
                      A                      A                      A
 Frequencies --    932.7810               953.2471               977.5291
 Red. masses --      2.6512                 2.0789                 1.3945
 Frc consts  --      1.3591                 1.1130                 0.7851
 IR Inten    --     18.7400                 7.1232                13.1625

                     19                     20                     21
                      A                      A                      A
 Frequencies --   1002.5458              1028.0261              1043.5604
 Red. masses --      1.6965                 1.8579                 1.8027
 Frc consts  --      1.0046                 1.1569                 1.1567
 IR Inten    --     39.2838                 7.1862                24.7656

                     22                     23                     24
                      A                      A                      A
 Frequencies --   1083.1393              1089.1037              1099.3971
 Red. masses --      1.7744                 1.6957                 1.9348
 Frc consts  --      1.2265                 1.1851                 1.3779
 IR Inten    --     17.2163                19.7202                28.3898

                     25                     26                     27
                      A                      A                      A
 Frequencies --   1107.7293              1137.2165              1214.5820
 Red. masses --      2.8238                 1.8523                 1.3277
 Frc consts  --      2.0415                 1.4114                 1.1540
 IR Inten    --     48.5001                23.8919                 8.7189

                     28                     29                     30
                      A                      A                      A
 Frequencies --   1226.2115              1254.2763              1271.7774
 Red. masses --      1.4851                 1.3042                 1.9603
 Frc consts  --      1.3157                 1.2089                 1.8681
 IR Inten    --     23.0318                 3.6956                 1.7557

                     31                     32                     33
                      A                      A                      A
 Frequencies --   1318.6183              1361.4754              1380.2196
 Red. masses --      1.5182                 1.5095                 1.7687
 Frc consts  --      1.5553                 1.6485                 1.9852
 IR Inten    --     17.6959                 9.1427                 9.2717

                     34                     35                     36
                      A                      A                      A
 Frequencies --   1417.5192              1430.8827              1447.2557
 Red. masses --      1.2379                 1.3429                 2.1545
 Frc consts  --      1.4655                 1.6199                 2.6589
 IR Inten    --     10.3041                24.6649                20.8749

                     37                     38                     39
                      A                      A                      A
 Frequencies --   1497.9901              1503.0067              1507.9847
 Red. masses --      1.0945                 1.0604                 1.0713
 Frc consts  --      1.4471                 1.4114                 1.4353
 IR Inten    --      4.1064                 3.4686                 1.8610

                     40                     41                     42
                      A                      A                      A
 Frequencies --   1519.0103              1793.4765              2885.1706
 Red. masses --      1.0946                 9.2970                 1.0829
 Frc consts  --      1.4881                17.6192                 5.3108
 IR Inten    --      0.2687               156.1166               151.3985

                     43                     44                     45
                      A                      A                      A
 Frequencies --   2963.5625              2974.6852              3032.1533
 Red. masses --      1.0700                 1.0709                 1.0393
 Frc consts  --      5.5367                 5.5830                 5.6300
 IR Inten    --     61.0577                76.2404                35.0610

                     46                     47                     48
                      A                      A                      A
 Frequencies --   3068.9168              3075.0698              3086.4974
 Red. masses --      1.0917                 1.0932                 1.1006
 Frc consts  --      6.0580                 6.0908                 6.1774
 IR Inten    --     30.8495                29.9838                23.7490

                     49                     50                     51
                      A                      A                      A
 Frequencies --   3144.4183              3156.4670              3194.6583
 Red. masses --      1.0972                 1.0885                 1.0909
 Frc consts  --      6.3914                 6.3897                 6.5596
 IR Inten    --      1.7121                 7.1641                 2.1320

 - Thermochemistry -
 -------------------
 Temperature   298.150 Kelvin.  Pressure   1.00000 Atm.
 Atom     1 has atomic number  6 and mass  12.00000

 Molecular mass:   126.06808 amu.
 Principal axes and moments of inertia in atomic units:
                           1         2         3
     Eigenvalues --   589.896921373.492791638.76770
           X            0.99986  -0.00949   0.01361
           Y            0.00937   0.99992   0.00899
           Z           -0.01370  -0.00886   0.99987
 This molecule is an asymmetric top.
 Rotational symmetry number  1.
 Warning -- assumption of classical behavior for rotation
           may cause significant error
 Rotational temperatures (Kelvin)      0.14683     0.06306     0.05285
 Rotational constants (GHZ):           3.05942     1.31398     1.10128
 Zero-point vibrational energy     417792.2 (Joules/Mol)
                                   99.85473 (Kcal/Mol)
 Warning -- explicit consideration of  10 degrees of freedom as
           vibrations may cause significant error
 Vibrational temperatures:    178.18   252.87   288.02   301.96   326.25
          (Kelvin)            361.88   452.30   485.95   579.93   857.33
                              946.19   998.58  1101.09  1182.18  1282.82
                             1342.06  1371.51  1406.44  1442.44  1479.10
                             1501.45  1558.39  1566.98  1581.79  1593.77
                             1636.20  1747.51  1764.24  1804.62  1829.80
                             1897.20  1958.86  1985.83  2039.49  2058.72
                             2082.28  2155.27  2162.49  2169.65  2185.51
                             2580.41  4151.11  4263.90  4279.90  4362.59
                             4415.48  4424.33  4440.78  4524.11  4541.45
                             4596.40

 Zero-point correction=                           0.159129 (Hartree/Particle)
 Thermal correction to Energy=                    0.167551
 Thermal correction to Enthalpy=                  0.168495
 Thermal correction to Gibbs Free Energy=         0.126343
 Sum of electronic and zero-point Energies=           -423.035716
 Sum of electronic and thermal Energies=              -423.027294
 Sum of electronic and thermal Enthalpies=            -423.026350
 Sum of electronic and thermal Free Energies=         -423.068502

                     E (Thermal)             CV                S
                      KCal/Mol        Cal/Mol-Kelvin    Cal/Mol-Kelvin
 Total                  105.140             31.758             88.716
 Electronic               0.000              0.000              0.000
 Translational            0.889              2.981             40.409
 Rotational               0.889              2.981             28.675
 Vibrational            103.362             25.796             19.632
 Vibration     1          0.610              1.929              3.040
 Vibration     2          0.628              1.872              2.373
 Vibration     3          0.638              1.840              2.131
 Vibration     4          0.642              1.826              2.045
 Vibration     5          0.650              1.800              1.904
 Vibration     6          0.663              1.760              1.720
 Vibration     7          0.702              1.646              1.339
 Vibration     8          0.718              1.600              1.223
 Vibration     9          0.768              1.463              0.951
 Vibration    10          0.954              1.041              0.457

 Normal termination of Gaussian 09 at Mon Jan 27 22:53:16 2020.
