 Gaussian 09, Revision D.01,
 Gaussian 09:  ES64L-G09RevD.01 24-Apr-2013

 -----------------------------
 # b3lyp 6-31G(2df,p) opt Freq
 -----------------------------

 -----
 titel
 -----
 Symbolic Z-matrix:
 Charge =  0 Multiplicity = 1

 SCF Done:  E(RB3LYP) =  -423.160158267     A.U. after   14 cycles
 Optimization completed.
    -- Stationary point found.
 Normal termination of Gaussian 09 at Tue Jan 28 08:16:23 2020.

 ----------------------------------------------------------------------
 #N Geom=AllCheck Guess=TCheck SCRF=Check GenChk RB3LYP/6-31G(2df,p) Fr
 eq
 ----------------------------------------------------------------------

 Structure from the checkpoint file:  "/scratch/puck/g09_7edad7e5-90d2-4f8e-ab1e-0ddf12b8bee0/Gau-59920.chk"
 -----
 titel
 -----
 Charge =  0 Multiplicity = 1

                         Standard orientation:
 ---------------------------------------------------------------------
 Center     Atomic      Atomic             Coordinates (Angstroms)
 Number     Number       Type             X           Y           Z
 ---------------------------------------------------------------------
      1          8           0       -3.152311   -1.276345   -0.045052
      2          6           0       -2.989532    0.114533    0.154114
      3          6           0       -1.553999    0.637262    0.004825
      4          8           0       -1.357589    1.825344   -0.105512
      5          6           0       -0.434469   -0.388580    0.043236
      6          6           0        0.958048    0.236398    0.009675
      7          6           0        2.072297   -0.828273    0.033727
      8          6           0        3.410436   -0.250410    0.001133
      9          6           0        4.503209    0.249247   -0.026539
     10          1           0       -3.155422   -1.448440   -0.991364
     11          1           0       -3.640371    0.722775   -0.487718
     12          1           0       -3.290141    0.317362    1.190059
     13          1           0       -0.581686   -1.016833    0.932574
     14          1           0       -0.581577   -1.080554   -0.798320
     15          1           0        1.063147    0.857907   -0.884249
     16          1           0        1.080210    0.913262    0.860590
     17          1           0        1.967151   -1.451762    0.931862
     18          1           0        1.949825   -1.509251   -0.819559
     19          1           0        5.472120    0.682476   -0.050388
 ---------------------------------------------------------------------

 SCF Done:  E(RB3LYP) =  -423.160158267     A.U. after    1 cycles

 The electronic state is 1-A.
 Alpha  occ. eigenvalues --  -19.15742 -19.13484 -10.27244 -10.24387 -10.20985
 Alpha  occ. eigenvalues --  -10.19780 -10.19082 -10.17814 -10.16711  -1.04928
 Alpha  occ. eigenvalues --   -1.03461  -0.81541  -0.76243  -0.72527  -0.69479
 Alpha  occ. eigenvalues --   -0.62138  -0.54911  -0.52969  -0.51411  -0.48659
 Alpha  occ. eigenvalues --   -0.46810  -0.46057  -0.45524  -0.42745  -0.41684
 Alpha  occ. eigenvalues --   -0.38336  -0.37298  -0.35918  -0.34869  -0.33944
 Alpha  occ. eigenvalues --   -0.31143  -0.26199  -0.26095  -0.24247
 Alpha virt. eigenvalues --   -0.01866   0.05390   0.05533   0.06128   0.09803
 Alpha virt. eigenvalues --    0.12147   0.13074   0.13430   0.14293   0.14941
 Alpha virt. eigenvalues --    0.16230   0.18110   0.19619   0.20985   0.21195

 Mulliken charges:
               1
     1  O   -0.402409
     2  C   -0.164657
     3  C    0.317372
     4  O   -0.292004
     5  C   -0.294988
     6  C   -0.170124
     7  C   -0.363793
     8  C    0.291474
     9  C   -0.430690
    10  H    0.291959
    11  H    0.125967
    12  H    0.145198
    13  H    0.132595
    14  H    0.114333
    15  H    0.125584
    16  H    0.124894
    17  H    0.128981
    18  H    0.126468
    19  H    0.193841
 Sum of Mulliken charges =   0.00000

 Dipole moment (field-independent basis, Debye):
    X=             -0.9965    Y=             -1.8260    Z=             -0.8673  Tot=              2.2538
 Quadrupole moment (field-independent basis, Debye-Ang):
   XX=            -51.2627   YY=            -59.3765   ZZ=            -50.1185
   XY=              2.0102   XZ=              3.3642   YZ=              2.6854

  Exact polarizability: 107.077   7.341  71.008  -0.610   0.274  56.975
 Approx polarizability: 132.642  18.380 115.488  -1.382  -1.041  88.855

                      1                      2                      3
                      A                      A                      A
 Frequencies --     29.5512                63.6775                68.5186
 Red. masses --      2.5763                 2.2573                 3.0482
 Frc consts  --      0.0013                 0.0054                 0.0084
 IR Inten    --      0.5986                 3.3340                 4.1303

                      4                      5                      6
                      A                      A                      A
 Frequencies --     82.8426               117.1413               162.9943
 Red. masses --      4.9422                 2.0999                 5.8828
 Frc consts  --      0.0200                 0.0170                 0.0921
 IR Inten    --      0.5427                 0.2340                 0.9751

                      7                      8                      9
                      A                      A                      A
 Frequencies --    260.2197               310.3830               323.3462
 Red. masses --      5.7771                 1.0875                 4.6230
 Frc consts  --      0.2305                 0.0617                 0.2848
 IR Inten    --      7.3585               133.7249                 4.1552

                     10                     11                     12
                      A                      A                      A
 Frequencies --    348.9765               447.9852               498.3529
 Red. masses --      3.1956                 2.3816                 4.6995
 Frc consts  --      0.2293                 0.2816                 0.6877
 IR Inten    --      2.9279                13.2352                20.8115

                     13                     14                     15
                      A                      A                      A
 Frequencies --    513.3636               604.2718               616.8958
 Red. masses --      5.7280                 3.8007                 1.1985
 Frc consts  --      0.8894                 0.8177                 0.2687
 IR Inten    --      3.4725                 8.9324                44.0822

                     16                     17                     18
                      A                      A                      A
 Frequencies --    636.1943               714.6483               792.1529
 Red. masses --      1.2175                 1.1958                 1.4483
 Frc consts  --      0.2903                 0.3598                 0.5355
 IR Inten    --     40.2614                 3.9475                 3.9334

                     19                     20                     21
                      A                      A                      A
 Frequencies --    812.1675               917.2662               965.1840
 Red. masses --      3.9530                 1.4526                 3.7715
 Frc consts  --      1.5363                 0.7201                 2.0701
 IR Inten    --      2.0874                 9.8223                 0.5047

                     22                     23                     24
                      A                      A                      A
 Frequencies --   1033.0899              1061.0285              1072.1155
 Red. masses --      3.8054                 3.1426                 1.8758
 Frc consts  --      2.3929                 2.0844                 1.2703
 IR Inten    --      3.8216                 2.6046                30.3818

                     25                     26                     27
                      A                      A                      A
 Frequencies --   1094.4047              1138.6530              1151.1817
 Red. masses --      4.5975                 1.8828                 1.3635
 Frc consts  --      3.2443                 1.4382                 1.0646
 IR Inten    --     57.2274                44.9388                13.3294

                     28                     29                     30
                      A                      A                      A
 Frequencies --   1209.2718              1271.8018              1286.0452
 Red. masses --      1.2424                 1.4720                 1.2142
 Frc consts  --      1.0704                 1.4028                 1.1832
 IR Inten    --     14.8864                 7.2881                 0.6639

                     31                     32                     33
                      A                      A                      A
 Frequencies --   1314.5303              1357.5194              1361.5293
 Red. masses --      1.0658                 1.6008                 1.3253
 Frc consts  --      1.0851                 1.7382                 1.4474
 IR Inten    --      0.4227                29.1001                 8.0258

                     34                     35                     36
                      A                      A                      A
 Frequencies --   1391.8886              1396.0701              1435.2739
 Red. masses --      1.4085                 1.3727                 1.0919
 Frc consts  --      1.6078                 1.5763                 1.3253
 IR Inten    --     11.9633                30.7291                12.4983

                     37                     38                     39
                      A                      A                      A
 Frequencies --   1461.0542              1472.3166              1494.4358
 Red. masses --      1.0734                 1.0832                 1.0906
 Frc consts  --      1.3500                 1.3834                 1.4350
 IR Inten    --      5.7465                 0.4733                 6.4050

                     40                     41                     42
                      A                      A                      A
 Frequencies --   1809.8830              2240.0730              3010.1835
 Red. masses --     11.6723                 5.9304                 1.0583
 Frc consts  --     22.5273                17.5332                 5.6502
 IR Inten    --    113.5876                 3.2094                14.8221

                     43                     44                     45
                      A                      A                      A
 Frequencies --   3017.4602              3019.9041              3037.6604
 Red. masses --      1.0626                 1.0584                 1.1001
 Frc consts  --      5.7004                 5.6872                 5.9806
 IR Inten    --     17.7487                24.0589                12.2077

                     46                     47                     48
                      A                      A                      A
 Frequencies --   3042.8502              3064.6766              3065.6864
 Red. masses --      1.0954                 1.0610                 1.1029
 Frc consts  --      5.9754                 5.8714                 6.1073
 IR Inten    --      2.7761                14.5180                14.3839

                     49                     50                     51
                      A                      A                      A
 Frequencies --   3106.5929              3508.0509              3828.8592
 Red. masses --      1.1042                 1.1622                 1.0666
 Frc consts  --      6.2787                 8.4267                 9.2129
 IR Inten    --     21.4910                67.6063                28.1247

 - Thermochemistry -
 -------------------
 Temperature   298.150 Kelvin.  Pressure   1.00000 Atm.
 Atom     1 has atomic number  8 and mass  15.99491

 Molecular mass:   126.06808 amu.
 Principal axes and moments of inertia in atomic units:
                           1         2         3
     Eigenvalues --   413.372763054.630273412.36270
           X            1.00000   0.00260   0.00104
           Y           -0.00262   0.99992   0.01245
           Z           -0.00101  -0.01245   0.99992
 This molecule is an asymmetric top.
 Rotational symmetry number  1.
 Rotational temperatures (Kelvin)      0.20953     0.02835     0.02538
 Rotational constants (GHZ):           4.36589     0.59082     0.52888
 Zero-point vibrational energy     406970.9 (Joules/Mol)
                                   97.26838 (Kcal/Mol)
 Warning -- explicit consideration of  15 degrees of freedom as
           vibrations may cause significant error
 Vibrational temperatures:     42.52    91.62    98.58   119.19   168.54
          (Kelvin)            234.51   374.40   446.57   465.22   502.10
                              644.55   717.02   738.61   869.41   887.57
                              915.34  1028.22  1139.73  1168.53  1319.74
                             1388.68  1486.38  1526.58  1542.53  1574.60
                             1638.27  1656.29  1739.87  1829.84  1850.33
                             1891.31  1953.17  1958.93  2002.61  2008.63
                             2065.04  2102.13  2118.33  2150.16  2604.01
                             3222.96  4330.98  4341.45  4344.96  4370.51
                             4377.98  4409.38  4410.83  4469.69  5047.30
                             5508.87

 Zero-point correction=                           0.155007 (Hartree/Particle)
 Thermal correction to Energy=                    0.165821
 Thermal correction to Enthalpy=                  0.166766
 Thermal correction to Gibbs Free Energy=         0.117088
 Sum of electronic and zero-point Energies=           -423.005151
 Sum of electronic and thermal Energies=              -422.994337
 Sum of electronic and thermal Enthalpies=            -422.993393
 Sum of electronic and thermal Free Energies=         -423.043070

                     E (Thermal)             CV                S
                      KCal/Mol        Cal/Mol-Kelvin    Cal/Mol-Kelvin
 Total                  104.054             37.300            104.556
 Electronic               0.000              0.000              0.000
 Translational            0.889              2.981             40.409
 Rotational               0.889              2.981             29.845
 Vibrational            102.277             31.338             34.302
 Vibration     1          0.593              1.984              5.859
 Vibration     2          0.597              1.972              4.340
 Vibration     3          0.598              1.969              4.195
 Vibration     4          0.600              1.961              3.822
 Vibration     5          0.608              1.935              3.147
 Vibration     6          0.623              1.888              2.515
 Vibration     7          0.668              1.745              1.660
 Vibration     8          0.699              1.654              1.360
 Vibration     9          0.708              1.629              1.293
 Vibration    10          0.726              1.577              1.171
 Vibration    11          0.807              1.365              0.802
 Vibration    12          0.854              1.254              0.662
 Vibration    13          0.868              1.220              0.626
 Vibration    14          0.963              1.023              0.442
 Vibration    15          0.977              0.996              0.421

 Normal termination of Gaussian 09 at Tue Jan 28 09:39:39 2020.
