 Gaussian 09, Revision D.01,
 Gaussian 09:  ES64L-G09RevD.01 24-Apr-2013

 -----------------------------
 # b3lyp 6-31G(2df,p) opt Freq
 -----------------------------

 -----
 titel
 -----
 Symbolic Z-matrix:
 Charge =  0 Multiplicity = 1

 SCF Done:  E(RB3LYP) =  -423.123410083     A.U. after   14 cycles
 Optimization completed.
    -- Stationary point found.
 Normal termination of Gaussian 09 at Tue Jan 28 14:09:57 2020.

 ----------------------------------------------------------------------
 #N Geom=AllCheck Guess=TCheck SCRF=Check GenChk RB3LYP/6-31G(2df,p) Fr
 eq
 ----------------------------------------------------------------------

 Structure from the checkpoint file:  "/scratch/puck/g09_5acbfc5f-6558-4628-882a-d6e7d78df775/Gau-144535.chk"
 -----
 titel
 -----
 Charge =  0 Multiplicity = 1

                         Standard orientation:
 ---------------------------------------------------------------------
 Center     Atomic      Atomic             Coordinates (Angstroms)
 Number     Number       Type             X           Y           Z
 ---------------------------------------------------------------------
      1          8           0        3.593675   -0.653620   -0.137716
      2          6           0        2.360484   -0.367650    0.502780
      3          6           0        1.154633   -0.590165   -0.417587
      4          6           0       -0.158717   -0.364341    0.299914
      5          6           0       -0.730686    1.008920    0.441517
      6          8           0        0.009176    2.054496   -0.109349
      7          6           0       -1.413379    0.013609   -0.496408
      8          6           0       -2.690660   -0.540497   -0.167774
      9          6           0       -3.763785   -1.000682    0.124521
     10          1           0        3.713001   -0.007575   -0.841077
     11          1           0        2.308783   -1.048071    1.360372
     12          1           0        2.336561    0.659125    0.896939
     13          1           0        1.228522    0.095567   -1.269117
     14          1           0        1.195636   -1.610471   -0.815677
     15          1           0       -0.343444   -1.026047    1.141615
     16          1           0       -1.262435    1.245851    1.361807
     17          1           0       -0.604211    2.735607   -0.404786
     18          1           0       -1.232441    0.204689   -1.551037
     19          1           0       -4.710110   -1.410842    0.375702
 ---------------------------------------------------------------------

 SCF Done:  E(RB3LYP) =  -423.123410083     A.U. after    1 cycles

 The electronic state is 1-A.
 Alpha  occ. eigenvalues --  -19.15808 -19.12969 -10.24800 -10.22175 -10.21272
 Alpha  occ. eigenvalues --  -10.20319 -10.18388 -10.18123 -10.16968  -1.04335
 Alpha  occ. eigenvalues --   -1.01055  -0.86980  -0.76036  -0.73281  -0.64019
 Alpha  occ. eigenvalues --   -0.63175  -0.57869  -0.54553  -0.52337  -0.49938
 Alpha  occ. eigenvalues --   -0.49599  -0.45800  -0.43315  -0.40977  -0.40058
 Alpha  occ. eigenvalues --   -0.39197  -0.35786  -0.35384  -0.31988  -0.30747
 Alpha  occ. eigenvalues --   -0.29851  -0.26719  -0.25790  -0.23478
 Alpha virt. eigenvalues --    0.04821   0.04856   0.06584   0.08510   0.10288
 Alpha virt. eigenvalues --    0.12746   0.13196   0.14190   0.14825   0.15558
 Alpha virt. eigenvalues --    0.16531   0.18921   0.19456   0.20005   0.23130

 Mulliken charges:
               1
     1  O   -0.418384
     2  C   -0.058310
     3  C   -0.230882
     4  C   -0.048610
     5  C    0.089581
     6  O   -0.416112
     7  C   -0.302358
     8  C    0.310887
     9  C   -0.434745
    10  H    0.281469
    11  H    0.107351
    12  H    0.104702
    13  H    0.099254
    14  H    0.109584
    15  H    0.104119
    16  H    0.102327
    17  H    0.293554
    18  H    0.113172
    19  H    0.193402
 Sum of Mulliken charges =   0.00000

 Dipole moment (field-independent basis, Debye):
    X=             -1.3751    Y=              1.7175    Z=             -0.4843  Tot=              2.2528
 Quadrupole moment (field-independent basis, Debye-Ang):
   XX=            -57.8862   YY=            -50.7987   ZZ=            -50.9302
   XY=              2.3141   XZ=             -3.7982   YZ=             -2.5768

  Exact polarizability: 108.802  10.178  70.593  -4.349  -2.686  61.517
 Approx polarizability: 146.556  19.210 105.676  -9.125  -6.542  94.280

                      1                      2                      3
                      A                      A                      A
 Frequencies --     57.3707                89.3389               107.7087
 Red. masses --      4.1898                 2.2717                 3.3795
 Frc consts  --      0.0081                 0.0107                 0.0231
 IR Inten    --      0.5791                 2.0696                 1.4259

                      4                      5                      6
                      A                      A                      A
 Frequencies --    140.4219               195.0150               245.9733
 Red. masses --      4.1860                 3.9115                 3.2652
 Frc consts  --      0.0486                 0.0876                 0.1164
 IR Inten    --      0.2869                 0.3049                 4.8221

                      7                      8                      9
                      A                      A                      A
 Frequencies --    305.4755               313.6232               328.2624
 Red. masses --      1.1189                 1.2155                 3.3669
 Frc consts  --      0.0615                 0.0704                 0.2138
 IR Inten    --     63.4516               126.1755                 0.7485

                     10                     11                     12
                      A                      A                      A
 Frequencies --    372.2922               419.1046               468.3161
 Red. masses --      3.7561                 4.4648                 4.8664
 Frc consts  --      0.3067                 0.4621                 0.6288
 IR Inten    --     48.7878                 2.2448                 0.7545

                     13                     14                     15
                      A                      A                      A
 Frequencies --    506.6635               572.4533               627.3898
 Red. masses --      5.2956                 1.1933                 2.9473
 Frc consts  --      0.8010                 0.2304                 0.6835
 IR Inten    --      6.5329                49.5143                 7.0875

                     16                     17                     18
                      A                      A                      A
 Frequencies --    649.6714               783.6953               831.8537
 Red. masses --      1.2311                 1.3834                 3.1302
 Frc consts  --      0.3061                 0.5006                 1.2762
 IR Inten    --     41.2388                 8.5267                 8.5485

                     19                     20                     21
                      A                      A                      A
 Frequencies --    857.5054               923.5986               981.5265
 Red. masses --      3.8452                 2.2294                 1.4803
 Frc consts  --      1.6659                 1.1205                 0.8403
 IR Inten    --      1.7570                 3.4521                 7.1298

                     22                     23                     24
                      A                      A                      A
 Frequencies --   1024.7263              1059.9661              1073.1984
 Red. masses --      1.8703                 2.4947                 4.0376
 Frc consts  --      1.1571                 1.6514                 2.7399
 IR Inten    --     51.3450                17.3389               103.5127

                     25                     26                     27
                      A                      A                      A
 Frequencies --   1084.1244              1108.8298              1119.3041
 Red. masses --      2.4578                 1.5639                 1.6255
 Frc consts  --      1.7020                 1.1329                 1.1999
 IR Inten    --     16.4886                12.4562                 0.8544

                     28                     29                     30
                      A                      A                      A
 Frequencies --   1146.7230              1196.0809              1227.9710
 Red. masses --      1.5758                 1.4922                 1.7868
 Frc consts  --      1.2209                 1.2577                 1.5875
 IR Inten    --     10.3570                11.9443                69.8772

                     31                     32                     33
                      A                      A                      A
 Frequencies --   1285.9203              1291.5527              1308.1768
 Red. masses --      1.2089                 1.2811                 1.2758
 Frc consts  --      1.1778                 1.2591                 1.2864
 IR Inten    --     41.3650                40.2395                 6.2922

                     34                     35                     36
                      A                      A                      A
 Frequencies --   1333.4943              1382.2820              1406.8346
 Red. masses --      1.2483                 1.3266                 1.3464
 Frc consts  --      1.3079                 1.4934                 1.5700
 IR Inten    --      2.6256                11.0289                 5.9563

                     37                     38                     39
                      A                      A                      A
 Frequencies --   1419.4333              1473.8827              1485.0636
 Red. masses --      1.2816                 1.9335                 1.2410
 Frc consts  --      1.5214                 2.4746                 1.6126
 IR Inten    --     43.3570                 4.2437                 5.1803

                     40                     41                     42
                      A                      A                      A
 Frequencies --   1511.6446              2232.9353              2998.3067
 Red. masses --      1.0917                 6.0465                 1.0656
 Frc consts  --      1.4698                17.7625                 5.6439
 IR Inten    --      0.7329                24.1020                35.1335

                     43                     44                     45
                      A                      A                      A
 Frequencies --   3037.5078              3059.4793              3086.4409
 Red. masses --      1.0588                 1.0956                 1.1048
 Frc consts  --      5.7557                 6.0422                 6.2011
 IR Inten    --     27.0567                11.5324                37.2496

                     46                     47                     48
                      A                      A                      A
 Frequencies --   3114.8580              3142.0951              3153.9846
 Red. masses --      1.0883                 1.0870                 1.0875
 Frc consts  --      6.2211                 6.3228                 6.3739
 IR Inten    --     18.2342                 2.7920                17.0848

                     49                     50                     51
                      A                      A                      A
 Frequencies --   3505.5605              3807.6611              3816.3931
 Red. masses --      1.1594                 1.0662                 1.0661
 Frc consts  --      8.3948                 9.1080                 9.1488
 IR Inten    --     87.2288                29.1885                17.2393

 - Thermochemistry -
 -------------------
 Temperature   298.150 Kelvin.  Pressure   1.00000 Atm.
 Atom     1 has atomic number  8 and mass  15.99491

 Molecular mass:   126.06808 amu.
 Principal axes and moments of inertia in atomic units:
                           1         2         3
     Eigenvalues --   535.561532338.129822701.57887
           X            0.99999   0.00151  -0.00352
           Y           -0.00154   0.99994  -0.01042
           Z            0.00350   0.01043   0.99994
 This molecule is an asymmetric top.
 Rotational symmetry number  1.
 Warning -- assumption of classical behavior for rotation
           may cause significant error
 Rotational temperatures (Kelvin)      0.16173     0.03704     0.03206
 Rotational constants (GHZ):           3.36981     0.77187     0.66803
 Zero-point vibrational energy     410747.9 (Joules/Mol)
                                   98.17111 (Kcal/Mol)
 Warning -- explicit consideration of  14 degrees of freedom as
           vibrations may cause significant error
 Vibrational temperatures:     82.54   128.54   154.97   202.04   280.58
          (Kelvin)            353.90   439.51   451.23   472.30   535.64
                              603.00   673.80   728.97   823.63   902.67
                              934.73  1127.56  1196.85  1233.76  1328.85
                             1412.20  1474.35  1525.05  1544.09  1559.81
                             1595.36  1610.43  1649.88  1720.89  1766.77
                             1850.15  1858.25  1882.17  1918.60  1988.79
                             2024.12  2042.25  2120.59  2136.67  2174.92
                             3212.69  4313.89  4370.29  4401.90  4440.69
                             4481.58  4520.77  4537.87  5043.71  5478.37
                             5490.93

 Zero-point correction=                           0.156446 (Hartree/Particle)
 Thermal correction to Energy=                    0.166653
 Thermal correction to Enthalpy=                  0.167597
 Thermal correction to Gibbs Free Energy=         0.120824
 Sum of electronic and zero-point Energies=           -422.966964
 Sum of electronic and thermal Energies=              -422.956758
 Sum of electronic and thermal Enthalpies=            -422.955813
 Sum of electronic and thermal Free Energies=         -423.002586

                     E (Thermal)             CV                S
                      KCal/Mol        Cal/Mol-Kelvin    Cal/Mol-Kelvin
 Total                  104.576             37.082             98.441
 Electronic               0.000              0.000              0.000
 Translational            0.889              2.981             40.409
 Rotational               0.889              2.981             29.605
 Vibrational            102.799             31.121             28.428
 Vibration     1          0.596              1.975              4.546
 Vibration     2          0.602              1.957              3.674
 Vibration     3          0.606              1.943              3.310
 Vibration     4          0.615              1.913              2.798
 Vibration     5          0.636              1.847              2.180
 Vibration     6          0.660              1.769              1.759
 Vibration     7          0.696              1.663              1.387
 Vibration     8          0.701              1.648              1.343
 Vibration     9          0.711              1.619              1.269
 Vibration    10          0.744              1.529              1.070
 Vibration    11          0.782              1.429              0.895
 Vibration    12          0.826              1.320              0.742
 Vibration    13          0.862              1.235              0.642
 Vibration    14          0.929              1.091              0.500

 Optimization completed.
    -- Stationary point found.
 Normal termination of Gaussian 09 at Tue Jan 28 14:50:58 2020.
