 Gaussian 09, Revision D.01,
 Gaussian 09:  ES64L-G09RevD.01 24-Apr-2013

 -----------------------------
 # b3lyp 6-31G(2df,p) opt Freq
 -----------------------------

 -----
 titel
 -----
 Symbolic Z-matrix:
 Charge =  0 Multiplicity = 1

 SCF Done:  E(RB3LYP) =  -423.191042930     A.U. after   14 cycles
 Optimization completed.
    -- Stationary point found.
 Normal termination of Gaussian 09 at Mon Jan 27 13:56:42 2020.

 ----------------------------------------------------------------------
 #N Geom=AllCheck Guess=TCheck SCRF=Check GenChk RB3LYP/6-31G(2df,p) Fr
 eq
 ----------------------------------------------------------------------

 Structure from the checkpoint file:  "/scratch/puck/g09_4b74f5d8-daed-4fe3-bfb3-411a4fe5a3f8/Gau-3595.chk"
 -----
 titel
 -----
 Charge =  0 Multiplicity = 1

                         Standard orientation:
 ---------------------------------------------------------------------
 Center     Atomic      Atomic             Coordinates (Angstroms)
 Number     Number       Type             X           Y           Z
 ---------------------------------------------------------------------
      1          8           0       -3.448053   -0.592100   -0.216165
      2          6           0       -2.598944   -0.028823    0.424853
      3          6           0       -1.506897    0.843390   -0.152477
      4          6           0       -0.107595    0.370453    0.266886
      5          6           0        0.286777   -1.023047   -0.294181
      6          6           0        1.798962   -0.977295   -0.360496
      7          8           0        2.411351   -0.457662    0.829804
      8          6           0        2.243797    0.420325   -0.293037
      9          6           0        1.032489    1.323287   -0.181133
     10          1           0       -2.563075   -0.125251    1.536556
     11          1           0       -1.616136    0.867265   -1.241526
     12          1           0       -1.668142    1.862359    0.229603
     13          1           0       -0.073034    0.308935    1.359109
     14          1           0       -0.089833   -1.843869    0.324482
     15          1           0       -0.111286   -1.169299   -1.306878
     16          1           0        2.361512   -1.753630   -0.872697
     17          1           0        3.164117    0.772180   -0.752256
     18          1           0        1.176316    2.152089    0.519319
     19          1           0        0.821642    1.757579   -1.167315
 ---------------------------------------------------------------------

 SCF Done:  E(RB3LYP) =  -423.191042930     A.U. after    1 cycles

 The electronic state is 1-A.
 Alpha  occ. eigenvalues --  -19.15038 -19.14098 -10.27309 -10.23827 -10.23781
 Alpha  occ. eigenvalues --  -10.20609 -10.19858 -10.19514 -10.19300  -1.07267
 Alpha  occ. eigenvalues --   -1.04770  -0.83424  -0.75201  -0.73012  -0.65742
 Alpha  occ. eigenvalues --   -0.58757  -0.57700  -0.57009  -0.52489  -0.48386
 Alpha  occ. eigenvalues --   -0.47064  -0.44546  -0.44023  -0.43174  -0.41028
 Alpha  occ. eigenvalues --   -0.39142  -0.37655  -0.36501  -0.35698  -0.34570
 Alpha  occ. eigenvalues --   -0.33985  -0.29427  -0.26649  -0.25113
 Alpha virt. eigenvalues --   -0.02288   0.08706   0.09826   0.10269   0.11577
 Alpha virt. eigenvalues --    0.12864   0.13277   0.13442   0.15210   0.15755
 Alpha virt. eigenvalues --    0.16336   0.17586   0.18126   0.18678   0.19482

 Mulliken charges:
               1
     1  O   -0.241409
     2  C    0.164408
     3  C   -0.301081
     4  C    0.013109
     5  C   -0.252909
     6  C    0.050724
     7  O   -0.259868
     8  C    0.049920
     9  C   -0.266725
    10  H    0.072111
    11  H    0.117256
    12  H    0.118941
    13  H    0.099428
    14  H    0.116239
    15  H    0.111611
    16  H    0.095851
    17  H    0.095655
    18  H    0.112191
    19  H    0.104549
 Sum of Mulliken charges =   0.00000

 Dipole moment (field-independent basis, Debye):
    X=              1.4339    Y=              1.5878    Z=             -0.6761  Tot=              2.2437
 Quadrupole moment (field-independent basis, Debye-Ang):
   XX=            -66.1159   YY=            -50.8727   ZZ=            -53.1696
   XY=             -2.9336   XZ=             -7.3612   YZ=              0.8201

  Exact polarizability:  86.933   4.461  73.635  -0.539   1.104  65.020
 Approx polarizability: 112.505  10.170 110.735   7.360   2.886 107.896

                      1                      2                      3
                      A                      A                      A
 Frequencies --     53.3445                76.1499               123.4323
 Red. masses --      6.1384                 3.9314                 2.4601
 Frc consts  --      0.0103                 0.0134                 0.0221
 IR Inten    --      5.8796                 4.1441                 2.7963

                      4                      5                      6
                      A                      A                      A
 Frequencies --    203.4847               323.0564               331.7245
 Red. masses --      2.7985                 4.0411                 2.1601
 Frc consts  --      0.0683                 0.2485                 0.1400
 IR Inten    --      1.1200                 2.6434                 1.2158

                      7                      8                      9
                      A                      A                      A
 Frequencies --    385.4488               424.7286               512.4487
 Red. masses --      2.8010                 2.0496                 3.0073
 Frc consts  --      0.2452                 0.2178                 0.4653
 IR Inten    --      2.3690                 4.7393                17.6093

                     10                     11                     12
                      A                      A                      A
 Frequencies --    651.7702               666.1354               795.0793
 Red. masses --      2.9567                 5.2604                 2.0823
 Frc consts  --      0.7400                 1.3753                 0.7756
 IR Inten    --      0.8955                 3.6919                 0.5420

                     13                     14                     15
                      A                      A                      A
 Frequencies --    823.5499               857.2969               861.9383
 Red. masses --      4.2499                 1.8834                 2.5471
 Frc consts  --      1.6983                 0.8156                 1.1150
 IR Inten    --      2.3349                 0.9743                32.2930

                     16                     17                     18
                      A                      A                      A
 Frequencies --    902.1013               910.0438               957.7002
 Red. masses --      1.6725                 2.0483                 2.3287
 Frc consts  --      0.8019                 0.9995                 1.2584
 IR Inten    --      1.4383                 4.7634                 4.8590

                     19                     20                     21
                      A                      A                      A
 Frequencies --    994.6973              1023.8785              1032.2877
 Red. masses --      1.7887                 1.8001                 1.6605
 Frc consts  --      1.0427                 1.1118                 1.0425
 IR Inten    --      1.7820                 6.3071                21.1188

                     22                     23                     24
                      A                      A                      A
 Frequencies --   1076.8353              1091.6236              1117.2037
 Red. masses --      2.5422                 1.1356                 2.7233
 Frc consts  --      1.7368                 0.7973                 2.0027
 IR Inten    --      1.4450                 0.3527                 1.2782

                     25                     26                     27
                      A                      A                      A
 Frequencies --   1128.1798              1182.1743              1193.3156
 Red. masses --      3.1988                 1.2762                 1.3479
 Frc consts  --      2.3988                 1.0508                 1.1309
 IR Inten    --     14.2049                 0.1062                 9.8642

                     28                     29                     30
                      A                      A                      A
 Frequencies --   1249.1157              1265.7871              1283.2663
 Red. masses --      1.3879                 1.3744                 1.3121
 Frc consts  --      1.2759                 1.2975                 1.2731
 IR Inten    --     10.3584                 2.1981                 2.2872

                     31                     32                     33
                      A                      A                      A
 Frequencies --   1307.0247              1321.3485              1323.6355
 Red. masses --      1.4485                 1.3613                 1.5179
 Frc consts  --      1.4579                 1.4003                 1.5668
 IR Inten    --      2.3802                 1.6635                 3.3956

                     34                     35                     36
                      A                      A                      A
 Frequencies --   1362.9704              1375.2272              1428.8244
 Red. masses --      1.3701                 1.6372                 1.1965
 Frc consts  --      1.4996                 1.8244                 1.4392
 IR Inten    --      2.3824                 8.1595                 4.4304

                     37                     38                     39
                      A                      A                      A
 Frequencies --   1441.8007              1462.5070              1477.4614
 Red. masses --      2.8450                 1.1038                 1.0940
 Frc consts  --      3.4845                 1.3910                 1.4070
 IR Inten    --     17.3170                 5.1228                 1.6270

                     40                     41                     42
                      A                      A                      A
 Frequencies --   1489.5473              1835.4844              2847.3306
 Red. masses --      1.1017                10.1490                 1.0815
 Frc consts  --      1.4402                20.1453                 5.1658
 IR Inten    --      1.5471               172.4613               106.0117

                     43                     44                     45
                      A                      A                      A
 Frequencies --   3008.8491              3027.6187              3031.6613
 Red. masses --      1.0640                 1.0635                 1.0645
 Frc consts  --      5.6751                 5.7438                 5.7642
 IR Inten    --     11.6328                28.3738                15.2226

                     46                     47                     48
                      A                      A                      A
 Frequencies --   3053.2139              3080.8150              3082.8862
 Red. masses --      1.0833                 1.0990                 1.0988
 Frc consts  --      5.9497                 6.1457                 6.1530
 IR Inten    --      2.7910                15.8791                 2.9002

                     49                     50                     51
                      A                      A                      A
 Frequencies --   3091.8079              3142.8329              3155.2895
 Red. masses --      1.0973                 1.0869                 1.0957
 Frc consts  --      6.1800                 6.3252                 6.4273
 IR Inten    --     47.7900                18.7500                41.1986

 - Thermochemistry -
 -------------------
 Temperature   298.150 Kelvin.  Pressure   1.00000 Atm.
 Atom     1 has atomic number  8 and mass  15.99491

 Molecular mass:   126.06808 amu.
 Principal axes and moments of inertia in atomic units:
                           1         2         3
     Eigenvalues --   416.085872014.872772219.38092
           X            0.99990  -0.00341  -0.01396
           Y            0.00353   0.99995   0.00891
           Z            0.01392  -0.00896   0.99986
 This molecule is an asymmetric top.
 Rotational symmetry number  1.
 Rotational temperatures (Kelvin)      0.20816     0.04299     0.03903
 Rotational constants (GHZ):           4.33742     0.89571     0.81317
 Zero-point vibrational energy     417771.5 (Joules/Mol)
                                   99.84978 (Kcal/Mol)
 Warning -- explicit consideration of   9 degrees of freedom as
           vibrations may cause significant error
 Vibrational temperatures:     76.75   109.56   177.59   292.77   464.81
          (Kelvin)            477.28   554.57   611.09   737.30   937.75
                              958.42  1143.94  1184.90  1233.46  1240.14
                             1297.92  1309.35  1377.92  1431.15  1473.13
                             1485.23  1549.32  1570.60  1607.40  1623.20
                             1700.88  1716.91  1797.20  1821.18  1846.33
                             1880.51  1901.12  1904.41  1961.01  1978.64
                             2055.76  2074.43  2104.22  2125.73  2143.12
                             2640.85  4096.67  4329.06  4356.06  4361.88
                             4392.89  4432.60  4435.58  4448.42  4521.83
                             4539.75

 Zero-point correction=                           0.159121 (Hartree/Particle)
 Thermal correction to Energy=                    0.167449
 Thermal correction to Enthalpy=                  0.168393
 Thermal correction to Gibbs Free Energy=         0.125146
 Sum of electronic and zero-point Energies=           -423.031922
 Sum of electronic and thermal Energies=              -423.023594
 Sum of electronic and thermal Enthalpies=            -423.022650
 Sum of electronic and thermal Free Energies=         -423.065897

                     E (Thermal)             CV                S
                      KCal/Mol        Cal/Mol-Kelvin    Cal/Mol-Kelvin
 Total                  105.076             30.886             91.021
 Electronic               0.000              0.000              0.000
 Translational            0.889              2.981             40.409
 Rotational               0.889              2.981             29.011
 Vibrational            103.299             24.924             21.602
 Vibration     1          0.596              1.976              4.689
 Vibration     2          0.599              1.965              3.988
 Vibration     3          0.610              1.929              3.046
 Vibration     4          0.639              1.835              2.101
 Vibration     5          0.708              1.629              1.295
 Vibration     6          0.714              1.612              1.252
 Vibration     7          0.754              1.501              1.018
 Vibration     8          0.787              1.416              0.876
 Vibration     9          0.868              1.222              0.628

 Optimization completed.
    -- Stationary point found.
 Normal termination of Gaussian 09 at Mon Jan 27 15:44:51 2020.
