 Gaussian 09, Revision D.01,
 Gaussian 09:  ES64L-G09RevD.01 24-Apr-2013

 -----------------------------
 # b3lyp 6-31G(2df,p) opt Freq
 -----------------------------

 -----
 titel
 -----
 Symbolic Z-matrix:
 Charge =  0 Multiplicity = 1

 SCF Done:  E(RB3LYP) =  -423.178642519     A.U. after   14 cycles
 Optimization completed.
    -- Stationary point found.
 Normal termination of Gaussian 09 at Mon Jan 27 22:02:28 2020.

 ----------------------------------------------------------------------
 #N Geom=AllCheck Guess=TCheck SCRF=Check GenChk RB3LYP/6-31G(2df,p) Fr
 eq
 ----------------------------------------------------------------------

 Structure from the checkpoint file:  "/scratch/puck/g09_bfecf7de-3f68-4764-ba27-e755d0c60ee0/Gau-182164.chk"
 -----
 titel
 -----
 Charge =  0 Multiplicity = 1

                         Standard orientation:
 ---------------------------------------------------------------------
 Center     Atomic      Atomic             Coordinates (Angstroms)
 Number     Number       Type             X           Y           Z
 ---------------------------------------------------------------------
      1          6           0       -2.030352    1.292498   -0.305999
      2          6           0       -0.635642    0.835068   -0.022183
      3          6           0        0.456861    1.592332    0.144451
      4          6           0        1.670941    0.747470    0.332177
      5          8           0        1.948195   -0.122235   -0.798374
      6          6           0        1.218793   -0.649750    0.306329
      7          6           0       -0.306951   -0.656519    0.129642
      8          6           0       -0.759839   -1.522082   -1.041228
      9          8           0       -0.931811   -1.192821    1.299745
     10          1           0       -2.739641    0.809317    0.375235
     11          1           0       -2.125265    2.376516   -0.202228
     12          1           0       -2.338320    1.024617   -1.324330
     13          1           0        0.482734    2.675236    0.102595
     14          1           0        2.550408    1.094716    0.865118
     15          1           0        1.683947   -1.463390    0.858452
     16          1           0       -0.244048   -1.214042   -1.953058
     17          1           0       -0.525808   -2.570532   -0.835712
     18          1           0       -1.839732   -1.440115   -1.190475
     19          1           0       -0.718216   -0.605982    2.034303
 ---------------------------------------------------------------------

 SCF Done:  E(RB3LYP) =  -423.178642519     A.U. after    1 cycles

 The electronic state is 1-A.
 Alpha  occ. eigenvalues --  -19.14789 -19.14236 -10.24236 -10.23637 -10.22888
 Alpha  occ. eigenvalues --  -10.19484 -10.18628 -10.18514 -10.17311  -1.06830
 Alpha  occ. eigenvalues --   -1.02306  -0.82457  -0.74662  -0.72657  -0.65970
 Alpha  occ. eigenvalues --   -0.63373  -0.57531  -0.54825  -0.51747  -0.48425
 Alpha  occ. eigenvalues --   -0.44855  -0.43677  -0.42328  -0.41020  -0.40127
 Alpha  occ. eigenvalues --   -0.38537  -0.37964  -0.37833  -0.35875  -0.32745
 Alpha  occ. eigenvalues --   -0.31332  -0.29033  -0.25503  -0.24135
 Alpha virt. eigenvalues --   -0.00370   0.07817   0.09484   0.11900   0.12935
 Alpha virt. eigenvalues --    0.13384   0.15184   0.15669   0.16230   0.17298
 Alpha virt. eigenvalues --    0.17653   0.17791   0.19024   0.21840   0.23179

 Mulliken charges:
               1
     1  C   -0.496489
     2  C    0.261189
     3  C   -0.216338
     4  C   -0.001177
     5  O   -0.258560
     6  C   -0.024930
     7  C    0.264078
     8  C   -0.421913
     9  O   -0.462559
    10  H    0.136481
    11  H    0.123620
    12  H    0.137353
    13  H    0.100725
    14  H    0.098595
    15  H    0.097796
    16  H    0.138403
    17  H    0.125453
    18  H    0.120442
    19  H    0.277834
 Sum of Mulliken charges =   0.00000

 Dipole moment (field-independent basis, Debye):
    X=             -0.6233    Y=              1.3836    Z=              1.3392  Tot=              2.0239
 Quadrupole moment (field-independent basis, Debye-Ang):
   XX=            -54.6162   YY=            -52.0642   ZZ=            -52.3063
   XY=             -1.1721   XZ=              4.7860   YZ=              1.6770

  Exact polarizability:  85.920   3.588  81.007   4.562   1.521  61.248
 Approx polarizability: 127.044  13.288 119.988   1.146   1.583  97.153

                      1                      2                      3
                      A                      A                      A
 Frequencies --    126.4233               183.0704               207.6885
 Red. masses --      3.2458                 1.0692                 2.0960
 Frc consts  --      0.0306                 0.0211                 0.0533
 IR Inten    --      1.3588                 0.2302                 0.6773

                      4                      5                      6
                      A                      A                      A
 Frequencies --    222.2791               243.2141               264.1080
 Red. masses --      2.7443                 1.4547                 2.5728
 Frc consts  --      0.0799                 0.0507                 0.1057
 IR Inten    --      2.0708                 1.7206                 0.9030

                      7                      8                      9
                      A                      A                      A
 Frequencies --    342.9443               364.3362               435.6628
 Red. masses --      3.4017                 1.0979                 3.3627
 Frc consts  --      0.2357                 0.0859                 0.3760
 IR Inten    --      2.6250                82.5060                11.9740

                     10                     11                     12
                      A                      A                      A
 Frequencies --    466.9392               475.8946               588.2130
 Red. masses --      2.7609                 6.0362                 3.7299
 Frc consts  --      0.3547                 0.8054                 0.7604
 IR Inten    --      0.2163                 2.0075                 9.5368

                     13                     14                     15
                      A                      A                      A
 Frequencies --    642.3594               683.3638               751.2631
 Red. masses --      3.8413                 3.6099                 5.7907
 Frc consts  --      0.9339                 0.9932                 1.9256
 IR Inten    --      1.2307                14.4139                 2.5653

                     16                     17                     18
                      A                      A                      A
 Frequencies --    812.4137               865.3785               874.1789
 Red. masses --      3.1281                 2.0382                 1.7753
 Frc consts  --      1.2164                 0.8993                 0.7993
 IR Inten    --      3.1482                 9.1493                32.1972

                     19                     20                     21
                      A                      A                      A
 Frequencies --    922.9690               943.0437               985.7029
 Red. masses --      2.2180                 2.0715                 1.6383
 Frc consts  --      1.1132                 1.0854                 0.9378
 IR Inten    --      8.9952                13.5453                15.2225

                     22                     23                     24
                      A                      A                      A
 Frequencies --   1008.8569              1034.1698              1061.3369
 Red. masses --      2.2983                 1.3563                 1.6017
 Frc consts  --      1.3782                 0.8546                 1.0630
 IR Inten    --     26.4163                 5.9392                10.0127

                     25                     26                     27
                      A                      A                      A
 Frequencies --   1087.0624              1113.3367              1156.9840
 Red. masses --      2.0336                 1.4062                 2.9373
 Frc consts  --      1.4159                 1.0270                 2.3166
 IR Inten    --     29.5223                 7.2630                50.3022

                     28                     29                     30
                      A                      A                      A
 Frequencies --   1169.9559              1227.4647              1250.6744
 Red. masses --      2.1194                 1.8594                 1.6039
 Frc consts  --      1.7092                 1.6506                 1.4781
 IR Inten    --      8.9101                 2.6076                 5.0090

                     31                     32                     33
                      A                      A                      A
 Frequencies --   1294.2654              1335.4439              1366.2532
 Red. masses --      1.8332                 1.6845                 1.7316
 Frc consts  --      1.8092                 1.7699                 1.9044
 IR Inten    --      0.7695                 9.5076                66.7382

                     34                     35                     36
                      A                      A                      A
 Frequencies --   1402.8519              1404.4326              1414.2815
 Red. masses --      1.7747                 1.3879                 1.9774
 Frc consts  --      2.0578                 1.6129                 2.3304
 IR Inten    --     10.0301                 5.8432                 5.7291

                     37                     38                     39
                      A                      A                      A
 Frequencies --   1474.8614              1487.0104              1489.9285
 Red. masses --      1.0465                 1.0585                 1.0536
 Frc consts  --      1.3411                 1.3790                 1.3780
 IR Inten    --      6.5267                 5.9867                 5.1114

                     40                     41                     42
                      A                      A                      A
 Frequencies --   1499.9550              1691.6614              3026.2524
 Red. masses --      1.0616                 7.2913                 1.0378
 Frc consts  --      1.4072                12.2937                 5.5999
 IR Inten    --      1.9767                10.0662                17.7222

                     43                     44                     45
                      A                      A                      A
 Frequencies --   3049.6860              3078.8460              3115.6131
 Red. masses --      1.0346                 1.0967                 1.1010
 Frc consts  --      5.6695                 6.1252                 6.2966
 IR Inten    --     15.7275                12.6426                20.5629

                     46                     47                     48
                      A                      A                      A
 Frequencies --   3119.4438              3140.2558              3142.0467
 Red. masses --      1.1016                 1.0971                 1.0945
 Frc consts  --      6.3160                 6.3739                 6.3661
 IR Inten    --     11.6124                 5.5121                21.1122

                     49                     50                     51
                      A                      A                      A
 Frequencies --   3168.3445              3198.4022              3795.5608
 Red. masses --      1.0922                 1.0954                 1.0661
 Frc consts  --      6.4597                 6.6020                 9.0487
 IR Inten    --     30.0421                13.7779                13.3817

 - Thermochemistry -
 -------------------
 Temperature   298.150 Kelvin.  Pressure   1.00000 Atm.
 Atom     1 has atomic number  6 and mass  12.00000

 Molecular mass:   126.06808 amu.
 Principal axes and moments of inertia in atomic units:
                           1         2         3
     Eigenvalues --   794.372161035.607031349.05468
           X            0.99734  -0.05333   0.04970
           Y            0.05154   0.99800   0.03666
           Z           -0.05155  -0.03400   0.99809
 This molecule is an asymmetric top.
 Rotational symmetry number  1.
 Warning -- assumption of classical behavior for rotation
           may cause significant error
 Rotational temperatures (Kelvin)      0.10903     0.08364     0.06420
 Rotational constants (GHZ):           2.27191     1.74269     1.33778
 Zero-point vibrational energy     413947.9 (Joules/Mol)
                                   98.93592 (Kcal/Mol)
 Warning -- explicit consideration of  12 degrees of freedom as
           vibrations may cause significant error
 Vibrational temperatures:    181.89   263.40   298.82   319.81   349.93
          (Kelvin)            379.99   493.42   524.20   626.82   671.82
                              684.71   846.31   924.21   983.21  1080.90
                             1168.88  1245.09  1257.75  1327.94  1356.83
                             1418.20  1451.52  1487.94  1527.03  1564.04
                             1601.84  1664.64  1683.30  1766.05  1799.44
                             1862.16  1921.40  1965.73  2018.39  2020.66
                             2034.83  2121.99  2139.47  2143.67  2158.10
                             2433.92  4354.10  4387.81  4429.77  4482.67
                             4488.18  4518.12  4520.70  4558.54  4601.78
                             5460.96

 Zero-point correction=                           0.157664 (Hartree/Particle)
 Thermal correction to Energy=                    0.166428
 Thermal correction to Enthalpy=                  0.167373
 Thermal correction to Gibbs Free Energy=         0.124976
 Sum of electronic and zero-point Energies=           -423.020978
 Sum of electronic and thermal Energies=              -423.012214
 Sum of electronic and thermal Enthalpies=            -423.011270
 Sum of electronic and thermal Free Energies=         -423.053667

                     E (Thermal)             CV                S
                      KCal/Mol        Cal/Mol-Kelvin    Cal/Mol-Kelvin
 Total                  104.435             34.141             89.232
 Electronic               0.000              0.000              0.000
 Translational            0.889              2.981             40.409
 Rotational               0.889              2.981             28.497
 Vibrational            102.658             28.179             20.326
 Vibration     1          0.611              1.927              3.000
 Vibration     2          0.631              1.863              2.297
 Vibration     3          0.641              1.829              2.064
 Vibration     4          0.648              1.807              1.940
 Vibration     5          0.659              1.774              1.779
 Vibration     6          0.671              1.739              1.634
 Vibration     7          0.722              1.590              1.198
 Vibration     8          0.738              1.546              1.104
 Vibration     9          0.796              1.392              0.840
 Vibration    10          0.824              1.323              0.746
 Vibration    11          0.833              1.304              0.721
 Vibration    12          0.945              1.057              0.470

 Optimization completed.
    -- Stationary point found.
 Normal termination of Gaussian 09 at Mon Jan 27 22:50:10 2020.
