 Gaussian 09, Revision D.01,
 Gaussian 09:  ES64L-G09RevD.01 24-Apr-2013

 -----------------------------
 # b3lyp 6-31G(2df,p) opt Freq
 -----------------------------

 -----
 titel
 -----
 Symbolic Z-matrix:
 Charge =  0 Multiplicity = 1

 SCF Done:  E(RB3LYP) =  -423.161388789     A.U. after   14 cycles
 Optimization completed.
    -- Stationary point found.
 Normal termination of Gaussian 09 at Mon Jan 27 17:28:01 2020.

 ----------------------------------------------------------------------
 #N Geom=AllCheck Guess=TCheck SCRF=Check GenChk RB3LYP/6-31G(2df,p) Fr
 eq
 ----------------------------------------------------------------------

 Structure from the checkpoint file:  "/scratch/puck/g09_6fc177e2-25de-457c-aeba-26b3b125a0b6/Gau-60259.chk"
 -----
 titel
 -----
 Charge =  0 Multiplicity = 1

                         Standard orientation:
 ---------------------------------------------------------------------
 Center     Atomic      Atomic             Coordinates (Angstroms)
 Number     Number       Type             X           Y           Z
 ---------------------------------------------------------------------
      1          6           0        1.504832    1.490052    0.325483
      2          6           0        0.688997    0.229152    0.085424
      3          6           0       -0.362880   -0.211170    1.187167
      4          6           0       -1.468518   -0.166702    0.129289
      5          8           0       -2.454497   -1.127127    0.004265
      6          6           0       -1.577740    1.202501   -0.468852
      7          6           0       -0.475108    0.273126   -0.935301
      8          6           0        1.572452   -0.958637   -0.231354
      9          8           0        2.774784   -0.932280   -0.294186
     10          1           0        2.106480    1.733759   -0.554748
     11          1           0        0.861550    2.344821    0.550877
     12          1           0        2.195758    1.349522    1.161688
     13          1           0       -0.184493   -1.224236    1.557343
     14          1           0       -0.461347    0.468464    2.039365
     15          1           0       -3.234480   -0.829507    0.485478
     16          1           0       -2.382688    1.306638   -1.189779
     17          1           0       -1.363923    2.100813    0.104776
     18          1           0       -0.399413   -0.021611   -1.975219
     19          1           0        1.008040   -1.903337   -0.411552
 ---------------------------------------------------------------------

 SCF Done:  E(RB3LYP) =  -423.161388789     A.U. after    1 cycles

 The electronic state is 1-A.
 Alpha  occ. eigenvalues --  -19.15642 -19.13664 -10.26455 -10.25087 -10.20924
 Alpha  occ. eigenvalues --  -10.20242 -10.19663 -10.19632 -10.17529  -1.04442
 Alpha  occ. eigenvalues --   -1.04278  -0.90232  -0.77494  -0.70782  -0.66197
 Alpha  occ. eigenvalues --   -0.60527  -0.58618  -0.53328  -0.52340  -0.48910
 Alpha  occ. eigenvalues --   -0.46010  -0.45414  -0.43421  -0.41331  -0.40832
 Alpha  occ. eigenvalues --   -0.39329  -0.38160  -0.37118  -0.35777  -0.33203
 Alpha  occ. eigenvalues --   -0.31622  -0.27557  -0.26413  -0.24428
 Alpha virt. eigenvalues --   -0.01871   0.07199   0.09228   0.10491   0.10937
 Alpha virt. eigenvalues --    0.12730   0.13382   0.14366   0.15624   0.15965
 Alpha virt. eigenvalues --    0.16731   0.18290   0.19917   0.20602   0.23165

 Mulliken charges:
               1
     1  C   -0.456717
     2  C    0.222839
     3  C   -0.366502
     4  C    0.417290
     5  O   -0.463450
     6  C   -0.359717
     7  C   -0.147912
     8  C    0.129972
     9  O   -0.263601
    10  H    0.130387
    11  H    0.109120
    12  H    0.129173
    13  H    0.118070
    14  H    0.101682
    15  H    0.288263
    16  H    0.119606
    17  H    0.109377
    18  H    0.100689
    19  H    0.081430
 Sum of Mulliken charges =   0.00000

 Dipole moment (field-independent basis, Debye):
    X=             -3.1774    Y=              1.4496    Z=              0.9172  Tot=              3.6109
 Quadrupole moment (field-independent basis, Debye-Ang):
   XX=            -58.0306   YY=            -54.9471   ZZ=            -51.0978
   XY=              0.4237   XZ=             -1.0803   YZ=             -0.7547

  Exact polarizability:  90.663  -0.610  72.594  -0.770  -0.104  65.095
 Approx polarizability: 130.396  -0.927 106.119  -4.852   0.013 100.484

                      1                      2                      3
                      A                      A                      A
 Frequencies --     88.3401               111.7960               191.4924
 Red. masses --      4.0820                 4.6487                 1.0655
 Frc consts  --      0.0188                 0.0342                 0.0230
 IR Inten    --      2.7387                 1.3102                 0.1576

                      4                      5                      6
                      A                      A                      A
 Frequencies --    217.5627               249.8203               277.6321
 Red. masses --      2.6509                 1.1663                 3.1266
 Frc consts  --      0.0739                 0.0429                 0.1420
 IR Inten    --     23.6428                72.1073                 4.4343

                      7                      8                      9
                      A                      A                      A
 Frequencies --    351.9276               376.8102               397.4812
 Red. masses --      2.4497                 3.2361                 3.1727
 Frc consts  --      0.1788                 0.2707                 0.2953
 IR Inten    --      1.2971                13.9183                 5.5468

                     10                     11                     12
                      A                      A                      A
 Frequencies --    413.9213               429.8344               513.0388
 Red. masses --      2.3745                 2.6165                 2.5409
 Frc consts  --      0.2397                 0.2848                 0.3940
 IR Inten    --      0.5307                 1.2843                 6.6568

                     13                     14                     15
                      A                      A                      A
 Frequencies --    652.9383               730.6187               780.6058
 Red. masses --      3.0367                 3.3297                 3.0910
 Frc consts  --      0.7628                 1.0472                 1.1097
 IR Inten    --      1.2719                 4.5007                 9.0495

                     16                     17                     18
                      A                      A                      A
 Frequencies --    823.8560               872.3346               897.6049
 Red. masses --      2.8592                 2.4518                 1.7380
 Frc consts  --      1.1434                 1.0992                 0.8251
 IR Inten    --      3.9501                11.0488                30.6088

                     19                     20                     21
                      A                      A                      A
 Frequencies --    940.2930               961.9345               981.7534
 Red. masses --      1.8485                 1.9644                 1.4601
 Frc consts  --      0.9629                 1.0709                 0.8292
 IR Inten    --     11.0977                20.5124                 5.6686

                     22                     23                     24
                      A                      A                      A
 Frequencies --   1013.1488              1030.3313              1051.1702
 Red. masses --      1.4581                 1.5391                 1.7135
 Frc consts  --      0.8818                 0.9627                 1.1155
 IR Inten    --      2.0789                 0.3028                13.0451

                     25                     26                     27
                      A                      A                      A
 Frequencies --   1075.9992              1107.9370              1149.2007
 Red. masses --      1.4288                 1.5428                 2.3972
 Frc consts  --      0.9747                 1.1158                 1.8653
 IR Inten    --     16.3109                11.1997                 1.6647

                     28                     29                     30
                      A                      A                      A
 Frequencies --   1160.1609              1219.2635              1256.1084
 Red. masses --      1.8550                 1.4418                 2.2490
 Frc consts  --      1.4711                 1.2628                 2.0907
 IR Inten    --      6.0008                 2.3833                39.6961

                     31                     32                     33
                      A                      A                      A
 Frequencies --   1276.4997              1296.2041              1321.6585
 Red. masses --      2.6312                 3.0587                 1.6943
 Frc consts  --      2.5261                 3.0279                 1.7437
 IR Inten    --     70.4050                 5.6437                30.9069

                     34                     35                     36
                      A                      A                      A
 Frequencies --   1401.2702              1412.1677              1433.2457
 Red. masses --      1.6419                 1.3758                 1.2626
 Frc consts  --      1.8995                 1.6165                 1.5281
 IR Inten    --     36.7137                 7.7320                 2.7867

                     37                     38                     39
                      A                      A                      A
 Frequencies --   1475.9031              1486.1501              1489.6529
 Red. masses --      1.1525                 1.0585                 1.0723
 Frc consts  --      1.4791                 1.3774                 1.4020
 IR Inten    --      6.1791                 3.0826                 4.4598

                     40                     41                     42
                      A                      A                      A
 Frequencies --   1505.3246              1826.6171              2861.7258
 Red. masses --      1.3715                10.6292                 1.0825
 Frc consts  --      1.8311                20.8952                 5.2233
 IR Inten    --     15.0267               201.1296                90.7253

                     43                     44                     45
                      A                      A                      A
 Frequencies --   3045.9071              3049.1994              3105.4273
 Red. masses --      1.0422                 1.0514                 1.1068
 Frc consts  --      5.6967                 5.7596                 6.2890
 IR Inten    --     18.6832                26.9018                12.9221

                     46                     47                     48
                      A                      A                      A
 Frequencies --   3109.7243              3116.3108              3120.6816
 Red. masses --      1.0572                 1.1011                 1.1000
 Frc consts  --      6.0234                 6.3000                 6.3114
 IR Inten    --     11.7884                13.8244                25.4860

                     49                     50                     51
                      A                      A                      A
 Frequencies --   3183.2225              3203.4827              3794.5080
 Red. masses --      1.0941                 1.1125                 1.0662
 Frc consts  --      6.5321                 6.7265                 9.0449
 IR Inten    --      6.0562                10.2994                26.3545

 - Thermochemistry -
 -------------------
 Temperature   298.150 Kelvin.  Pressure   1.00000 Atm.
 Atom     1 has atomic number  6 and mass  12.00000

 Molecular mass:   126.06808 amu.
 Principal axes and moments of inertia in atomic units:
                           1         2         3
     Eigenvalues --   578.558191499.001991734.83848
           X            0.99990   0.01293   0.00644
           Y           -0.01294   0.99991   0.00198
           Z           -0.00641  -0.00207   0.99998
 This molecule is an asymmetric top.
 Rotational symmetry number  1.
 Warning -- assumption of classical behavior for rotation
           may cause significant error
 Rotational temperatures (Kelvin)      0.14971     0.05778     0.04993
 Rotational constants (GHZ):           3.11938     1.20396     1.04029
 Zero-point vibrational energy     411753.4 (Joules/Mol)
                                   98.41143 (Kcal/Mol)
 Warning -- explicit consideration of  12 degrees of freedom as
           vibrations may cause significant error
 Vibrational temperatures:    127.10   160.85   275.51   313.02   359.44
          (Kelvin)            399.45   506.34   542.15   571.89   595.54
                              618.44   738.15   939.43  1051.20  1123.12
                             1185.34  1255.09  1291.45  1352.87  1384.01
                             1412.52  1457.69  1482.42  1512.40  1548.12
                             1594.07  1653.44  1669.21  1754.25  1807.26
                             1836.60  1864.95  1901.57  2016.11  2031.79
                             2062.12  2123.49  2138.24  2143.28  2165.82
                             2628.09  4117.38  4382.38  4387.11  4468.01
                             4474.19  4483.67  4489.96  4579.94  4609.09
                             5459.44

 Zero-point correction=                           0.156829 (Hartree/Particle)
 Thermal correction to Energy=                    0.165898
 Thermal correction to Enthalpy=                  0.166842
 Thermal correction to Gibbs Free Energy=         0.123318
 Sum of electronic and zero-point Energies=           -423.004560
 Sum of electronic and thermal Energies=              -422.995491
 Sum of electronic and thermal Enthalpies=            -422.994546
 Sum of electronic and thermal Free Energies=         -423.038071

                     E (Thermal)             CV                S
                      KCal/Mol        Cal/Mol-Kelvin    Cal/Mol-Kelvin
 Total                  104.103             34.461             91.604
 Electronic               0.000              0.000              0.000
 Translational            0.889              2.981             40.409
 Rotational               0.889              2.981             28.799
 Vibrational            102.325             28.499             22.396
 Vibration     1          0.601              1.957              3.696
 Vibration     2          0.607              1.940              3.237
 Vibration     3          0.634              1.852              2.213
 Vibration     4          0.646              1.814              1.979
 Vibration     5          0.663              1.763              1.732
 Vibration     6          0.679              1.715              1.548
 Vibration     7          0.728              1.571              1.158
 Vibration     8          0.747              1.520              1.052
 Vibration     9          0.764              1.476              0.972
 Vibration    10          0.778              1.440              0.913
 Vibration    11          0.791              1.405              0.859
 Vibration    12          0.868              1.221              0.626

 Normal termination of Gaussian 09 at Mon Jan 27 18:11:07 2020.
