 Gaussian 09, Revision D.01,
 Gaussian 09:  ES64L-G09RevD.01 24-Apr-2013

 -----------------------------
 # b3lyp 6-31G(2df,p) opt Freq
 -----------------------------

 -----
 titel
 -----
 Symbolic Z-matrix:
 Charge =  0 Multiplicity = 1

 SCF Done:  E(RB3LYP) =  -423.196055287     A.U. after   14 cycles
 Optimization completed.
    -- Stationary point found.
 Normal termination of Gaussian 09 at Mon Jan 27 13:12:36 2020.

 ----------------------------------------------------------------------
 #N Geom=AllCheck Guess=TCheck SCRF=Check GenChk RB3LYP/6-31G(2df,p) Fr
 eq
 ----------------------------------------------------------------------

 Structure from the checkpoint file:  "/scratch/puck/g09_4f45cc91-ccd8-4c57-af91-31c9eec4e2c1/Gau-38134.chk"
 -----
 titel
 -----
 Charge =  0 Multiplicity = 1

                         Standard orientation:
 ---------------------------------------------------------------------
 Center     Atomic      Atomic             Coordinates (Angstroms)
 Number     Number       Type             X           Y           Z
 ---------------------------------------------------------------------
      1          8           0       -2.622199   -0.170450    0.575297
      2          6           0       -1.566706   -0.035954   -0.007539
      3          6           0       -0.992158    1.357755   -0.253848
      4          6           0        0.442364    1.661806    0.207578
      5          8           0        1.406358    0.974853   -0.568609
      6          6           0        2.135846   -0.033678    0.097063
      7          6           0        1.252305   -1.146227    0.694705
      8          6           0        0.295287   -1.740402   -0.302603
      9          6           0       -0.900715   -1.241202   -0.612282
     10          1           0       -1.019265    1.527534   -1.338777
     11          1           0       -1.681045    2.066106    0.217060
     12          1           0        0.613194    2.737113    0.071538
     13          1           0        0.562992    1.454106    1.278786
     14          1           0        2.807448   -0.448679   -0.661395
     15          1           0        2.759015    0.394864    0.898578
     16          1           0        1.915462   -1.920218    1.096469
     17          1           0        0.700380   -0.746908    1.552542
     18          1           0        0.615181   -2.652748   -0.801279
     19          1           0       -1.543973   -1.778979   -1.305469
 ---------------------------------------------------------------------

 SCF Done:  E(RB3LYP) =  -423.196055287     A.U. after    1 cycles

 The electronic state is 1-A.
 Alpha  occ. eigenvalues --  -19.14517 -19.12746 -10.27007 -10.24124 -10.23891
 Alpha  occ. eigenvalues --  -10.19835 -10.19654 -10.19135 -10.18919  -1.04017
 Alpha  occ. eigenvalues --   -1.03598  -0.81145  -0.78724  -0.72676  -0.68045
 Alpha  occ. eigenvalues --   -0.60952  -0.59510  -0.51998  -0.49633  -0.48781
 Alpha  occ. eigenvalues --   -0.47736  -0.46213  -0.43708  -0.42748  -0.42136
 Alpha  occ. eigenvalues --   -0.39394  -0.37694  -0.37303  -0.35094  -0.34935
 Alpha  occ. eigenvalues --   -0.31557  -0.26724  -0.26411  -0.23652
 Alpha virt. eigenvalues --   -0.03544   0.02550   0.09370   0.10013   0.11993
 Alpha virt. eigenvalues --    0.12183   0.13981   0.14901   0.15744   0.16048
 Alpha virt. eigenvalues --    0.17572   0.17792   0.19078   0.19835   0.22054

 Mulliken charges:
               1
     1  O   -0.303704
     2  C    0.327732
     3  C   -0.284679
     4  C   -0.098330
     5  O   -0.234879
     6  C   -0.061086
     7  C   -0.297796
     8  C   -0.026157
     9  C   -0.135289
    10  H    0.130224
    11  H    0.117350
    12  H    0.112283
    13  H    0.103826
    14  H    0.112959
    15  H    0.092880
    16  H    0.109085
    17  H    0.119942
    18  H    0.099770
    19  H    0.115869
 Sum of Mulliken charges =   0.00000

 Dipole moment (field-independent basis, Debye):
    X=              2.5211    Y=             -0.0177    Z=             -0.0935  Tot=              2.5229
 Quadrupole moment (field-independent basis, Debye-Ang):
   XX=            -60.0043   YY=            -49.7000   ZZ=            -53.2636
   XY=             -3.7419   XZ=              5.7321   YZ=              2.2643

  Exact polarizability:  92.977  -6.412  79.860   2.893   3.315  61.344
 Approx polarizability: 140.894 -11.428 108.539  -0.884   2.412  99.128

                      1                      2                      3
                      A                      A                      A
 Frequencies --     48.3850               149.4452               179.3887
 Red. masses --      4.8245                 2.7412                 4.5824
 Frc consts  --      0.0067                 0.0361                 0.0869
 IR Inten    --      6.6705                 4.0251                 2.2756

                      4                      5                      6
                      A                      A                      A
 Frequencies --    222.4637               277.9939               358.7820
 Red. masses --      2.6196                 2.8998                 2.9205
 Frc consts  --      0.0764                 0.1320                 0.2215
 IR Inten    --      1.3960                 0.9883                 2.5806

                      7                      8                      9
                      A                      A                      A
 Frequencies --    383.0775               473.5610               489.4315
 Red. masses --      2.4551                 2.2239                 2.7227
 Frc consts  --      0.2123                 0.2938                 0.3843
 IR Inten    --      3.3619                 8.2407                 3.6078

                     10                     11                     12
                      A                      A                      A
 Frequencies --    518.7393               596.7250               646.6785
 Red. masses --      3.0582                 2.2927                 4.0826
 Frc consts  --      0.4849                 0.4810                 1.0059
 IR Inten    --      3.9630                 2.8908                 2.8241

                     13                     14                     15
                      A                      A                      A
 Frequencies --    739.0809               797.4425               831.1688
 Red. masses --      1.7682                 2.6326                 2.8685
 Frc consts  --      0.5691                 0.9864                 1.1676
 IR Inten    --     19.1624                12.5946                 6.3198

                     16                     17                     18
                      A                      A                      A
 Frequencies --    872.3282               888.4593               953.4397
 Red. masses --      2.2838                 1.9728                 2.1527
 Frc consts  --      1.0239                 0.9175                 1.1530
 IR Inten    --      3.7806                20.7024                 0.3283

                     19                     20                     21
                      A                      A                      A
 Frequencies --    992.8910              1008.6384              1027.9642
 Red. masses --      1.3696                 2.2269                 2.9459
 Frc consts  --      0.7955                 1.3348                 1.8341
 IR Inten    --      2.9749                 1.1307                15.9088

                     22                     23                     24
                      A                      A                      A
 Frequencies --   1046.8885              1106.8939              1136.0135
 Red. masses --      1.9795                 2.0880                 2.9633
 Frc consts  --      1.2782                 1.5073                 2.2531
 IR Inten    --      2.4038                14.1363                53.6538

                     25                     26                     27
                      A                      A                      A
 Frequencies --   1176.6028              1220.6420              1254.9500
 Red. masses --      2.2742                 1.3391                 1.3062
 Frc consts  --      1.8550                 1.1756                 1.2121
 IR Inten    --     85.4338                35.1459                24.1486

                     28                     29                     30
                      A                      A                      A
 Frequencies --   1278.5318              1283.9436              1298.3981
 Red. masses --      1.3014                 1.2526                 1.3606
 Frc consts  --      1.2534                 1.2167                 1.3515
 IR Inten    --     16.5504                16.7133                12.8147

                     31                     32                     33
                      A                      A                      A
 Frequencies --   1346.3995              1357.0868              1393.7828
 Red. masses --      1.3163                 1.2954                 1.2575
 Frc consts  --      1.4059                 1.4056                 1.4393
 IR Inten    --      5.8948                 6.1823                17.8556

                     34                     35                     36
                      A                      A                      A
 Frequencies --   1405.1034              1423.1526              1450.3699
 Red. masses --      1.3372                 1.3794                 1.0952
 Frc consts  --      1.5555                 1.6461                 1.3574
 IR Inten    --      9.9525                 4.4799                 5.4584

                     37                     38                     39
                      A                      A                      A
 Frequencies --   1487.1379              1497.7297              1516.1787
 Red. masses --      1.1052                 1.0882                 1.0873
 Frc consts  --      1.4401                 1.4383                 1.4726
 IR Inten    --      5.2509                 0.7135                 5.5485

                     40                     41                     42
                      A                      A                      A
 Frequencies --   1707.0941              1776.0374              2974.9808
 Red. masses --      7.5540                11.5963                 1.0694
 Frc consts  --     12.9700                21.5512                 5.5767
 IR Inten    --      5.3846               176.5105                71.3041

                     43                     44                     45
                      A                      A                      A
 Frequencies --   3012.4167              3023.6074              3042.4837
 Red. masses --      1.0571                 1.0646                 1.0624
 Frc consts  --      5.6518                 5.7343                 5.7943
 IR Inten    --     43.6089                 2.6050                15.9401

                     46                     47                     48
                      A                      A                      A
 Frequencies --   3054.0371              3069.8369              3086.5105
 Red. masses --      1.1021                 1.0961                 1.0986
 Frc consts  --      6.0563                 6.0859                 6.1665
 IR Inten    --     47.5406                 7.5458                35.4618

                     49                     50                     51
                      A                      A                      A
 Frequencies --   3093.8038              3142.1258              3164.2175
 Red. masses --      1.0990                 1.0830                 1.0951
 Frc consts  --      6.1977                 6.2998                 6.4600
 IR Inten    --     16.6594                 9.4140                13.5222

 - Thermochemistry -
 -------------------
 Temperature   298.150 Kelvin.  Pressure   1.00000 Atm.
 Atom     1 has atomic number  8 and mass  15.99491

 Molecular mass:   126.06808 amu.
 Principal axes and moments of inertia in atomic units:
                           1         2         3
     Eigenvalues --   736.952721181.149941676.73775
           X            0.99855  -0.04679   0.02658
           Y            0.04640   0.99881   0.01528
           Z           -0.02727  -0.01402   0.99953
 This molecule is an asymmetric top.
 Rotational symmetry number  1.
 Warning -- assumption of classical behavior for rotation
           may cause significant error
 Rotational temperatures (Kelvin)      0.11753     0.07333     0.05166
 Rotational constants (GHZ):           2.44892     1.52795     1.07634
 Zero-point vibrational energy     420385.9 (Joules/Mol)
                                  100.47465 (Kcal/Mol)
 Warning -- explicit consideration of  11 degrees of freedom as
           vibrations may cause significant error
 Vibrational temperatures:     69.62   215.02   258.10   320.08   399.97
          (Kelvin)            516.21   551.16   681.35   704.18   746.35
                              858.55   930.42  1063.37  1147.34  1195.86
                             1255.08  1278.29  1371.79  1428.55  1451.20
                             1479.01  1506.24  1592.57  1634.47  1692.87
                             1756.23  1805.59  1839.52  1847.31  1868.10
                             1937.17  1952.54  2005.34  2021.63  2047.60
                             2086.76  2139.66  2154.90  2181.44  2456.12
                             2555.32  4280.33  4334.19  4350.29  4377.45
                             4394.07  4416.81  4440.79  4451.29  4520.81
                             4552.60

 Zero-point correction=                           0.160117 (Hartree/Particle)
 Thermal correction to Energy=                    0.168400
 Thermal correction to Enthalpy=                  0.169344
 Thermal correction to Gibbs Free Energy=         0.126839
 Sum of electronic and zero-point Energies=           -423.035939
 Sum of electronic and thermal Energies=              -423.027655
 Sum of electronic and thermal Enthalpies=            -423.026711
 Sum of electronic and thermal Free Energies=         -423.069217

                     E (Thermal)             CV                S
                      KCal/Mol        Cal/Mol-Kelvin    Cal/Mol-Kelvin
 Total                  105.673             31.497             89.461
 Electronic               0.000              0.000              0.000
 Translational            0.889              2.981             40.409
 Rotational               0.889              2.981             28.769
 Vibrational            103.895             25.535             20.283
 Vibration     1          0.595              1.978              4.882
 Vibration     2          0.618              1.903              2.679
 Vibration     3          0.629              1.868              2.335
 Vibration     4          0.648              1.807              1.939
 Vibration     5          0.679              1.714              1.546
 Vibration     6          0.734              1.557              1.127
 Vibration     7          0.752              1.506              1.027
 Vibration     8          0.830              1.309              0.728
 Vibration     9          0.845              1.273              0.685
 Vibration    10          0.874              1.208              0.613
 Vibration    11          0.955              1.039              0.455

 Optimization completed.
    -- Stationary point found.
 Normal termination of Gaussian 09 at Mon Jan 27 13:56:15 2020.
