 Gaussian 09, Revision D.01,
 Gaussian 09:  ES64L-G09RevD.01 24-Apr-2013

 -----------------------------
 # b3lyp 6-31G(2df,p) opt Freq
 -----------------------------

 -----
 titel
 -----
 Symbolic Z-matrix:
 Charge =  0 Multiplicity = 1

 SCF Done:  E(RB3LYP) =  -423.148222879     A.U. after   14 cycles
 Optimization completed.
    -- Stationary point found.
 Normal termination of Gaussian 09 at Tue Jan 28 08:07:47 2020.

 ----------------------------------------------------------------------
 #N Geom=AllCheck Guess=TCheck SCRF=Check GenChk RB3LYP/6-31G(2df,p) Fr
 eq
 ----------------------------------------------------------------------

 Structure from the checkpoint file:  "/scratch/puck/g09_0b17d0c3-6d49-49b6-982e-2e29e04c9089/Gau-127864.chk"
 -----
 titel
 -----
 Charge =  0 Multiplicity = 1

                         Standard orientation:
 ---------------------------------------------------------------------
 Center     Atomic      Atomic             Coordinates (Angstroms)
 Number     Number       Type             X           Y           Z
 ---------------------------------------------------------------------
      1          6           0        4.330812   -0.828345    0.602486
      2          6           0        3.652862   -0.155072   -0.604559
      3          6           0        2.290458    0.286719   -0.328294
      4          6           0        1.165878    0.637394   -0.080563
      5          6           0       -0.183924    1.090111    0.217590
      6          8           0       -1.120575    0.062576   -0.071727
      7          6           0       -2.444700    0.442954    0.198110
      8          6           0       -3.349948   -0.728071   -0.144352
      9          8           0       -4.545072   -0.702480   -0.020332
     10          1           0        4.388964   -0.139743    1.449727
     11          1           0        3.767899   -1.709387    0.921798
     12          1           0        5.346041   -1.142257    0.342652
     13          1           0        4.250864    0.705214   -0.931601
     14          1           0        3.638122   -0.849503   -1.454256
     15          1           0       -0.261228    1.380804    1.279401
     16          1           0       -0.420786    1.991877   -0.372892
     17          1           0       -2.594774    0.707780    1.259177
     18          1           0       -2.757207    1.318330   -0.397198
     19          1           0       -2.801339   -1.618032   -0.522841
 ---------------------------------------------------------------------

 SCF Done:  E(RB3LYP) =  -423.148222879     A.U. after    1 cycles

 The electronic state is 1-A.
 Alpha  occ. eigenvalues --  -19.15908 -19.14514 -10.27634 -10.26143 -10.24630
 Alpha  occ. eigenvalues --  -10.21205 -10.18591 -10.18184 -10.17517  -1.05944
 Alpha  occ. eigenvalues --   -1.04803  -0.80361  -0.77886  -0.72366  -0.67706
 Alpha  occ. eigenvalues --   -0.63455  -0.59127  -0.51530  -0.50381  -0.50046
 Alpha  occ. eigenvalues --   -0.47280  -0.45942  -0.44689  -0.44018  -0.42867
 Alpha  occ. eigenvalues --   -0.39973  -0.37457  -0.37307  -0.36624  -0.34858
 Alpha  occ. eigenvalues --   -0.27991  -0.26589  -0.25691  -0.25338
 Alpha virt. eigenvalues --   -0.02849   0.03057   0.04980   0.08979   0.10477
 Alpha virt. eigenvalues --    0.13324   0.14097   0.14511   0.14739   0.16193
 Alpha virt. eigenvalues --    0.16451   0.16966   0.18502   0.20223   0.20258

 Mulliken charges:
               1
     1  C   -0.365803
     2  C   -0.317349
     3  C    0.167492
     4  C   -0.024973
     5  C   -0.208927
     6  O   -0.245703
     7  C   -0.132578
     8  C    0.139644
     9  O   -0.238204
    10  H    0.128276
    11  H    0.131536
    12  H    0.116299
    13  H    0.132003
    14  H    0.135084
    15  H    0.118631
    16  H    0.119193
    17  H    0.121967
    18  H    0.122130
    19  H    0.101281
 Sum of Mulliken charges =   0.00000

 Dipole moment (field-independent basis, Debye):
    X=              2.9933    Y=              1.1883    Z=              0.2471  Tot=              3.2300
 Quadrupole moment (field-independent basis, Debye-Ang):
   XX=            -61.9902   YY=            -51.2802   ZZ=            -52.1522
   XY=             -4.9453   XZ=             -1.3008   YZ=              0.6824

  Exact polarizability: 122.886  -8.066  67.815  -5.141   2.797  60.183
 Approx polarizability: 159.468 -14.625  97.322 -12.333   5.892  88.166

                      1                      2                      3
                      A                      A                      A
 Frequencies --     29.3698                46.9263                64.4811
 Red. masses --      2.6310                 2.9525                 3.2756
 Frc consts  --      0.0013                 0.0038                 0.0080
 IR Inten    --      0.4065                 3.7840                 0.4206

                      4                      5                      6
                      A                      A                      A
 Frequencies --     81.7065                88.4101               140.4241
 Red. masses --      2.6727                 3.4030                 2.7881
 Frc consts  --      0.0105                 0.0157                 0.0324
 IR Inten    --     13.6728                 3.5950                 0.6451

                      7                      8                      9
                      A                      A                      A
 Frequencies --    172.4002               229.2145               293.1937
 Red. masses --      2.5995                 1.6259                 3.2817
 Frc consts  --      0.0455                 0.0503                 0.1662
 IR Inten    --      5.9868                 2.2035                 2.5850

                     10                     11                     12
                      A                      A                      A
 Frequencies --    332.2241               374.3202               465.4632
 Red. masses --      3.2771                 4.0348                 5.2660
 Frc consts  --      0.2131                 0.3331                 0.6722
 IR Inten    --      0.4303                 0.9245                 6.6329

                     13                     14                     15
                      A                      A                      A
 Frequencies --    510.6587               588.4627               742.5353
 Red. masses --      4.9010                 5.4063                 1.2560
 Frc consts  --      0.7530                 1.1030                 0.4080
 IR Inten    --      2.2878                 5.6614                 0.0649

                     16                     17                     18
                      A                      A                      A
 Frequencies --    768.9938               784.4957               964.2496
 Red. masses --      3.2727                 1.1892                 2.4432
 Frc consts  --      1.1403                 0.4312                 1.3384
 IR Inten    --      4.7486                 2.3296                 5.1460

                     19                     20                     21
                      A                      A                      A
 Frequencies --   1001.2754              1027.5184              1075.5821
 Red. masses --      4.3369                 1.6048                 5.4432
 Frc consts  --      2.5617                 0.9983                 3.7102
 IR Inten    --     80.3266                 1.8604                 3.9817

                     22                     23                     24
                      A                      A                      A
 Frequencies --   1080.4211              1103.2988              1116.3426
 Red. masses --      1.9126                 1.4857                 1.8087
 Frc consts  --      1.3154                 1.0656                 1.3280
 IR Inten    --      2.8465                 0.2468                 2.1145

                     25                     26                     27
                      A                      A                      A
 Frequencies --   1148.6116              1180.8814              1232.5853
 Red. masses --      5.4186                 3.3150                 1.0911
 Frc consts  --      4.2119                 2.7236                 0.9767
 IR Inten    --    161.5756                84.4269                 1.4912

                     28                     29                     30
                      A                      A                      A
 Frequencies --   1257.7167              1286.8643              1340.8444
 Red. masses --      1.0889                 1.1474                 1.2660
 Frc consts  --      1.0149                 1.1195                 1.3411
 IR Inten    --      6.1453                 0.0308                58.7956

                     31                     32                     33
                      A                      A                      A
 Frequencies --   1351.9869              1397.0563              1410.2465
 Red. masses --      1.5137                 1.2452                 1.2124
 Frc consts  --      1.6301                 1.4319                 1.4207
 IR Inten    --     18.7027                58.4684                 0.8331

                     34                     35                     36
                      A                      A                      A
 Frequencies --   1428.4415              1471.6876              1480.3786
 Red. masses --      1.4068                 1.0734                 1.1222
 Frc consts  --      1.6912                 1.3697                 1.4490
 IR Inten    --     44.6554                 2.4090                 9.0532

                     37                     38                     39
                      A                      A                      A
 Frequencies --   1494.7822              1504.9476              1506.5205
 Red. masses --      1.0395                 1.0584                 1.0799
 Frc consts  --      1.3685                 1.4123                 1.4440
 IR Inten    --      4.6313                 2.2392                 2.8336

                     40                     41                     42
                      A                      A                      A
 Frequencies --   1845.1038              2373.8971              2904.9363
 Red. masses --     10.6325                11.8828                 1.0848
 Frc consts  --     21.3269                39.4543                 5.3933
 IR Inten    --    172.8023                20.4351                72.7163

                     43                     44                     45
                      A                      A                      A
 Frequencies --   2950.0682              2959.0938              2969.5923
 Red. masses --      1.0543                 1.0544                 1.1028
 Frc consts  --      5.4061                 5.4396                 5.7298
 IR Inten    --     20.4302                64.6069                51.5108

                     46                     47                     48
                      A                      A                      A
 Frequencies --   2985.3955              3022.8485              3045.6937
 Red. masses --      1.1035                 1.0591                 1.0344
 Frc consts  --      5.7945                 5.7018                 5.6536
 IR Inten    --     16.7680                21.0099                28.2865

                     49                     50                     51
                      A                      A                      A
 Frequencies --   3050.5673              3119.2802              3125.4520
 Red. masses --      1.1007                 1.1022                 1.1029
 Frc consts  --      6.0350                 6.3184                 6.3477
 IR Inten    --      7.9826                29.0672                23.6614

 - Thermochemistry -
 -------------------
 Temperature   298.150 Kelvin.  Pressure   1.00000 Atm.
 Atom     1 has atomic number  6 and mass  12.00000

 Molecular mass:   126.06808 amu.
 Principal axes and moments of inertia in atomic units:
                           1         2         3
     Eigenvalues --   295.724804138.159064281.18096
           X            0.99990  -0.01414   0.00129
           Y            0.01412   0.99978   0.01563
           Z           -0.00151  -0.01561   0.99988
 This molecule is an asymmetric top.
 Rotational symmetry number  1.
 Rotational temperatures (Kelvin)      0.29289     0.02093     0.02023
 Rotational constants (GHZ):           6.10277     0.43612     0.42155
 Zero-point vibrational energy     406296.4 (Joules/Mol)
                                   97.10716 (Kcal/Mol)
 Warning -- explicit consideration of  14 degrees of freedom as
           vibrations may cause significant error
 Vibrational temperatures:     42.26    67.52    92.77   117.56   127.20
          (Kelvin)            202.04   248.05   329.79   421.84   478.00
                              538.56   669.70   734.72   846.67  1068.34
                             1106.41  1128.71  1387.34  1440.61  1478.37
                             1547.52  1554.48  1587.40  1606.17  1652.59
                             1699.02  1773.41  1809.57  1851.51  1929.17
                             1945.21  2010.05  2029.03  2055.21  2117.43
                             2129.93  2150.66  2165.28  2167.54  2654.69
                             3415.50  4179.55  4244.48  4257.47  4272.58
                             4295.31  4349.20  4382.07  4389.08  4487.94
                             4496.82

 Zero-point correction=                           0.154750 (Hartree/Particle)
 Thermal correction to Energy=                    0.165823
 Thermal correction to Enthalpy=                  0.166767
 Thermal correction to Gibbs Free Energy=         0.115718
 Sum of electronic and zero-point Energies=           -422.993473
 Sum of electronic and thermal Energies=              -422.982400
 Sum of electronic and thermal Enthalpies=            -422.981456
 Sum of electronic and thermal Free Energies=         -423.032505

                     E (Thermal)             CV                S
                      KCal/Mol        Cal/Mol-Kelvin    Cal/Mol-Kelvin
 Total                  104.055             36.185            107.442
 Electronic               0.000              0.000              0.000
 Translational            0.889              2.981             40.409
 Rotational               0.889              2.981             30.039
 Vibrational            102.278             30.223             36.994
 Vibration     1          0.593              1.984              5.872
 Vibration     2          0.595              1.979              4.943
 Vibration     3          0.597              1.971              4.315
 Vibration     4          0.600              1.962              3.849
 Vibration     5          0.601              1.957              3.695
 Vibration     6          0.615              1.913              2.798
 Vibration     7          0.626              1.876              2.409
 Vibration     8          0.652              1.796              1.885
 Vibration     9          0.688              1.686              1.455
 Vibration    10          0.714              1.611              1.249
 Vibration    11          0.745              1.525              1.062
 Vibration    12          0.823              1.327              0.750
 Vibration    13          0.866              1.226              0.632
 Vibration    14          0.946              1.056              0.470

 Normal termination of Gaussian 09 at Tue Jan 28 08:35:55 2020.
