 Gaussian 09, Revision D.01,
 Gaussian 09:  ES64L-G09RevD.01 24-Apr-2013

 -----------------------------
 # b3lyp 6-31G(2df,p) opt Freq
 -----------------------------

 -----
 titel
 -----
 Symbolic Z-matrix:
 Charge =  0 Multiplicity = 1

 SCF Done:  E(RB3LYP) =  -423.163172288     A.U. after   14 cycles
 Optimization completed.
    -- Stationary point found.
 Normal termination of Gaussian 09 at Mon Jan 27 16:43:01 2020.

 ----------------------------------------------------------------------
 #N Geom=AllCheck Guess=TCheck SCRF=Check GenChk RB3LYP/6-31G(2df,p) Fr
 eq
 ----------------------------------------------------------------------

 Structure from the checkpoint file:  "/scratch/puck/g09_624a942d-9a27-4f55-a7b3-0e8ecce86b79/Gau-12525.chk"
 -----
 titel
 -----
 Charge =  0 Multiplicity = 1

                         Standard orientation:
 ---------------------------------------------------------------------
 Center     Atomic      Atomic             Coordinates (Angstroms)
 Number     Number       Type             X           Y           Z
 ---------------------------------------------------------------------
      1          6           0        0.759039    1.848403   -0.031069
      2          6           0        0.590824    0.342318   -0.144051
      3          8           0       -0.122672   -0.059901   -1.352321
      4          6           0       -1.015290   -0.907476   -0.587076
      5          6           0       -2.349949   -0.211014   -0.241887
      6          6           0       -1.729215    0.282478    1.104586
      7          6           0       -0.395078   -0.430178    0.756554
      8          6           0        1.962909   -0.321160   -0.211076
      9          8           0        2.481948   -0.935878    0.683386
     10          1           0        1.397422    2.221514   -0.839174
     11          1           0       -0.207296    2.352089   -0.109540
     12          1           0        1.223164    2.111599    0.925002
     13          1           0       -1.026401   -1.934368   -0.959971
     14          1           0       -2.636617    0.559046   -0.961269
     15          1           0       -3.186687   -0.902022   -0.110489
     16          1           0       -1.677687    1.363393    1.253414
     17          1           0       -2.213126   -0.151937    1.981900
     18          1           0        0.064748   -1.076249    1.501462
     19          1           0        2.448838   -0.197054   -1.205745
 ---------------------------------------------------------------------

 SCF Done:  E(RB3LYP) =  -423.163172288     A.U. after    1 cycles

 The electronic state is 1-A.
 Alpha  occ. eigenvalues --  -19.14689 -19.14339 -10.27068 -10.24966 -10.23741
 Alpha  occ. eigenvalues --  -10.19398 -10.19136 -10.19133 -10.18667  -1.05829
 Alpha  occ. eigenvalues --   -1.04238  -0.82861  -0.78027  -0.68950  -0.65169
 Alpha  occ. eigenvalues --   -0.64664  -0.57527  -0.52035  -0.50543  -0.49184
 Alpha  occ. eigenvalues --   -0.46395  -0.45575  -0.44175  -0.42674  -0.40911
 Alpha  occ. eigenvalues --   -0.39119  -0.37914  -0.36617  -0.35560  -0.33530
 Alpha  occ. eigenvalues --   -0.30989  -0.28853  -0.27955  -0.23874
 Alpha virt. eigenvalues --   -0.02746   0.07181   0.08780   0.10116   0.11112
 Alpha virt. eigenvalues --    0.12240   0.13630   0.14925   0.15928   0.16770
 Alpha virt. eigenvalues --    0.17376   0.18352   0.18755   0.20950   0.21485

 Mulliken charges:
               1
     1  C   -0.458891
     2  C    0.315989
     3  O   -0.346434
     4  C    0.120820
     5  C   -0.231914
     6  C   -0.257750
     7  C   -0.118821
     8  C    0.128522
     9  O   -0.253101
    10  H    0.130893
    11  H    0.133211
    12  H    0.136130
    13  H    0.081972
    14  H    0.112014
    15  H    0.105408
    16  H    0.103695
    17  H    0.110371
    18  H    0.098330
    19  H    0.089557
 Sum of Mulliken charges =   0.00000

 Dipole moment (field-independent basis, Debye):
    X=             -1.7908    Y=              1.0988    Z=              0.1955  Tot=              2.1101
 Quadrupole moment (field-independent basis, Debye-Ang):
   XX=            -55.6188   YY=            -51.6197   ZZ=            -55.9802
   XY=              4.7464   XZ=             -3.7833   YZ=              1.3822

  Exact polarizability:  86.329   1.313  70.601  -1.179  -0.931  68.978
 Approx polarizability: 113.603  -1.200 103.699   3.758  -5.572 111.320

                      1                      2                      3
                      A                      A                      A
 Frequencies --     58.5446                94.0816               174.1578
 Red. masses --      4.4379                 2.5838                 3.0616
 Frc consts  --      0.0090                 0.0135                 0.0547
 IR Inten    --      4.7398                 2.5006                 5.9008

                      4                      5                      6
                      A                      A                      A
 Frequencies --    206.4827               263.0880               292.9914
 Red. masses --      1.3300                 1.7286                 2.5631
 Frc consts  --      0.0334                 0.0705                 0.1296
 IR Inten    --      1.5638                 0.6743                 0.3988

                      7                      8                      9
                      A                      A                      A
 Frequencies --    323.6011               401.0410               444.3944
 Red. masses --      2.4273                 3.4172                 3.1358
 Frc consts  --      0.1498                 0.3238                 0.3649
 IR Inten    --      3.5945                 3.7596                 7.5192

                     10                     11                     12
                      A                      A                      A
 Frequencies --    579.7944               627.4872               714.3101
 Red. masses --      4.0728                 5.1118                 1.6553
 Frc consts  --      0.8067                 1.1859                 0.4976
 IR Inten    --      2.7058                11.4859                 1.8130

                     13                     14                     15
                      A                      A                      A
 Frequencies --    755.4741               831.2917               842.3984
 Red. masses --      1.9186                 1.6896                 2.6186
 Frc consts  --      0.6452                 0.6879                 1.0949
 IR Inten    --      4.5422                 6.7085                 3.4863

                     16                     17                     18
                      A                      A                      A
 Frequencies --    888.1644               924.4972               930.7565
 Red. masses --      2.2256                 2.8236                 1.8511
 Frc consts  --      1.0344                 1.4219                 0.9448
 IR Inten    --     12.2864                 5.5765                29.0723

                     19                     20                     21
                      A                      A                      A
 Frequencies --    952.0268               971.0487               999.2226
 Red. masses --      2.5406                 2.3410                 2.3914
 Frc consts  --      1.3567                 1.3005                 1.4068
 IR Inten    --      1.3355                24.4836                20.9422

                     22                     23                     24
                      A                      A                      A
 Frequencies --   1027.8199              1050.3997              1113.4260
 Red. masses --      1.8712                 2.7660                 1.6285
 Frc consts  --      1.1647                 1.7981                 1.1895
 IR Inten    --     13.3649                29.6168                21.3733

                     25                     26                     27
                      A                      A                      A
 Frequencies --   1140.5238              1176.0708              1188.2879
 Red. masses --      2.3919                 2.0170                 1.6078
 Frc consts  --      1.8332                 1.6437                 1.3376
 IR Inten    --     12.2787                11.1428                 1.2648

                     28                     29                     30
                      A                      A                      A
 Frequencies --   1212.0541              1231.0963              1248.6724
 Red. masses --      2.2667                 1.3552                 1.6362
 Frc consts  --      1.9619                 1.2101                 1.5031
 IR Inten    --      2.0638                 1.2269                 4.8314

                     31                     32                     33
                      A                      A                      A
 Frequencies --   1271.1959              1286.4495              1322.0968
 Red. masses --      1.6096                 1.6066                 1.5300
 Frc consts  --      1.5324                 1.5665                 1.5757
 IR Inten    --      3.8876                 1.7859                 9.0748

                     34                     35                     36
                      A                      A                      A
 Frequencies --   1335.5314              1397.4074              1404.2547
 Red. masses --      1.7206                 1.2818                 1.2163
 Frc consts  --      1.8081                 1.4748                 1.4132
 IR Inten    --      1.7194                 8.9412                 6.9798

                     37                     38                     39
                      A                      A                      A
 Frequencies --   1464.0551              1478.2600              1481.6935
 Red. masses --      1.0858                 1.0637                 1.0845
 Frc consts  --      1.3712                 1.3695                 1.4028
 IR Inten    --      2.0309                 2.1515                 4.9638

                     40                     41                     42
                      A                      A                      A
 Frequencies --   1502.9387              1831.4532              2880.4390
 Red. masses --      1.0741                10.9276                 1.0837
 Frc consts  --      1.4295                21.5956                 5.2978
 IR Inten    --      4.3778               148.0670                96.2626

                     43                     44                     45
                      A                      A                      A
 Frequencies --   3037.0641              3062.2644              3070.0257
 Red. masses --      1.0352                 1.0601                 1.0611
 Frc consts  --      5.6258                 5.8569                 5.8922
 IR Inten    --     10.4672                20.5971                46.2436

                     46                     47                     48
                      A                      A                      A
 Frequencies --   3081.8598              3106.0499              3108.8519
 Red. masses --      1.0868                 1.1013                 1.1067
 Frc consts  --      6.0816                 6.2600                 6.3021
 IR Inten    --     48.3185                14.1333                 1.1695

                     49                     50                     51
                      A                      A                      A
 Frequencies --   3124.2927              3127.6721              3139.9098
 Red. masses --      1.1024                 1.1052                 1.0903
 Frc consts  --      6.3398                 6.3700                 6.3336
 IR Inten    --     15.4231                21.8644                17.5477

 - Thermochemistry -
 -------------------
 Temperature   298.150 Kelvin.  Pressure   1.00000 Atm.
 Atom     1 has atomic number  6 and mass  12.00000

 Molecular mass:   126.06808 amu.
 Principal axes and moments of inertia in atomic units:
                           1         2         3
     Eigenvalues --   608.870761373.236671436.63928
           X            0.99934   0.02888  -0.02205
           Y           -0.02736   0.99741   0.06646
           Z            0.02391  -0.06581   0.99755
 This molecule is an asymmetric top.
 Rotational symmetry number  1.
 Warning -- assumption of classical behavior for rotation
           may cause significant error
 Rotational temperatures (Kelvin)      0.14225     0.06307     0.06029
 Rotational constants (GHZ):           2.96408     1.31422     1.25622
 Zero-point vibrational energy     413770.2 (Joules/Mol)
                                   98.89344 (Kcal/Mol)
 Warning -- explicit consideration of  10 degrees of freedom as
           vibrations may cause significant error
 Vibrational temperatures:     84.23   135.36   250.57   297.08   378.52
          (Kelvin)            421.55   465.59   577.01   639.38   834.19
                              902.81  1027.73  1086.96  1196.04  1212.02
                             1277.87  1330.14  1339.15  1369.75  1397.12
                             1437.66  1478.80  1511.29  1601.97  1640.96
                             1692.10  1709.68  1743.87  1771.27  1796.56
                             1828.97  1850.91  1902.20  1921.53  2010.56
                             2020.41  2106.45  2126.88  2131.82  2162.39
                             2635.05  4144.30  4369.65  4405.91  4417.08
                             4434.10  4468.91  4472.94  4495.15  4500.02
                             4517.62

 Zero-point correction=                           0.157597 (Hartree/Particle)
 Thermal correction to Energy=                    0.166211
 Thermal correction to Enthalpy=                  0.167155
 Thermal correction to Gibbs Free Energy=         0.123988
 Sum of electronic and zero-point Energies=           -423.005576
 Sum of electronic and thermal Energies=              -422.996961
 Sum of electronic and thermal Enthalpies=            -422.996017
 Sum of electronic and thermal Free Energies=         -423.039184

                     E (Thermal)             CV                S
                      KCal/Mol        Cal/Mol-Kelvin    Cal/Mol-Kelvin
 Total                  104.299             32.238             90.852
 Electronic               0.000              0.000              0.000
 Translational            0.889              2.981             40.409
 Rotational               0.889              2.981             28.576
 Vibrational            102.521             26.277             21.868
 Vibration     1          0.596              1.974              4.506
 Vibration     2          0.603              1.953              3.573
 Vibration     3          0.627              1.874              2.390
 Vibration     4          0.641              1.831              2.075
 Vibration     5          0.670              1.740              1.641
 Vibration     6          0.688              1.687              1.457
 Vibration     7          0.708              1.628              1.292
 Vibration     8          0.767              1.468              0.959
 Vibration     9          0.804              1.373              0.813
 Vibration    10          0.936              1.075              0.486

 Optimization completed.
    -- Stationary point found.
 Normal termination of Gaussian 09 at Mon Jan 27 18:36:39 2020.
