 Gaussian 09, Revision D.01,
 Gaussian 09:  ES64L-G09RevD.01 24-Apr-2013

 -----------------------------
 # b3lyp 6-31G(2df,p) opt Freq
 -----------------------------

 -----
 titel
 -----
 Symbolic Z-matrix:
 Charge =  0 Multiplicity = 1

 SCF Done:  E(RB3LYP) =  -423.160034915     A.U. after   14 cycles
 Optimization completed.
    -- Stationary point found.
 Normal termination of Gaussian 09 at Mon Jan 27 23:03:02 2020.

 ----------------------------------------------------------------------
 #N Geom=AllCheck Guess=TCheck SCRF=Check GenChk RB3LYP/6-31G(2df,p) Fr
 eq
 ----------------------------------------------------------------------

 Structure from the checkpoint file:  "/scratch/puck/g09_bffe285d-f42d-4fd0-aa4e-949aee2e2d94/Gau-102364.chk"
 -----
 titel
 -----
 Charge =  0 Multiplicity = 1

                         Standard orientation:
 ---------------------------------------------------------------------
 Center     Atomic      Atomic             Coordinates (Angstroms)
 Number     Number       Type             X           Y           Z
 ---------------------------------------------------------------------
      1          6           0       -1.330909   -1.749768   -1.051516
      2          6           0       -0.808573   -0.699655   -0.112651
      3          6           0       -1.300411   -0.547681    1.303868
      4          6           0       -1.429005    0.619010    0.363590
      5          6           0       -0.072400    1.329952    0.270507
      6          8           0        0.014015    2.420887   -0.603751
      7          6           0        0.568626   -0.015701   -0.275492
      8          6           0        1.761631   -0.598657    0.428851
      9          8           0        2.851362   -0.735948   -0.070436
     10          1           0       -2.393973   -1.941341   -0.872477
     11          1           0       -1.215337   -1.445631   -2.098015
     12          1           0       -0.797555   -2.699051   -0.922740
     13          1           0       -2.225034   -1.073497    1.520750
     14          1           0       -0.620197   -0.496768    2.150564
     15          1           0       -2.382709    1.074377    0.121435
     16          1           0        0.329312    1.686416    1.224656
     17          1           0       -0.364263    2.162269   -1.451763
     18          1           0        0.831085    0.132039   -1.327287
     19          1           0        1.581899   -0.903329    1.485435
 ---------------------------------------------------------------------

 SCF Done:  E(RB3LYP) =  -423.160034915     A.U. after    1 cycles

 The electronic state is 1-A.
 Alpha  occ. eigenvalues --  -19.15100 -19.13552 -10.26651 -10.25189 -10.21706
 Alpha  occ. eigenvalues --  -10.20080 -10.20051 -10.19871 -10.19161  -1.04192
 Alpha  occ. eigenvalues --   -1.03631  -0.90833  -0.75019  -0.73588  -0.66721
 Alpha  occ. eigenvalues --   -0.61604  -0.57862  -0.54623  -0.52622  -0.48074
 Alpha  occ. eigenvalues --   -0.46758  -0.44468  -0.43683  -0.42845  -0.41158
 Alpha  occ. eigenvalues --   -0.39470  -0.39333  -0.37980  -0.36932  -0.32716
 Alpha  occ. eigenvalues --   -0.30438  -0.27980  -0.27538  -0.23668
 Alpha virt. eigenvalues --   -0.02558   0.06564   0.08243   0.09945   0.11059
 Alpha virt. eigenvalues --    0.11911   0.12752   0.13657   0.15493   0.15643
 Alpha virt. eigenvalues --    0.16826   0.17531   0.19219   0.20888   0.22291

 Mulliken charges:
               1
     1  C   -0.497873
     2  C    0.336282
     3  C   -0.337889
     4  C   -0.158591
     5  C    0.144758
     6  O   -0.429102
     7  C   -0.179182
     8  C    0.141675
     9  O   -0.254336
    10  H    0.122820
    11  H    0.118937
    12  H    0.129923
    13  H    0.119083
    14  H    0.113220
    15  H    0.094223
    16  H    0.097749
    17  H    0.282442
    18  H    0.086353
    19  H    0.069508
 Sum of Mulliken charges =   0.00000

 Dipole moment (field-independent basis, Debye):
    X=             -3.6177    Y=             -0.7652    Z=             -0.0366  Tot=              3.6979
 Quadrupole moment (field-independent basis, Debye-Ang):
   XX=            -61.6086   YY=            -57.5514   ZZ=            -49.1660
   XY=              1.8332   XZ=              2.5826   YZ=             -1.3266

  Exact polarizability:  82.904  -1.467  74.788  -2.018  -1.142  72.758
 Approx polarizability: 121.145  -6.334 108.864  -7.091  -2.510 111.213

                      1                      2                      3
                      A                      A                      A
 Frequencies --     57.6477               108.0704               192.5449
 Red. masses --      5.1226                 3.7417                 2.0320
 Frc consts  --      0.0100                 0.0257                 0.0444
 IR Inten    --      4.5862                 0.4623                 2.5498

                      4                      5                      6
                      A                      A                      A
 Frequencies --    209.2336               212.6336               285.1515
 Red. masses --      1.7962                 1.6316                 3.0208
 Frc consts  --      0.0463                 0.0435                 0.1447
 IR Inten    --      3.5101                 1.9563                 2.2064

                      7                      8                      9
                      A                      A                      A
 Frequencies --    316.4026               365.5560               382.8238
 Red. masses --      1.3451                 2.4091                 2.0209
 Frc consts  --      0.0793                 0.1897                 0.1745
 IR Inten    --     45.8001                 8.6482                40.8002

                     10                     11                     12
                      A                      A                      A
 Frequencies --    465.1474               480.2266               501.2954
 Red. masses --      3.4203                 3.9868                 4.0396
 Frc consts  --      0.4360                 0.5417                 0.5981
 IR Inten    --     13.0925                 6.6728                 1.0196

                     13                     14                     15
                      A                      A                      A
 Frequencies --    614.8488               761.1105               806.7366
 Red. masses --      3.2502                 3.2216                 2.5435
 Frc consts  --      0.7239                 1.0996                 0.9753
 IR Inten    --      3.4799                 2.6315                 3.5111

                     16                     17                     18
                      A                      A                      A
 Frequencies --    848.5708               875.5127               954.2143
 Red. masses --      2.1473                 1.9552                 1.5201
 Frc consts  --      0.9110                 0.8830                 0.8155
 IR Inten    --      1.1715                28.3164                 0.7093

                     19                     20                     21
                      A                      A                      A
 Frequencies --    995.1035              1005.6888              1021.7231
 Red. masses --      1.6051                 1.8786                 1.4185
 Frc consts  --      0.9365                 1.1195                 0.8725
 IR Inten    --     22.4998                11.2550                 8.2529

                     22                     23                     24
                      A                      A                      A
 Frequencies --   1052.0273              1063.9220              1083.1683
 Red. masses --      1.7145                 2.0479                 1.6244
 Frc consts  --      1.1180                 1.3658                 1.1229
 IR Inten    --      6.5940                11.0194                 8.3721

                     25                     26                     27
                      A                      A                      A
 Frequencies --   1099.1637              1118.1492              1129.8254
 Red. masses --      2.1453                 2.3764                 2.4681
 Frc consts  --      1.5271                 1.7506                 1.8563
 IR Inten    --     15.5672                35.0120                99.0331

                     28                     29                     30
                      A                      A                      A
 Frequencies --   1178.9947              1227.3546              1246.0929
 Red. masses --      1.4918                 1.3803                 1.7019
 Frc consts  --      1.2218                 1.2251                 1.5570
 IR Inten    --     19.2709                 6.3202                 5.2776

                     31                     32                     33
                      A                      A                      A
 Frequencies --   1262.3048              1283.0102              1331.7362
 Red. masses --      1.6724                 2.1201                 1.7057
 Frc consts  --      1.5700                 2.0562                 1.7823
 IR Inten    --     16.3551                 3.4296                 0.5244

                     34                     35                     36
                      A                      A                      A
 Frequencies --   1386.5027              1421.6340              1431.2913
 Red. masses --      1.8506                 1.3797                 1.2541
 Frc consts  --      2.0961                 1.6428                 1.5137
 IR Inten    --     10.5645                12.1721                67.9303

                     37                     38                     39
                      A                      A                      A
 Frequencies --   1441.8793              1484.1153              1498.1305
 Red. masses --      1.3329                 1.0461                 1.0645
 Frc consts  --      1.6327                 1.3576                 1.4077
 IR Inten    --      4.5696                 5.9428                 5.8914

                     40                     41                     42
                      A                      A                      A
 Frequencies --   1503.6546              1816.7851              2865.5863
 Red. masses --      1.2954                10.1511                 1.0809
 Frc consts  --      1.7257                19.7410                 5.2297
 IR Inten    --      3.8456               194.0050                86.3336

                     43                     44                     45
                      A                      A                      A
 Frequencies --   3023.1087              3056.2846              3073.8486
 Red. masses --      1.0357                 1.0861                 1.0854
 Frc consts  --      5.5767                 5.9773                 6.0425
 IR Inten    --     30.5709                29.8493                15.8151

                     46                     47                     48
                      A                      A                      A
 Frequencies --   3083.0997              3098.2457              3112.5320
 Red. masses --      1.1006                 1.1004                 1.0564
 Frc consts  --      6.1638                 6.2237                 6.0300
 IR Inten    --     21.6053                18.7259                18.0932

                     49                     50                     51
                      A                      A                      A
 Frequencies --   3178.0484              3198.3792              3797.3952
 Red. masses --      1.0945                 1.1121                 1.0658
 Frc consts  --      6.5131                 6.7029                 9.0548
 IR Inten    --     10.2129                12.5682                16.5544

 - Thermochemistry -
 -------------------
 Temperature   298.150 Kelvin.  Pressure   1.00000 Atm.
 Atom     1 has atomic number  6 and mass  12.00000

 Molecular mass:   126.06808 amu.
 Principal axes and moments of inertia in atomic units:
                           1         2         3
     Eigenvalues --   957.278851192.641301678.88971
           X            0.99380   0.11042   0.01316
           Y           -0.11062   0.99374   0.01557
           Z           -0.01136  -0.01693   0.99979
 This molecule is an asymmetric top.
 Rotational symmetry number  1.
 Warning -- assumption of classical behavior for rotation
           may cause significant error
 Rotational temperatures (Kelvin)      0.09048     0.07262     0.05159
 Rotational constants (GHZ):           1.88528     1.51323     1.07496
 Zero-point vibrational energy     412750.6 (Joules/Mol)
                                   98.64976 (Kcal/Mol)
 Warning -- explicit consideration of  13 degrees of freedom as
           vibrations may cause significant error
 Vibrational temperatures:     82.94   155.49   277.03   301.04   305.93
          (Kelvin)            410.27   455.23   525.95   550.80   669.24
                              690.94   721.25   884.63  1095.07  1160.71
                             1220.90  1259.67  1372.90  1431.73  1446.96
                             1470.03  1513.63  1530.74  1558.44  1581.45
                             1608.77  1625.56  1696.31  1765.89  1792.85
                             1816.17  1845.96  1916.07  1994.87  2045.41
                             2059.31  2074.54  2135.31  2155.47  2163.42
                             2613.95  4122.93  4349.57  4397.31  4422.58
                             4435.89  4457.68  4478.23  4572.50  4601.75
                             5463.60

 Zero-point correction=                           0.157208 (Hartree/Particle)
 Thermal correction to Energy=                    0.166339
 Thermal correction to Enthalpy=                  0.167284
 Thermal correction to Gibbs Free Energy=         0.123139
 Sum of electronic and zero-point Energies=           -423.002827
 Sum of electronic and thermal Energies=              -422.993696
 Sum of electronic and thermal Enthalpies=            -422.992751
 Sum of electronic and thermal Free Energies=         -423.036896

                     E (Thermal)             CV                S
                      KCal/Mol        Cal/Mol-Kelvin    Cal/Mol-Kelvin
 Total                  104.380             34.064             92.911
 Electronic               0.000              0.000              0.000
 Translational            0.889              2.981             40.409
 Rotational               0.889              2.981             29.040
 Vibrational            102.602             28.103             23.462
 Vibration     1          0.596              1.974              4.536
 Vibration     2          0.606              1.943              3.303
 Vibration     3          0.635              1.850              2.203
 Vibration     4          0.642              1.827              2.050
 Vibration     5          0.644              1.822              2.021
 Vibration     6          0.683              1.701              1.503
 Vibration     7          0.703              1.642              1.329
 Vibration     8          0.739              1.543              1.098
 Vibration     9          0.752              1.507              1.028
 Vibration    10          0.823              1.327              0.751
 Vibration    11          0.837              1.294              0.709
 Vibration    12          0.857              1.247              0.655
 Vibration    13          0.974              1.000              0.425

 Optimization completed.
    -- Stationary point found.
 Normal termination of Gaussian 09 at Mon Jan 27 23:46:12 2020.
