 Gaussian 09, Revision D.01,
 Gaussian 09:  ES64L-G09RevD.01 24-Apr-2013

 -----------------------------
 # b3lyp 6-31G(2df,p) opt Freq
 -----------------------------

 -----
 titel
 -----
 Symbolic Z-matrix:
 Charge =  0 Multiplicity = 1

 SCF Done:  E(RB3LYP) =  -423.120779040     A.U. after   13 cycles
 Optimization completed.
    -- Stationary point found.
 Normal termination of Gaussian 09 at Tue Jan 28 02:53:17 2020.

 ----------------------------------------------------------------------
 #N Geom=AllCheck Guess=TCheck SCRF=Check GenChk RB3LYP/6-31G(2df,p) Fr
 eq
 ----------------------------------------------------------------------

 Structure from the checkpoint file:  "/scratch/puck/g09_c127f8b6-ce37-4233-9c09-0cbe35597f05/Gau-87690.chk"
 -----
 titel
 -----
 Charge =  0 Multiplicity = 1

                         Standard orientation:
 ---------------------------------------------------------------------
 Center     Atomic      Atomic             Coordinates (Angstroms)
 Number     Number       Type             X           Y           Z
 ---------------------------------------------------------------------
      1          8           0       -3.157875   -0.702086   -0.143048
      2          6           0       -1.930083   -0.346942    0.457089
      3          6           0       -1.719404    1.190617    0.333937
      4          6           0       -0.478279    0.940281   -0.530308
      5          6           0        0.508172    0.083921    0.223509
      6          6           0        1.836838   -0.154691   -0.409569
      7          6           0        2.945243   -0.795702    0.308959
      8          8           0        2.937037    0.615718    0.087403
      9          6           0       -0.687822   -0.567425   -0.425709
     10          1           0       -3.215975   -1.663204   -0.154032
     11          1           0       -1.853535   -0.763780    1.472531
     12          1           0       -2.553256    1.615510   -0.227788
     13          1           0       -1.572178    1.758121    1.257888
     14          1           0       -0.168245    1.531484   -1.383874
     15          1           0        0.547942    0.159718    1.310367
     16          1           0        1.818948   -0.247061   -1.497802
     17          1           0        2.802156   -1.106828    1.343487
     18          1           0        3.701559   -1.354734   -0.240999
     19          1           0       -0.588699   -1.338633   -1.182060
 ---------------------------------------------------------------------

 SCF Done:  E(RB3LYP) =  -423.120779040     A.U. after    1 cycles

 The electronic state is 1-A.
 Alpha  occ. eigenvalues --  -19.14698 -19.13965 -10.24052 -10.23748 -10.23187
 Alpha  occ. eigenvalues --  -10.19802 -10.19493 -10.19300 -10.18286  -1.06727
 Alpha  occ. eigenvalues --   -1.02337  -0.89711  -0.74372  -0.67009  -0.64934
 Alpha  occ. eigenvalues --   -0.63456  -0.58050  -0.54135  -0.52326  -0.50144
 Alpha  occ. eigenvalues --   -0.49641  -0.45915  -0.44875  -0.40290  -0.38816
 Alpha  occ. eigenvalues --   -0.38579  -0.37386  -0.35221  -0.33621  -0.31963
 Alpha  occ. eigenvalues --   -0.27995  -0.27391  -0.26089  -0.25666
 Alpha virt. eigenvalues --    0.07462   0.09315   0.10096   0.10715   0.11424
 Alpha virt. eigenvalues --    0.12398   0.12587   0.14114   0.14787   0.15837
 Alpha virt. eigenvalues --    0.17042   0.18092   0.19135   0.21171   0.21548

 Mulliken charges:
               1
     1  O   -0.436257
     2  C    0.127737
     3  C   -0.260072
     4  C   -0.057865
     5  C   -0.037090
     6  C    0.073676
     7  C   -0.190369
     8  O   -0.240973
     9  C   -0.111978
    10  H    0.280878
    11  H    0.062553
    12  H    0.123661
    13  H    0.097547
    14  H    0.090475
    15  H    0.080602
    16  H    0.090026
    17  H    0.110717
    18  H    0.113301
    19  H    0.083431
 Sum of Mulliken charges =   0.00000

 Dipole moment (field-independent basis, Debye):
    X=             -0.3268    Y=             -2.4089    Z=              0.0175  Tot=              2.4310
 Quadrupole moment (field-independent basis, Debye-Ang):
   XX=            -60.9524   YY=            -49.8119   ZZ=            -51.2220
   XY=             -2.2061   XZ=             -1.3804   YZ=             -0.3848

  Exact polarizability:  94.225  -4.319  70.227   1.579  -0.641  65.895
 Approx polarizability: 117.664  -1.400 109.929   5.916  -1.102 100.956

                      1                      2                      3
                      A                      A                      A
 Frequencies --     68.2991               124.9745               152.3599
 Red. masses --      4.0001                 4.6884                 3.1547
 Frc consts  --      0.0110                 0.0431                 0.0431
 IR Inten    --      1.5171                 1.7355                 0.1893

                      4                      5                      6
                      A                      A                      A
 Frequencies --    194.2337               291.5108               325.3371
 Red. masses --      2.6275                 1.6047                 2.3737
 Frc consts  --      0.0584                 0.0803                 0.1480
 IR Inten    --      1.9910                66.3918                42.1837

                      7                      8                      9
                      A                      A                      A
 Frequencies --    376.9346               409.6482               473.7545
 Red. masses --      3.7509                 2.4439                 2.7161
 Frc consts  --      0.3140                 0.2416                 0.3592
 IR Inten    --      3.1165                 3.4023                 3.8278

                     10                     11                     12
                      A                      A                      A
 Frequencies --    502.7918               733.8777               814.2872
 Red. masses --      3.8973                 2.7114                 2.0129
 Frc consts  --      0.5805                 0.8604                 0.7864
 IR Inten    --     20.5476                 0.6958                 0.6924

                     13                     14                     15
                      A                      A                      A
 Frequencies --    834.0082               858.3441               881.1454
 Red. masses --      2.1446                 2.7680                 2.8181
 Frc consts  --      0.8789                 1.2015                 1.2891
 IR Inten    --      5.9028                43.5347                 2.5271

                     16                     17                     18
                      A                      A                      A
 Frequencies --    893.1091               940.4766               955.7313
 Red. masses --      2.5381                 2.2712                 2.2133
 Frc consts  --      1.1928                 1.1836                 1.1911
 IR Inten    --     18.6216                 2.5027                11.7807

                     19                     20                     21
                      A                      A                      A
 Frequencies --    985.4684               993.9049              1017.0217
 Red. masses --      1.7504                 2.6215                 1.4854
 Frc consts  --      1.0016                 1.5258                 0.9052
 IR Inten    --      3.1826                35.7743                 5.1538

                     22                     23                     24
                      A                      A                      A
 Frequencies --   1047.8369              1077.0691              1097.2153
 Red. masses --      2.1220                 1.3420                 1.3127
 Frc consts  --      1.3727                 0.9173                 0.9311
 IR Inten    --     21.6474                11.0288                 0.5233

                     25                     26                     27
                      A                      A                      A
 Frequencies --   1117.9476              1130.0119              1156.4629
 Red. masses --      1.5008                 1.9081                 1.3827
 Frc consts  --      1.1051                 1.4356                 1.0896
 IR Inten    --      8.5851                28.4725                 0.9799

                     28                     29                     30
                      A                      A                      A
 Frequencies --   1166.5596              1175.3281              1211.9700
 Red. masses --      1.4099                 1.5754                 1.9997
 Frc consts  --      1.1305                 1.2822                 1.7306
 IR Inten    --      7.5978                 7.0529                12.6801

                     31                     32                     33
                      A                      A                      A
 Frequencies --   1224.8577              1247.4200              1269.2566
 Red. masses --      1.4828                 1.4544                 1.4604
 Frc consts  --      1.3107                 1.3334                 1.3862
 IR Inten    --     29.8068                 6.4964                 2.6955

                     34                     35                     36
                      A                      A                      A
 Frequencies --   1277.5160              1295.4465              1320.9184
 Red. masses --      1.4514                 1.5134                 1.5310
 Frc consts  --      1.3956                 1.4964                 1.5739
 IR Inten    --      8.3437                 6.0429                86.3620

                     37                     38                     39
                      A                      A                      A
 Frequencies --   1365.0846              1422.4017              1473.5391
 Red. masses --      2.0953                 1.4733                 1.6610
 Frc consts  --      2.3004                 1.7563                 2.1249
 IR Inten    --      4.0986                 8.7700                10.9217

                     40                     41                     42
                      A                      A                      A
 Frequencies --   1481.3435              1533.1681              2981.2638
 Red. masses --      1.1806                 1.4833                 1.0844
 Frc consts  --      1.5264                 2.0543                 5.6788
 IR Inten    --      5.9963                 7.7682                68.1724

                     43                     44                     45
                      A                      A                      A
 Frequencies --   3055.3302              3076.9875              3084.7549
 Red. masses --      1.0625                 1.0516                 1.0857
 Frc consts  --      5.8439                 5.8660                 6.0871
 IR Inten    --     43.8708                29.4456                10.3641

                     46                     47                     48
                      A                      A                      A
 Frequencies --   3101.8540              3125.8199              3163.1204
 Red. masses --      1.0884                 1.1035                 1.1193
 Frc consts  --      6.1699                 6.3528                 6.5982
 IR Inten    --     23.6358                13.2168                29.4662

                     49                     50                     51
                      A                      A                      A
 Frequencies --   3166.2415              3181.8162              3809.8476
 Red. masses --      1.0892                 1.0957                 1.0660
 Frc consts  --      6.4337                 6.5359                 9.1162
 IR Inten    --     18.0500                15.2039                20.7853

 - Thermochemistry -
 -------------------
 Temperature   298.150 Kelvin.  Pressure   1.00000 Atm.
 Atom     1 has atomic number  8 and mass  15.99491

 Molecular mass:   126.06808 amu.
 Principal axes and moments of inertia in atomic units:
                           1         2         3
     Eigenvalues --   349.337552175.569612334.52929
           X            0.99987  -0.01561  -0.00324
           Y            0.01560   0.99987  -0.00276
           Z            0.00328   0.00271   0.99999
 This molecule is an asymmetric top.
 Rotational symmetry number  1.
 Rotational temperatures (Kelvin)      0.24794     0.03981     0.03710
 Rotational constants (GHZ):           5.16618     0.82955     0.77306
 Zero-point vibrational energy     416692.9 (Joules/Mol)
                                   99.59199 (Kcal/Mol)
 Warning -- explicit consideration of  10 degrees of freedom as
           vibrations may cause significant error
 Vibrational temperatures:     98.27   179.81   219.21   279.46   419.42
          (Kelvin)            468.09   542.32   589.39   681.63   723.40
                             1055.89  1171.58  1199.95  1234.96  1267.77
                             1284.98  1353.13  1375.08  1417.87  1430.01
                             1463.27  1507.60  1549.66  1578.65  1608.48
                             1625.83  1663.89  1678.42  1691.03  1743.75
                             1762.29  1794.76  1826.17  1838.06  1863.86
                             1900.50  1964.05  2046.52  2120.09  2131.32
                             2205.88  4289.37  4395.93  4427.09  4438.27
                             4462.87  4497.35  4551.02  4555.51  4577.92
                             5481.51

 Zero-point correction=                           0.158710 (Hartree/Particle)
 Thermal correction to Energy=                    0.167085
 Thermal correction to Enthalpy=                  0.168029
 Thermal correction to Gibbs Free Energy=         0.125310
 Sum of electronic and zero-point Energies=           -422.962069
 Sum of electronic and thermal Energies=              -422.953694
 Sum of electronic and thermal Enthalpies=            -422.952750
 Sum of electronic and thermal Free Energies=         -422.995470

                     E (Thermal)             CV                S
                      KCal/Mol        Cal/Mol-Kelvin    Cal/Mol-Kelvin
 Total                  104.847             31.774             89.911
 Electronic               0.000              0.000              0.000
 Translational            0.889              2.981             40.409
 Rotational               0.889              2.981             28.963
 Vibrational            103.070             25.813             20.539
 Vibration     1          0.598              1.969              4.202
 Vibration     2          0.610              1.928              3.022
 Vibration     3          0.619              1.900              2.643
 Vibration     4          0.635              1.848              2.187
 Vibration     5          0.687              1.690              1.465
 Vibration     6          0.709              1.625              1.283
 Vibration     7          0.747              1.519              1.051
 Vibration     8          0.774              1.449              0.928
 Vibration     9          0.831              1.308              0.727
 Vibration    10          0.858              1.244              0.651

 Optimization completed.
    -- Stationary point found.
 Normal termination of Gaussian 09 at Tue Jan 28 03:31:49 2020.
