 Gaussian 09, Revision D.01,
 Gaussian 09:  ES64L-G09RevD.01 24-Apr-2013

 -----------------------------
 # b3lyp 6-31G(2df,p) opt Freq
 -----------------------------

 -----
 titel
 -----
 Symbolic Z-matrix:
 Charge =  0 Multiplicity = 1

 SCF Done:  E(RB3LYP) =  -423.147939666     A.U. after   14 cycles
 Optimization completed.
    -- Stationary point found.
 Normal termination of Gaussian 09 at Tue Jan 28 02:53:14 2020.

 ----------------------------------------------------------------------
 #N Geom=AllCheck Guess=TCheck SCRF=Check GenChk RB3LYP/6-31G(2df,p) Fr
 eq
 ----------------------------------------------------------------------

 Structure from the checkpoint file:  "/scratch/puck/g09_5a951352-156d-4e28-8ec1-c24078ebfe56/Gau-196316.chk"
 -----
 titel
 -----
 Charge =  0 Multiplicity = 1

                         Standard orientation:
 ---------------------------------------------------------------------
 Center     Atomic      Atomic             Coordinates (Angstroms)
 Number     Number       Type             X           Y           Z
 ---------------------------------------------------------------------
      1          6           0       -2.456693    0.206311    0.907861
      2          6           0       -1.699898    0.122126   -0.401459
      3          8           0       -0.996924   -1.159165   -0.574346
      4          6           0        0.227408   -0.477603   -0.968805
      5          6           0        1.547093   -0.577289   -0.162406
      6          8           0        1.265154   -1.189212    1.079553
      7          6           0        1.895022    0.946692    0.007054
      8          6           0        0.516854    1.603224    0.105137
      9          6           0       -0.357342    0.812013   -0.503856
     10          1           0       -2.907083    1.197967    1.024235
     11          1           0       -3.257919   -0.538733    0.930204
     12          1           0       -1.775707    0.018476    1.741082
     13          1           0       -2.368081    0.287305   -1.258322
     14          1           0        0.410194   -0.609273   -2.044309
     15          1           0        2.337391   -1.121264   -0.700403
     16          1           0        2.072550   -1.174404    1.602949
     17          1           0        2.497412    1.111191    0.908629
     18          1           0        2.491549    1.312010   -0.840439
     19          1           0        0.319195    2.490897    0.693558
 ---------------------------------------------------------------------

 SCF Done:  E(RB3LYP) =  -423.147939666     A.U. after    1 cycles

 The electronic state is 1-A.
 Alpha  occ. eigenvalues --  -19.13590 -19.12924 -10.23929 -10.23555 -10.22202
 Alpha  occ. eigenvalues --  -10.19109 -10.18500 -10.17937 -10.17309  -1.03412
 Alpha  occ. eigenvalues --   -1.01429  -0.82638  -0.75515  -0.69700  -0.68613
 Alpha  occ. eigenvalues --   -0.61670  -0.57732  -0.52789  -0.50495  -0.49330
 Alpha  occ. eigenvalues --   -0.45150  -0.44097  -0.43305  -0.41312  -0.39276
 Alpha  occ. eigenvalues --   -0.37853  -0.36948  -0.36524  -0.33171  -0.31923
 Alpha  occ. eigenvalues --   -0.29778  -0.26948  -0.25007  -0.23475
 Alpha virt. eigenvalues --    0.00721   0.06968   0.08747   0.11111   0.12370
 Alpha virt. eigenvalues --    0.13138   0.14644   0.15396   0.16744   0.17361
 Alpha virt. eigenvalues --    0.17471   0.19022   0.19167   0.20911   0.21690

 Mulliken charges:
               1
     1  C   -0.398131
     2  C    0.075080
     3  O   -0.319749
     4  C    0.121314
     5  C    0.061189
     6  O   -0.418214
     7  C   -0.279911
     8  C   -0.203743
     9  C    0.178127
    10  H    0.115446
    11  H    0.127010
    12  H    0.138054
    13  H    0.081729
    14  H    0.075269
    15  H    0.058636
    16  H    0.283232
    17  H    0.097023
    18  H    0.108296
    19  H    0.099343
 Sum of Mulliken charges =   0.00000

 Dipole moment (field-independent basis, Debye):
    X=              1.5628    Y=              1.8037    Z=              0.2169  Tot=              2.3963
 Quadrupole moment (field-independent basis, Debye-Ang):
   XX=            -45.5005   YY=            -56.5543   ZZ=            -51.2591
   XY=             -2.8488   XZ=              1.5381   YZ=              0.7548

  Exact polarizability:  94.184   3.490  71.197   1.076   5.481  67.768
 Approx polarizability: 128.314  11.144 112.721   7.193  10.902 104.014

                      1                      2                      3
                      A                      A                      A
 Frequencies --     82.9977               146.0088               214.3833
 Red. masses --      3.8258                 2.8873                 1.2330
 Frc consts  --      0.0155                 0.0363                 0.0334
 IR Inten    --      2.1257                 0.2825                 2.7086

                      4                      5                      6
                      A                      A                      A
 Frequencies --    239.8453               258.2017               272.6465
 Red. masses --      2.4281                 1.6728                 1.7504
 Frc consts  --      0.0823                 0.0657                 0.0767
 IR Inten    --     13.0604                50.1610                42.6274

                      7                      8                      9
                      A                      A                      A
 Frequencies --    374.3528               392.4514               495.2329
 Red. masses --      3.1278                 2.4486                 2.8522
 Frc consts  --      0.2583                 0.2222                 0.4121
 IR Inten    --      7.3233                 0.2517                 8.0117

                     10                     11                     12
                      A                      A                      A
 Frequencies --    501.9658               644.6554               727.6532
 Red. masses --      4.5020                 3.9069                 4.2559
 Frc consts  --      0.6683                 0.9566                 1.3277
 IR Inten    --      4.3496                 5.0614                 3.9615

                     13                     14                     15
                      A                      A                      A
 Frequencies --    787.8001               823.3766               847.6682
 Red. masses --      2.2609                 3.0010                 3.3057
 Frc consts  --      0.8267                 1.1987                 1.3995
 IR Inten    --      6.7006                50.3020                 5.0634

                     16                     17                     18
                      A                      A                      A
 Frequencies --    854.2391               867.2053               894.9853
 Red. masses --      1.8583                 2.6734                 3.6055
 Frc consts  --      0.7990                 1.1846                 1.7016
 IR Inten    --     28.4952                 4.8447                 5.8012

                     19                     20                     21
                      A                      A                      A
 Frequencies --    928.1522               982.8733              1017.4811
 Red. masses --      1.9840                 2.2176                 4.5869
 Frc consts  --      1.0070                 1.2622                 2.7978
 IR Inten    --      8.0848                11.9034                90.4647

                     22                     23                     24
                      A                      A                      A
 Frequencies --   1052.6613              1067.6819              1082.2967
 Red. masses --      1.6612                 1.8634                 2.0281
 Frc consts  --      1.0845                 1.2515                 1.3997
 IR Inten    --      2.5185                14.1451                14.5744

                     25                     26                     27
                      A                      A                      A
 Frequencies --   1111.2387              1144.1561              1185.3417
 Red. masses --      2.0268                 2.1087                 1.4685
 Frc consts  --      1.4746                 1.6265                 1.2157
 IR Inten    --     26.8594                11.9780                37.8858

                     28                     29                     30
                      A                      A                      A
 Frequencies --   1191.4703              1232.6801              1264.8184
 Red. masses --      1.3987                 1.4601                 1.3839
 Frc consts  --      1.1699                 1.3072                 1.3044
 IR Inten    --      5.6604                 2.3352                22.9561

                     31                     32                     33
                      A                      A                      A
 Frequencies --   1273.6204              1309.6405              1342.1460
 Red. masses --      1.3419                 1.3936                 1.3450
 Frc consts  --      1.2825                 1.4083                 1.4275
 IR Inten    --      2.3321                 0.8831                25.5292

                     34                     35                     36
                      A                      A                      A
 Frequencies --   1348.2052              1384.4416              1400.0126
 Red. masses --      1.6723                 1.4045                 1.4003
 Frc consts  --      1.7910                 1.5861                 1.6171
 IR Inten    --      4.4443                 5.1627                15.2905

                     37                     38                     39
                      A                      A                      A
 Frequencies --   1426.7456              1474.1907              1479.8516
 Red. masses --      1.4723                 1.0963                 1.0517
 Frc consts  --      1.7658                 1.4037                 1.3569
 IR Inten    --      6.4693                 1.0229                 2.2351

                     40                     41                     42
                      A                      A                      A
 Frequencies --   1495.2048              1740.0514              2985.9690
 Red. masses --      1.0485                 8.6955                 1.0821
 Frc consts  --      1.3811                15.5120                 5.6846
 IR Inten    --      2.9645                 2.9891                21.3652

                     43                     44                     45
                      A                      A                      A
 Frequencies --   3000.5278              3006.7975              3017.3704
 Red. masses --      1.0823                 1.0789                 1.0722
 Frc consts  --      5.7409                 5.7469                 5.7513
 IR Inten    --     48.5837                76.5681               103.5551

                     46                     47                     48
                      A                      A                      A
 Frequencies --   3038.9571              3056.6084              3108.7782
 Red. masses --      1.0354                 1.0986                 1.1007
 Frc consts  --      5.6338                 6.0474                 6.2674
 IR Inten    --     16.3799                24.9605                16.3119

                     49                     50                     51
                      A                      A                      A
 Frequencies --   3134.2127              3204.2404              3818.6105
 Red. masses --      1.1023                 1.0953                 1.0662
 Frc consts  --      6.3795                 6.6257                 9.1598
 IR Inten    --     17.0023                 9.8823                20.3372

 - Thermochemistry -
 -------------------
 Temperature   298.150 Kelvin.  Pressure   1.00000 Atm.
 Atom     1 has atomic number  6 and mass  12.00000

 Molecular mass:   126.06808 amu.
 Principal axes and moments of inertia in atomic units:
                           1         2         3
     Eigenvalues --   647.519491223.951141398.94578
           X            0.99972  -0.00424  -0.02314
           Y            0.00529   0.99895   0.04549
           Z            0.02292  -0.04560   0.99870
 This molecule is an asymmetric top.
 Rotational symmetry number  1.
 Warning -- assumption of classical behavior for rotation
           may cause significant error
 Rotational temperatures (Kelvin)      0.13376     0.07077     0.06191
 Rotational constants (GHZ):           2.78716     1.47452     1.29007
 Zero-point vibrational energy     417094.2 (Joules/Mol)
                                   99.68790 (Kcal/Mol)
 Warning -- explicit consideration of  10 degrees of freedom as
           vibrations may cause significant error
 Vibrational temperatures:    119.42   210.07   308.45   345.08   371.49
          (Kelvin)            392.28   538.61   564.65   712.53   722.22
                              927.51  1046.93  1133.47  1184.65  1219.60
                             1229.06  1247.71  1287.68  1335.40  1414.13
                             1463.93  1514.54  1536.15  1557.18  1598.82
                             1646.18  1705.44  1714.26  1773.55  1819.79
                             1832.45  1884.28  1931.05  1939.76  1991.90
                             2014.30  2052.77  2121.03  2129.17  2151.26
                             2503.54  4296.14  4317.08  4326.11  4341.32
                             4372.38  4397.77  4472.83  4509.43  4610.18
                             5494.12

 Zero-point correction=                           0.158863 (Hartree/Particle)
 Thermal correction to Energy=                    0.167221
 Thermal correction to Enthalpy=                  0.168165
 Thermal correction to Gibbs Free Energy=         0.126079
 Sum of electronic and zero-point Energies=           -422.989077
 Sum of electronic and thermal Energies=              -422.980719
 Sum of electronic and thermal Enthalpies=            -422.979775
 Sum of electronic and thermal Free Energies=         -423.021860

                     E (Thermal)             CV                S
                      KCal/Mol        Cal/Mol-Kelvin    Cal/Mol-Kelvin
 Total                  104.933             32.193             88.577
 Electronic               0.000              0.000              0.000
 Translational            0.889              2.981             40.409
 Rotational               0.889              2.981             28.496
 Vibrational            103.155             26.231             19.672
 Vibration     1          0.600              1.961              3.819
 Vibration     2          0.617              1.907              2.724
 Vibration     3          0.644              1.819              2.006
 Vibration     4          0.657              1.779              1.804
 Vibration     5          0.667              1.749              1.674
 Vibration     6          0.676              1.724              1.579
 Vibration     7          0.745              1.525              1.062
 Vibration     8          0.760              1.486              0.991
 Vibration     9          0.851              1.261              0.670
 Vibration    10          0.857              1.246              0.653

 Normal termination of Gaussian 09 at Tue Jan 28 03:39:42 2020.
