 Gaussian 09, Revision D.01,
 Gaussian 09:  ES64L-G09RevD.01 24-Apr-2013

 -----------------------------
 # b3lyp 6-31G(2df,p) opt Freq
 -----------------------------

 -----
 titel
 -----
 Symbolic Z-matrix:
 Charge =  0 Multiplicity = 1

 SCF Done:  E(RB3LYP) =  -423.183149970     A.U. after   13 cycles
 Optimization completed.
    -- Stationary point found.
 Normal termination of Gaussian 09 at Mon Jan 27 18:54:08 2020.

 ----------------------------------------------------------------------
 #N Geom=AllCheck Guess=TCheck SCRF=Check GenChk RB3LYP/6-31G(2df,p) Fr
 eq
 ----------------------------------------------------------------------

 Structure from the checkpoint file:  "/scratch/puck/g09_466e629d-4e32-4a51-8230-02c6b697e679/Gau-49855.chk"
 -----
 titel
 -----
 Charge =  0 Multiplicity = 1

                         Standard orientation:
 ---------------------------------------------------------------------
 Center     Atomic      Atomic             Coordinates (Angstroms)
 Number     Number       Type             X           Y           Z
 ---------------------------------------------------------------------
      1          8           0        2.230540   -0.006981    0.536687
      2          6           0        0.895847    0.051972    0.087859
      3          6           0        0.517522    1.369571   -0.625483
      4          6           0       -1.026072    1.430864   -0.594305
      5          6           0       -1.428759    0.581148    0.615075
      6          6           0       -1.247378   -0.917515    0.486173
      7          8           0       -0.775379   -1.410430   -0.747394
      8          6           0        0.632473   -1.182712   -0.795927
      9          6           0       -0.200154   -0.111089    1.178007
     10          1           0        2.436140    0.824798    0.975539
     11          1           0        0.927016    2.201426   -0.036078
     12          1           0        0.942995    1.438275   -1.630983
     13          1           0       -1.385258    2.457469   -0.489512
     14          1           0       -1.456764    1.023067   -1.513986
     15          1           0       -2.217232    0.931439    1.272785
     16          1           0       -1.920776   -1.595028    1.000464
     17          1           0        1.186106   -2.038480   -0.383562
     18          1           0        0.919259   -1.041060   -1.841526
     19          1           0        0.066348   -0.196046    2.224121
 ---------------------------------------------------------------------

 SCF Done:  E(RB3LYP) =  -423.183149970     A.U. after    1 cycles

 The electronic state is 1-A.
 Alpha  occ. eigenvalues --  -19.14284 -19.13816 -10.24033 -10.22904 -10.22063
 Alpha  occ. eigenvalues --  -10.18791 -10.18339 -10.18314 -10.18296  -1.04422
 Alpha  occ. eigenvalues --   -1.02314  -0.86454  -0.77169  -0.72571  -0.65645
 Alpha  occ. eigenvalues --   -0.58818  -0.58468  -0.55032  -0.53091  -0.47805
 Alpha  occ. eigenvalues --   -0.46936  -0.44614  -0.43681  -0.41284  -0.40865
 Alpha  occ. eigenvalues --   -0.38329  -0.36606  -0.34989  -0.34207  -0.32302
 Alpha  occ. eigenvalues --   -0.29559  -0.27466  -0.26784  -0.23327
 Alpha virt. eigenvalues --    0.07030   0.08238   0.10414   0.11884   0.12748
 Alpha virt. eigenvalues --    0.14527   0.14578   0.16337   0.17352   0.18075
 Alpha virt. eigenvalues --    0.18530   0.19063   0.20779   0.21913   0.24084

 Mulliken charges:
               1
     1  O   -0.494090
     2  C    0.368643
     3  C   -0.254261
     4  C   -0.240643
     5  C   -0.087442
     6  C    0.097703
     7  O   -0.263696
     8  C   -0.095165
     9  C   -0.186686
    10  H    0.277562
    11  H    0.083873
    12  H    0.101832
    13  H    0.098807
    14  H    0.118082
    15  H    0.083743
    16  H    0.094885
    17  H    0.102858
    18  H    0.107010
    19  H    0.086984
 Sum of Mulliken charges =   0.00000

 Dipole moment (field-independent basis, Debye):
    X=              0.0509    Y=              1.9139    Z=              1.1437  Tot=              2.2301
 Quadrupole moment (field-independent basis, Debye-Ang):
   XX=            -54.5057   YY=            -52.7020   ZZ=            -51.2372
   XY=              1.5917   XZ=             -1.6256   YZ=             -0.2000

  Exact polarizability:  76.070  -1.409  73.642  -2.472  -0.678  68.347
 Approx polarizability: 110.158  -1.106 106.374   0.146   2.261 103.281

                      1                      2                      3
                      A                      A                      A
 Frequencies --    145.9576               242.0144               275.9659
 Red. masses --      2.3032                 3.1361                 1.1682
 Frc consts  --      0.0289                 0.1082                 0.0524
 IR Inten    --      1.7148                 3.7017                55.1762

                      4                      5                      6
                      A                      A                      A
 Frequencies --    315.0417               368.5481               413.8708
 Red. masses --      2.3706                 4.0222                 2.5389
 Frc consts  --      0.1386                 0.3219                 0.2562
 IR Inten    --     37.0714                 4.9095                 3.8923

                      7                      8                      9
                      A                      A                      A
 Frequencies --    507.3227               537.9634               595.9448
 Red. masses --      3.3913                 2.7355                 6.0083
 Frc consts  --      0.5143                 0.4664                 1.2572
 IR Inten    --      1.1835                 2.6716                 2.9625

                     10                     11                     12
                      A                      A                      A
 Frequencies --    684.4242               714.1792               775.4502
 Red. masses --      3.5772                 5.8957                 2.2642
 Frc consts  --      0.9873                 1.7717                 0.8022
 IR Inten    --      0.3047                 2.6757                14.7369

                     13                     14                     15
                      A                      A                      A
 Frequencies --    787.5022               799.1118               861.1493
 Red. masses --      2.5589                 1.6784                 1.9814
 Frc consts  --      0.9350                 0.6315                 0.8657
 IR Inten    --      7.9142                 4.3263                 0.7818

                     16                     17                     18
                      A                      A                      A
 Frequencies --    915.7738               940.0604               965.8427
 Red. masses --      1.5792                 2.2457                 3.2732
 Frc consts  --      0.7803                 1.1693                 1.7990
 IR Inten    --     15.2973                 3.9016                12.9291

                     19                     20                     21
                      A                      A                      A
 Frequencies --    970.2780              1018.2129              1040.4255
 Red. masses --      1.8182                 1.9294                 1.9023
 Frc consts  --      1.0085                 1.1786                 1.2133
 IR Inten    --      0.8454                 0.2756                 3.8701

                     22                     23                     24
                      A                      A                      A
 Frequencies --   1054.1686              1069.2662              1092.6315
 Red. masses --      2.2700                 2.6622                 1.3558
 Frc consts  --      1.4863                 1.7934                 0.9537
 IR Inten    --     87.3530                 6.1001                10.9018

                     25                     26                     27
                      A                      A                      A
 Frequencies --   1113.2719              1130.3179              1161.8056
 Red. masses --      1.8164                 3.0178                 1.8633
 Frc consts  --      1.3264                 2.2716                 1.4818
 IR Inten    --      5.0344                32.0768                49.1548

                     28                     29                     30
                      A                      A                      A
 Frequencies --   1175.9033              1195.8437              1229.7739
 Red. masses --      2.0691                 1.4156                 1.4488
 Frc consts  --      1.6857                 1.1927                 1.2910
 IR Inten    --     27.0286                 9.3482                 1.5947

                     31                     32                     33
                      A                      A                      A
 Frequencies --   1249.1985              1272.4507              1310.1169
 Red. masses --      1.4575                 1.7620                 1.2427
 Frc consts  --      1.3400                 1.6809                 1.2568
 IR Inten    --     11.1904                31.1424                 3.1859

                     34                     35                     36
                      A                      A                      A
 Frequencies --   1311.3001              1338.2707              1367.5818
 Red. masses --      1.3656                 1.6398                 1.6239
 Frc consts  --      1.3835                 1.7303                 1.7894
 IR Inten    --     12.5410                 9.2900                32.9274

                     37                     38                     39
                      A                      A                      A
 Frequencies --   1401.2715              1406.8757              1479.6947
 Red. masses --      2.1560                 1.6712                 1.0898
 Frc consts  --      2.4943                 1.9489                 1.4058
 IR Inten    --     19.7294                 6.9944                 2.1104

                     40                     41                     42
                      A                      A                      A
 Frequencies --   1495.3350              1512.9839              3004.3584
 Red. masses --      1.1033                 1.1044                 1.0663
 Frc consts  --      1.4535                 1.4895                 5.6705
 IR Inten    --      3.7340                 0.7339                58.6273

                     43                     44                     45
                      A                      A                      A
 Frequencies --   3012.9645              3055.7243              3083.7149
 Red. masses --      1.0680                 1.0619                 1.0946
 Frc consts  --      5.7122                 5.8418                 6.1326
 IR Inten    --     37.3232                27.7719                 9.2531

                     46                     47                     48
                      A                      A                      A
 Frequencies --   3093.7007              3102.4085              3159.6547
 Red. masses --      1.0973                 1.1045                 1.0890
 Frc consts  --      6.1879                 6.2634                 6.4056
 IR Inten    --     39.7334                29.9571                 9.9945

                     49                     50                     51
                      A                      A                      A
 Frequencies --   3167.3382              3189.0060              3814.5038
 Red. masses --      1.0906                 1.0955                 1.0660
 Frc consts  --      6.4462                 6.5643                 9.1384
 IR Inten    --     34.1086                13.1566                16.8349

 - Thermochemistry -
 -------------------
 Temperature   298.150 Kelvin.  Pressure   1.00000 Atm.
 Atom     1 has atomic number  8 and mass  15.99491

 Molecular mass:   126.06808 amu.
 Principal axes and moments of inertia in atomic units:
                           1         2         3
     Eigenvalues --   731.63054 919.337611140.98179
           X            0.99895  -0.03791  -0.02571
           Y            0.03687   0.99853  -0.03960
           Z            0.02717   0.03861   0.99888
 This molecule is an asymmetric top.
 Rotational symmetry number  1.
 Warning -- assumption of classical behavior for rotation
           may cause significant error
 Rotational temperatures (Kelvin)      0.11838     0.09421     0.07591
 Rotational constants (GHZ):           2.46674     1.96309     1.58174
 Zero-point vibrational energy     424234.5 (Joules/Mol)
                                  101.39449 (Kcal/Mol)
 Warning -- explicit consideration of   9 degrees of freedom as
           vibrations may cause significant error
 Vibrational temperatures:    210.00   348.20   397.05   453.27   530.26
          (Kelvin)            595.47   729.92   774.01   857.43   984.73
                             1027.54  1115.70  1133.04  1149.74  1239.00
                             1317.59  1352.54  1389.63  1396.01  1464.98
                             1496.94  1516.71  1538.43  1572.05  1601.75
                             1626.27  1671.58  1691.86  1720.55  1769.37
                             1797.32  1830.77  1884.96  1886.67  1925.47
                             1967.64  2016.11  2024.18  2128.95  2151.45
                             2176.84  4322.60  4334.98  4396.50  4436.77
                             4451.14  4463.67  4546.03  4557.09  4588.26
                             5488.21

 Zero-point correction=                           0.161582 (Hartree/Particle)
 Thermal correction to Energy=                    0.168708
 Thermal correction to Enthalpy=                  0.169652
 Thermal correction to Gibbs Free Energy=         0.130501
 Sum of electronic and zero-point Energies=           -423.021568
 Sum of electronic and thermal Energies=              -423.014442
 Sum of electronic and thermal Enthalpies=            -423.013498
 Sum of electronic and thermal Free Energies=         -423.052649

                     E (Thermal)             CV                S
                      KCal/Mol        Cal/Mol-Kelvin    Cal/Mol-Kelvin
 Total                  105.866             29.698             82.401
 Electronic               0.000              0.000              0.000
 Translational            0.889              2.981             40.409
 Rotational               0.889              2.981             28.131
 Vibrational            104.088             23.737             13.862
 Vibration     1          0.617              1.907              2.724
 Vibration     2          0.658              1.776              1.788
 Vibration     3          0.678              1.718              1.559
 Vibration     4          0.702              1.645              1.336
 Vibration     5          0.741              1.537              1.086
 Vibration     6          0.777              1.440              0.913
 Vibration     7          0.863              1.234              0.640
 Vibration     8          0.893              1.166              0.570
 Vibration     9          0.954              1.040              0.457

 Optimization completed.
    -- Stationary point found.
 Normal termination of Gaussian 09 at Mon Jan 27 19:38:37 2020.
