 Gaussian 09, Revision D.01,
 Gaussian 09:  ES64L-G09RevD.01 24-Apr-2013

 -----------------------------
 # b3lyp 6-31G(2df,p) opt Freq
 -----------------------------

 -----
 titel
 -----
 Symbolic Z-matrix:
 Charge =  0 Multiplicity = 1

 SCF Done:  E(RB3LYP) =  -423.172643718     A.U. after   14 cycles
 Optimization completed.
    -- Stationary point found.
 Normal termination of Gaussian 09 at Mon Jan 27 22:00:12 2020.

 ----------------------------------------------------------------------
 #N Geom=AllCheck Guess=TCheck SCRF=Check GenChk RB3LYP/6-31G(2df,p) Fr
 eq
 ----------------------------------------------------------------------

 Structure from the checkpoint file:  "/scratch/puck/g09_820b0028-4e73-4c1c-bc9f-5c448bada967/Gau-192443.chk"
 -----
 titel
 -----
 Charge =  0 Multiplicity = 1

                         Standard orientation:
 ---------------------------------------------------------------------
 Center     Atomic      Atomic             Coordinates (Angstroms)
 Number     Number       Type             X           Y           Z
 ---------------------------------------------------------------------
      1          6           0        2.525419   -0.040959    0.692663
      2          6           0        1.330897    0.195024   -0.227799
      3          6           0        0.133114    1.067312    0.296383
      4          6           0       -0.251871    2.273557   -0.552691
      5          6           0       -0.794185   -0.158859    0.154748
      6          6           0       -1.936967   -0.608374    0.965467
      7          8           0       -2.111755   -0.139174   -0.368356
      8          6           0        0.356101   -0.993860   -0.391067
      9          8           0        0.469134   -2.124510   -0.767057
     10          1           0        2.202043   -0.368811    1.686372
     11          1           0        3.179202   -0.815625    0.281228
     12          1           0        3.113857    0.873694    0.815265
     13          1           0        1.673055    0.534219   -1.213600
     14          1           0        0.268837    1.362087    1.342101
     15          1           0       -1.194704    2.709882   -0.209632
     16          1           0        0.520914    3.047127   -0.503341
     17          1           0       -0.384623    1.991105   -1.602148
     18          1           0       -2.099238   -1.675049    1.111384
     19          1           0       -2.313420    0.047800    1.749456
 ---------------------------------------------------------------------

 SCF Done:  E(RB3LYP) =  -423.172643718     A.U. after    1 cycles

 The electronic state is 1-A.
 Alpha  occ. eigenvalues --  -19.16997 -19.14318 -10.26896 -10.24828 -10.24726
 Alpha  occ. eigenvalues --  -10.20248 -10.20050 -10.18996 -10.18470  -1.09014
 Alpha  occ. eigenvalues --   -1.04878  -0.85343  -0.74335  -0.71458  -0.67312
 Alpha  occ. eigenvalues --   -0.61233  -0.59737  -0.52847  -0.50448  -0.48484
 Alpha  occ. eigenvalues --   -0.46207  -0.43988  -0.43224  -0.41861  -0.41012
 Alpha  occ. eigenvalues --   -0.40321  -0.38593  -0.37499  -0.35833  -0.34496
 Alpha  occ. eigenvalues --   -0.32927  -0.30549  -0.28933  -0.23922
 Alpha virt. eigenvalues --   -0.04024   0.08707   0.09529   0.10853   0.12041
 Alpha virt. eigenvalues --    0.12638   0.14074   0.14581   0.15019   0.16571
 Alpha virt. eigenvalues --    0.17159   0.17510   0.18308   0.18924   0.20842

 Mulliken charges:
               1
     1  C   -0.407398
     2  C   -0.122154
     3  C   -0.130966
     4  C   -0.397102
     5  C    0.335979
     6  C   -0.250875
     7  O   -0.255136
     8  C    0.333013
     9  O   -0.303758
    10  H    0.119920
    11  H    0.138108
    12  H    0.123311
    13  H    0.106352
    14  H    0.080964
    15  H    0.127444
    16  H    0.118021
    17  H    0.125161
    18  H    0.135708
    19  H    0.123408
 Sum of Mulliken charges =   0.00000

 Dipole moment (field-independent basis, Debye):
    X=              0.8408    Y=              2.2914    Z=              2.1268  Tot=              3.2374
 Quadrupole moment (field-independent basis, Debye-Ang):
   XX=            -53.3856   YY=            -57.7671   ZZ=            -51.8663
   XY=              2.2259   XZ=             -3.3055   YZ=             -3.1362

  Exact polarizability:  86.023   1.495  79.385  -5.294   0.247  65.199
 Approx polarizability: 116.690   0.432 115.908  -6.583   4.386 102.145

                      1                      2                      3
                      A                      A                      A
 Frequencies --     26.6140               167.4925               182.0599
 Red. masses --      3.9429                 3.9779                 2.7229
 Frc consts  --      0.0016                 0.0658                 0.0532
 IR Inten    --      0.9998                 2.7204                 2.2198

                      4                      5                      6
                      A                      A                      A
 Frequencies --    201.8986               206.7670               215.0887
 Red. masses --      1.1325                 1.1045                 2.3822
 Frc consts  --      0.0272                 0.0278                 0.0649
 IR Inten    --      0.2426                 0.1500                 1.4471

                      7                      8                      9
                      A                      A                      A
 Frequencies --    234.7485               247.2026               341.4846
 Red. masses --      3.9225                 3.8970                 3.2828
 Frc consts  --      0.1274                 0.1403                 0.2255
 IR Inten    --      2.7128                 1.5238                 2.1739

                     10                     11                     12
                      A                      A                      A
 Frequencies --    451.3188               530.4650               578.1199
 Red. masses --      3.1932                 4.6690                 3.4527
 Frc consts  --      0.3832                 0.7741                 0.6799
 IR Inten    --      0.6418                 1.4502                 2.1792

                     13                     14                     15
                      A                      A                      A
 Frequencies --    691.0363               734.6831               810.7983
 Red. masses --      4.1050                 4.0925                 2.2525
 Frc consts  --      1.1550                 1.3015                 0.8724
 IR Inten    --      3.7993                 5.8605                 8.0471

                     16                     17                     18
                      A                      A                      A
 Frequencies --    814.9557               879.1076               929.1043
 Red. masses --      1.9282                 2.8131                 3.8797
 Frc consts  --      0.7545                 1.2809                 1.9732
 IR Inten    --      1.1587                38.6343                19.0984

                     19                     20                     21
                      A                      A                      A
 Frequencies --    959.0643               985.8480              1038.2718
 Red. masses --      2.5173                 1.2812                 1.8411
 Frc consts  --      1.3642                 0.7337                 1.1693
 IR Inten    --     37.4613                 4.2137                 4.0563

                     22                     23                     24
                      A                      A                      A
 Frequencies --   1065.4700              1089.0800              1115.3134
 Red. masses --      1.6665                 2.7797                 1.7938
 Frc consts  --      1.1147                 1.9425                 1.3146
 IR Inten    --     16.3479                14.0379                 0.8829

                     25                     26                     27
                      A                      A                      A
 Frequencies --   1131.1794              1156.0550              1162.7493
 Red. masses --      1.2950                 2.0511                 1.5398
 Frc consts  --      0.9763                 1.6151                 1.2265
 IR Inten    --      2.5653                 6.7723                 0.4820

                     28                     29                     30
                      A                      A                      A
 Frequencies --   1175.2394              1233.6267              1244.2672
 Red. masses --      2.2380                 1.5577                 1.5240
 Frc consts  --      1.8213                 1.3967                 1.3901
 IR Inten    --     16.5333                 2.9033                 6.1837

                     31                     32                     33
                      A                      A                      A
 Frequencies --   1307.3790              1351.6324              1406.2236
 Red. masses --      1.5690                 1.6902                 1.3076
 Frc consts  --      1.5800                 1.8193                 1.5235
 IR Inten    --      6.8368                 2.8515                 3.6744

                     34                     35                     36
                      A                      A                      A
 Frequencies --   1409.8322              1421.5903              1493.8525
 Red. masses --      1.5639                 1.7552                 1.0463
 Frc consts  --      1.8314                 2.0899                 1.3757
 IR Inten    --      3.2706                 2.2391                 4.3412

                     37                     38                     39
                      A                      A                      A
 Frequencies --   1494.4751              1495.5032              1497.1384
 Red. masses --      1.0457                 1.0493                 1.0461
 Frc consts  --      1.3760                 1.3827                 1.3814
 IR Inten    --      6.2824                 3.9451                 4.1453

                     40                     41                     42
                      A                      A                      A
 Frequencies --   1516.8791              1886.6938              3034.0115
 Red. masses --      1.3660                12.8436                 1.0553
 Frc consts  --      1.8518                26.9364                 5.7237
 IR Inten    --      2.9357               209.5861                11.2286

                     43                     44                     45
                      A                      A                      A
 Frequencies --   3034.6192              3037.5280              3052.9349
 Red. masses --      1.0461                 1.0503                 1.0846
 Frc consts  --      5.6758                 5.7098                 5.9558
 IR Inten    --     16.3798                19.1829                18.8753

                     46                     47                     48
                      A                      A                      A
 Frequencies --   3082.2677              3102.5060              3106.9286
 Red. masses --      1.0491                 1.1017                 1.1018
 Frc consts  --      5.8724                 6.2481                 6.2666
 IR Inten    --     21.7681                21.9150                22.8980

                     49                     50                     51
                      A                      A                      A
 Frequencies --   3110.2874              3112.6992              3177.5076
 Red. masses --      1.1014                 1.1016                 1.1203
 Frc consts  --      6.2778                 6.2886                 6.6643
 IR Inten    --     18.0345                20.4726                12.9754

 - Thermochemistry -
 -------------------
 Temperature   298.150 Kelvin.  Pressure   1.00000 Atm.
 Atom     1 has atomic number  6 and mass  12.00000

 Molecular mass:   126.06808 amu.
 Principal axes and moments of inertia in atomic units:
                           1         2         3
     Eigenvalues --   864.605061131.338871640.31084
           X            0.99970   0.02463  -0.00109
           Y           -0.02465   0.99888  -0.04049
           Z            0.00009   0.04050   0.99918
 This molecule is an asymmetric top.
 Rotational symmetry number  1.
 Warning -- assumption of classical behavior for rotation
           may cause significant error
 Rotational temperatures (Kelvin)      0.10018     0.07656     0.05280
 Rotational constants (GHZ):           2.08736     1.59523     1.10024
 Zero-point vibrational energy     411106.3 (Joules/Mol)
                                   98.25675 (Kcal/Mol)
 Warning -- explicit consideration of  12 degrees of freedom as
           vibrations may cause significant error
 Vibrational temperatures:     38.29   240.98   261.94   290.49   297.49
          (Kelvin)            309.46   337.75   355.67   491.32   649.35
                              763.22   831.78   994.25  1057.04  1166.56
                             1172.54  1264.84  1336.77  1379.88  1418.41
                             1493.84  1532.97  1566.94  1604.69  1627.51
                             1663.30  1672.93  1690.91  1774.91  1790.22
                             1881.02  1944.70  2023.24  2028.43  2045.35
                             2149.32  2150.21  2151.69  2154.05  2182.45
                             2714.53  4365.26  4366.13  4370.32  4392.49
                             4434.69  4463.81  4470.17  4475.00  4478.47
                             4571.72

 Zero-point correction=                           0.156582 (Hartree/Particle)
 Thermal correction to Energy=                    0.165994
 Thermal correction to Enthalpy=                  0.166938
 Thermal correction to Gibbs Free Energy=         0.121738
 Sum of electronic and zero-point Energies=           -423.016062
 Sum of electronic and thermal Energies=              -423.006649
 Sum of electronic and thermal Enthalpies=            -423.005705
 Sum of electronic and thermal Free Energies=         -423.050905

                     E (Thermal)             CV                S
                      KCal/Mol        Cal/Mol-Kelvin    Cal/Mol-Kelvin
 Total                  104.163             34.100             95.132
 Electronic               0.000              0.000              0.000
 Translational            0.889              2.981             40.409
 Rotational               0.889              2.981             28.863
 Vibrational            102.386             28.138             25.860
 Vibration     1          0.593              1.984              6.067
 Vibration     2          0.624              1.882              2.463
 Vibration     3          0.630              1.864              2.307
 Vibration     4          0.639              1.837              2.116
 Vibration     5          0.641              1.830              2.072
 Vibration     6          0.645              1.818              2.000
 Vibration     7          0.655              1.788              1.842
 Vibration     8          0.661              1.767              1.750
 Vibration     9          0.721              1.593              1.205
 Vibration    10          0.810              1.358              0.792
 Vibration    11          0.885              1.183              0.586
 Vibration    12          0.935              1.079              0.489

 Optimization completed.
    -- Stationary point found.
 Normal termination of Gaussian 09 at Mon Jan 27 22:40:00 2020.
