 Gaussian 09, Revision D.01,
 Gaussian 09:  ES64L-G09RevD.01 24-Apr-2013

 -----------------------------
 # b3lyp 6-31G(2df,p) opt Freq
 -----------------------------

 -----
 titel
 -----
 Symbolic Z-matrix:
 Charge =  0 Multiplicity = 1

 SCF Done:  E(RB3LYP) =  -423.210281766     A.U. after   14 cycles
 Optimization completed.
    -- Stationary point found.
 Normal termination of Gaussian 09 at Mon Jan 27 16:26:33 2020.

 ----------------------------------------------------------------------
 #N Geom=AllCheck Guess=TCheck SCRF=Check GenChk RB3LYP/6-31G(2df,p) Fr
 eq
 ----------------------------------------------------------------------

 Structure from the checkpoint file:  "/scratch/puck/g09_beec916b-0415-43dc-9437-5a5c7347d2f5/Gau-39681.chk"
 -----
 titel
 -----
 Charge =  0 Multiplicity = 1

                         Standard orientation:
 ---------------------------------------------------------------------
 Center     Atomic      Atomic             Coordinates (Angstroms)
 Number     Number       Type             X           Y           Z
 ---------------------------------------------------------------------
      1          6           0        0.175813    2.131825   -0.267799
      2          6           0        0.076881    0.675289    0.152352
      3          6           0       -1.077699    0.328899    1.125706
      4          6           0       -1.654608   -0.422549   -0.068715
      5          8           0       -2.617455   -1.070830   -0.325764
      6          8           0       -0.614204   -0.107523   -0.905189
      7          6           0        1.421505    0.068337    0.475703
      8          6           0        2.294432   -0.494997   -0.615576
      9          6           0        1.665319   -1.416341    0.401545
     10          1           0        0.596977    2.731557    0.545667
     11          1           0        0.827613    2.233423   -1.139841
     12          1           0       -0.809024    2.534366   -0.520773
     13          1           0       -0.812122   -0.312416    1.967505
     14          1           0       -1.690064    1.163824    1.471009
     15          1           0        1.931328    0.600244    1.275178
     16          1           0        1.880763   -0.520225   -1.617364
     17          1           0        3.361777   -0.312035   -0.567355
     18          1           0        0.857563   -2.050525    0.055315
     19          1           0        2.298611   -1.864172    1.158973
 ---------------------------------------------------------------------

 SCF Done:  E(RB3LYP) =  -423.210281766     A.U. after    1 cycles

 The electronic state is 1-A.
 Alpha  occ. eigenvalues --  -19.17648 -19.13065 -10.30628 -10.26444 -10.20588
 Alpha  occ. eigenvalues --  -10.20354 -10.19230 -10.19201 -10.19192  -1.10176
 Alpha  occ. eigenvalues --   -1.02882  -0.86716  -0.78904  -0.73684  -0.65025
 Alpha  occ. eigenvalues --   -0.60614  -0.58195  -0.53550  -0.51491  -0.50278
 Alpha  occ. eigenvalues --   -0.47890  -0.47103  -0.43345  -0.42004  -0.41490
 Alpha  occ. eigenvalues --   -0.39346  -0.38802  -0.37008  -0.35867  -0.34758
 Alpha  occ. eigenvalues --   -0.30645  -0.29755  -0.29193  -0.27014
 Alpha virt. eigenvalues --    0.01305   0.07500   0.09071   0.10423   0.11765
 Alpha virt. eigenvalues --    0.11951   0.12545   0.14059   0.14545   0.15579
 Alpha virt. eigenvalues --    0.17739   0.17962   0.18729   0.21647   0.22511

 Mulliken charges:
               1
     1  C   -0.436803
     2  C    0.381673
     3  C   -0.464323
     4  C    0.445284
     5  O   -0.319934
     6  O   -0.275890
     7  C   -0.029103
     8  C   -0.269266
     9  C   -0.287147
    10  H    0.124570
    11  H    0.137914
    12  H    0.126249
    13  H    0.143217
    14  H    0.137839
    15  H    0.090402
    16  H    0.133552
    17  H    0.114413
    18  H    0.133381
    19  H    0.113970
 Sum of Mulliken charges =   0.00000

 Dipole moment (field-independent basis, Debye):
    X=              2.8123    Y=              2.2352    Z=              2.0891  Tot=              4.1556
 Quadrupole moment (field-independent basis, Debye-Ang):
   XX=            -58.9974   YY=            -52.7864   ZZ=            -52.7395
   XY=             -4.5614   XZ=             -1.8932   YZ=             -0.8485

  Exact polarizability:  84.986   2.952  74.061  -1.625   0.241  66.015
 Approx polarizability: 118.438  10.376 106.036  -1.609   2.730 103.433

                      1                      2                      3
                      A                      A                      A
 Frequencies --     78.2768                90.7737               195.8840
 Red. masses --      3.8717                 3.2350                 2.4912
 Frc consts  --      0.0140                 0.0157                 0.0563
 IR Inten    --      0.5913                 1.6711                 1.1252

                      4                      5                      6
                      A                      A                      A
 Frequencies --    229.9229               233.1054               315.7679
 Red. masses --      2.7168                 1.2265                 2.2588
 Frc consts  --      0.0846                 0.0393                 0.1327
 IR Inten    --      0.4350                 0.0584                 1.2128

                      7                      8                      9
                      A                      A                      A
 Frequencies --    358.8689               419.2324               503.1072
 Red. masses --      3.3935                 3.7439                 3.2771
 Frc consts  --      0.2575                 0.3877                 0.4887
 IR Inten    --      0.7843                 0.5592                 0.3147

                     10                     11                     12
                      A                      A                      A
 Frequencies --    528.5420               556.3654               599.6305
 Red. masses --      2.1639                 3.4629                 3.4402
 Frc consts  --      0.3562                 0.6316                 0.7288
 IR Inten    --      5.0442                 3.0182                 2.5924

                     13                     14                     15
                      A                      A                      A
 Frequencies --    777.6789               806.3123               827.4596
 Red. masses --      1.4340                 1.8482                 1.2439
 Frc consts  --      0.5110                 0.7079                 0.5018
 IR Inten    --      1.0048                 3.6982                10.1006

                     16                     17                     18
                      A                      A                      A
 Frequencies --    849.2195               859.9694               921.0490
 Red. masses --      3.3528                 2.9337                 1.9870
 Frc consts  --      1.4246                 1.2783                 0.9932
 IR Inten    --     51.2534                 9.7515                 6.9950

                     19                     20                     21
                      A                      A                      A
 Frequencies --    946.9779               966.0424               988.3624
 Red. masses --      3.7016                 4.0971                 2.2571
 Frc consts  --      1.9558                 2.2528                 1.2991
 IR Inten    --     14.9844                16.1735                 2.9231

                     22                     23                     24
                      A                      A                      A
 Frequencies --   1040.5256              1065.5532              1088.0488
 Red. masses --      1.6325                 1.3214                 1.5222
 Frc consts  --      1.0414                 0.8839                 1.0617
 IR Inten    --     33.6660                13.5202                 9.0144

                     25                     26                     27
                      A                      A                      A
 Frequencies --   1093.0378              1102.2388              1135.3361
 Red. masses --      1.3784                 2.0553                 1.1274
 Frc consts  --      0.9703                 1.4712                 0.8562
 IR Inten    --      0.7418                49.2510                 1.6493

                     28                     29                     30
                      A                      A                      A
 Frequencies --   1190.5654              1199.5306              1220.8177
 Red. masses --      1.7216                 1.3623                 2.7110
 Frc consts  --      1.4377                 1.1549                 2.3806
 IR Inten    --      5.7699                 3.6203                38.2835

                     31                     32                     33
                      A                      A                      A
 Frequencies --   1228.6478              1251.0679              1274.5426
 Red. masses --      2.0776                 3.2450                 2.0472
 Frc consts  --      1.8479                 2.9924                 1.9594
 IR Inten    --     37.2273                47.5467                30.1749

                     34                     35                     36
                      A                      A                      A
 Frequencies --   1410.5047              1412.1503              1449.8599
 Red. masses --      1.7999                 1.3029                 1.1138
 Frc consts  --      2.1099                 1.5308                 1.3794
 IR Inten    --      6.0662                 9.3600                14.1546

                     37                     38                     39
                      A                      A                      A
 Frequencies --   1461.8119              1485.5308              1493.2569
 Red. masses --      1.0876                 1.0626                 1.0530
 Frc consts  --      1.3693                 1.3816                 1.3834
 IR Inten    --      3.1701                 0.5699                 2.2358

                     40                     41                     42
                      A                      A                      A
 Frequencies --   1503.6921              1935.8841              3041.0746
 Red. masses --      1.4518                12.8645                 1.0352
 Frc consts  --      1.9341                28.4056                 5.6407
 IR Inten    --      0.6669               468.2471                11.5844

                     43                     44                     45
                      A                      A                      A
 Frequencies --   3087.1943              3113.3770              3123.2084
 Red. masses --      1.0592                 1.1009                 1.1026
 Frc consts  --      5.9478                 6.2871                 6.3365
 IR Inten    --      4.6191                12.8551                15.1040

                     46                     47                     48
                      A                      A                      A
 Frequencies --   3137.0399              3139.7010              3144.3657
 Red. masses --      1.0793                 1.0513                 1.0659
 Frc consts  --      6.2578                 6.1062                 6.2089
 IR Inten    --     14.3150                13.9484                 7.0734

                     49                     50                     51
                      A                      A                      A
 Frequencies --   3146.1599              3221.9443              3235.2943
 Red. masses --      1.1069                 1.1180                 1.1158
 Frc consts  --      6.4556                 6.8377                 6.8814
 IR Inten    --      3.5962                 0.4728                11.7228

 - Thermochemistry -
 -------------------
 Temperature   298.150 Kelvin.  Pressure   1.00000 Atm.
 Atom     1 has atomic number  6 and mass  12.00000

 Molecular mass:   126.06808 amu.
 Principal axes and moments of inertia in atomic units:
                           1         2         3
     Eigenvalues --   684.958491312.500311610.46720
           X            0.99912  -0.03941  -0.01435
           Y            0.03914   0.99906  -0.01873
           Z            0.01507   0.01815   0.99972
 This molecule is an asymmetric top.
 Rotational symmetry number  1.
 Warning -- assumption of classical behavior for rotation
           may cause significant error
 Rotational temperatures (Kelvin)      0.12645     0.06599     0.05378
 Rotational constants (GHZ):           2.63482     1.37504     1.12063
 Zero-point vibrational energy     415609.7 (Joules/Mol)
                                   99.33309 (Kcal/Mol)
 Warning -- explicit consideration of  12 degrees of freedom as
           vibrations may cause significant error
 Vibrational temperatures:    112.62   130.60   281.83   330.81   335.39
          (Kelvin)            454.32   516.33   603.18   723.86   760.45
                              800.48   862.73  1118.91  1160.10  1190.53
                             1221.84  1237.30  1325.18  1362.49  1389.92
                             1422.03  1497.08  1533.09  1565.46  1572.64
                             1585.87  1633.49  1712.96  1725.85  1756.48
                             1767.75  1800.01  1833.78  2029.40  2031.77
                             2086.02  2103.22  2137.34  2148.46  2163.47
                             2785.30  4375.42  4441.78  4479.45  4493.59
                             4513.50  4517.32  4524.04  4526.62  4635.65
                             4654.86

 Zero-point correction=                           0.158297 (Hartree/Particle)
 Thermal correction to Energy=                    0.166894
 Thermal correction to Enthalpy=                  0.167839
 Thermal correction to Gibbs Free Energy=         0.124912
 Sum of electronic and zero-point Energies=           -423.051984
 Sum of electronic and thermal Energies=              -423.043387
 Sum of electronic and thermal Enthalpies=            -423.042443
 Sum of electronic and thermal Free Energies=         -423.085370

                     E (Thermal)             CV                S
                      KCal/Mol        Cal/Mol-Kelvin    Cal/Mol-Kelvin
 Total                  104.728             32.817             90.347
 Electronic               0.000              0.000              0.000
 Translational            0.889              2.981             40.409
 Rotational               0.889              2.981             28.761
 Vibrational            102.950             26.855             21.177
 Vibration     1          0.600              1.964              3.934
 Vibration     2          0.602              1.956              3.643
 Vibration     3          0.636              1.846              2.171
 Vibration     4          0.652              1.795              1.880
 Vibration     5          0.654              1.790              1.855
 Vibration     6          0.703              1.644              1.332
 Vibration     7          0.734              1.557              1.127
 Vibration     8          0.782              1.428              0.895
 Vibration     9          0.858              1.243              0.650
 Vibration    10          0.883              1.187              0.590
 Vibration    11          0.912              1.126              0.531
 Vibration    12          0.958              1.033              0.450

 Optimization completed.
    -- Stationary point found.
 Normal termination of Gaussian 09 at Mon Jan 27 17:08:30 2020.
