 Gaussian 09, Revision D.01,
 Gaussian 09:  ES64L-G09RevD.01 24-Apr-2013

 -----------------------------
 # b3lyp 6-31G(2df,p) opt Freq
 -----------------------------

 -----
 titel
 -----
 Symbolic Z-matrix:
 Charge =  0 Multiplicity = 1

 SCF Done:  E(RB3LYP) =  -423.136579711     A.U. after   13 cycles
 Optimization completed.
    -- Stationary point found.
 Normal termination of Gaussian 09 at Tue Jan 28 09:18:50 2020.

 ----------------------------------------------------------------------
 #N Geom=AllCheck Guess=TCheck SCRF=Check GenChk RB3LYP/6-31G(2df,p) Fr
 eq
 ----------------------------------------------------------------------

 Structure from the checkpoint file:  "/scratch/puck/g09_415bbab5-be47-4f97-8184-f8f6f2a48e14/Gau-28614.chk"
 -----
 titel
 -----
 Charge =  0 Multiplicity = 1

                         Standard orientation:
 ---------------------------------------------------------------------
 Center     Atomic      Atomic             Coordinates (Angstroms)
 Number     Number       Type             X           Y           Z
 ---------------------------------------------------------------------
      1          6           0       -2.583092    0.616020   -0.127175
      2          8           0       -1.843569   -0.596696   -0.109454
      3          6           0       -0.491661   -0.423028    0.019703
      4          6           0        0.296281    0.086494    1.212763
      5          6           0        1.268482    1.194368    0.807963
      6          6           0        1.197527    1.211030   -0.748819
      7          6           0        0.576224   -0.139847   -1.079650
      8          8           0        1.442617   -1.183845   -0.513217
      9          6           0        0.555374   -1.298415    0.599316
     10          1           0       -3.639275    0.341993   -0.168408
     11          1           0       -2.395792    1.210360    0.777001
     12          1           0       -2.340474    1.227258   -1.007519
     13          1           0       -0.179501    0.079232    2.187657
     14          1           0        0.979013    2.156569    1.239905
     15          1           0        2.283909    0.974810    1.149935
     16          1           0        0.547785    2.016998   -1.111851
     17          1           0        2.179349    1.333681   -1.214144
     18          1           0        0.330045   -0.343886   -2.123047
     19          1           0        0.527750   -2.232418    1.147233
 ---------------------------------------------------------------------

 SCF Done:  E(RB3LYP) =  -423.136579711     A.U. after    1 cycles

 The electronic state is 1-A.
 Alpha  occ. eigenvalues --  -19.15656 -19.13222 -10.23387 -10.23289 -10.23262
 Alpha  occ. eigenvalues --  -10.23145 -10.18936 -10.18460 -10.18396  -1.06066
 Alpha  occ. eigenvalues --   -1.03606  -0.84106  -0.76961  -0.71191  -0.67999
 Alpha  occ. eigenvalues --   -0.60971  -0.56355  -0.53603  -0.53514  -0.48964
 Alpha  occ. eigenvalues --   -0.46580  -0.45311  -0.44100  -0.42027  -0.40344
 Alpha  occ. eigenvalues --   -0.38240  -0.36769  -0.35742  -0.34345  -0.33221
 Alpha  occ. eigenvalues --   -0.32858  -0.27374  -0.24469  -0.22591
 Alpha virt. eigenvalues --    0.08053   0.08465   0.10567   0.12349   0.12872
 Alpha virt. eigenvalues --    0.13691   0.14277   0.14717   0.16292   0.16480
 Alpha virt. eigenvalues --    0.17246   0.18338   0.18546   0.20574   0.21498

 Mulliken charges:
               1
     1  C   -0.258122
     2  O   -0.281571
     3  C    0.367800
     4  C   -0.166573
     5  C   -0.224868
     6  C   -0.214067
     7  C    0.019487
     8  O   -0.307538
     9  C    0.001444
    10  H    0.131389
    11  H    0.114732
    12  H    0.113507
    13  H    0.090624
    14  H    0.098179
    15  H    0.114125
    16  H    0.095798
    17  H    0.109816
    18  H    0.084735
    19  H    0.111102
 Sum of Mulliken charges =   0.00000

 Dipole moment (field-independent basis, Debye):
    X=             -1.1419    Y=              2.0110    Z=              0.5237  Tot=              2.3711
 Quadrupole moment (field-independent basis, Debye-Ang):
   XX=            -54.2215   YY=            -53.5709   ZZ=            -50.7570
   XY=             -0.5683   XZ=              0.6033   YZ=             -2.2349

  Exact polarizability:  78.194  -0.731  71.858   0.522  -2.022  71.186
 Approx polarizability: 108.820  -4.035 107.396   0.875  -1.245 106.346

                      1                      2                      3
                      A                      A                      A
 Frequencies --     82.1903               151.4214               174.3132
 Red. masses --      2.6788                 2.9072                 1.0987
 Frc consts  --      0.0107                 0.0393                 0.0197
 IR Inten    --      1.4810                 0.2629                 0.0265

                      4                      5                      6
                      A                      A                      A
 Frequencies --    212.9579               342.1488               374.0594
 Red. masses --      1.8785                 3.7500                 3.6908
 Frc consts  --      0.0502                 0.2586                 0.3043
 IR Inten    --      0.5505                 5.5432                 6.2144

                      7                      8                      9
                      A                      A                      A
 Frequencies --    405.7443               505.4758               587.3697
 Red. masses --      3.5130                 3.2055                 4.4219
 Frc consts  --      0.3407                 0.4826                 0.8988
 IR Inten    --      3.7139                 6.2057                10.5425

                     10                     11                     12
                      A                      A                      A
 Frequencies --    684.0935               710.4421               761.0619
 Red. masses --      3.2689                 3.4209                 3.7611
 Frc consts  --      0.9013                 1.0173                 1.2835
 IR Inten    --      1.0106                 0.2432                 8.3218

                     13                     14                     15
                      A                      A                      A
 Frequencies --    826.3463               856.2615               874.3621
 Red. masses --      2.0147                 2.1090                 2.2973
 Frc consts  --      0.8106                 0.9110                 1.0348
 IR Inten    --      4.8571                 5.5977                18.8935

                     16                     17                     18
                      A                      A                      A
 Frequencies --    902.5905               953.1196               971.3100
 Red. masses --      2.3357                 2.9506                 2.2074
 Frc consts  --      1.1211                 1.5793                 1.2270
 IR Inten    --     11.8377                 8.1707                17.3552

                     19                     20                     21
                      A                      A                      A
 Frequencies --   1003.2061              1015.9021              1036.9017
 Red. masses --      1.5452                 2.5007                 2.5452
 Frc consts  --      0.9163                 1.5206                 1.6123
 IR Inten    --      7.4697                20.6286                16.9909

                     22                     23                     24
                      A                      A                      A
 Frequencies --   1053.8310              1066.9945              1097.4432
 Red. masses --      2.6882                 2.3833                 3.0987
 Frc consts  --      1.7589                 1.5986                 2.1989
 IR Inten    --     27.2392                 6.8099                10.6943

                     25                     26                     27
                      A                      A                      A
 Frequencies --   1156.5407              1157.9600              1178.6611
 Red. masses --      1.8233                 1.3689                 1.2826
 Frc consts  --      1.4369                 1.0815                 1.0498
 IR Inten    --     13.7435                 2.0454                 2.6439

                     28                     29                     30
                      A                      A                      A
 Frequencies --   1193.1565              1224.6642              1253.0218
 Red. masses --      1.7792                 1.4775                 1.5817
 Frc consts  --      1.4924                 1.3056                 1.4632
 IR Inten    --     28.8162                 4.7636                19.4522

                     31                     32                     33
                      A                      A                      A
 Frequencies --   1266.6231              1279.0284              1288.7886
 Red. masses --      1.4282                 1.7755                 1.7417
 Frc consts  --      1.3500                 1.7114                 1.7045
 IR Inten    --     40.3185                 0.9426                41.6077

                     34                     35                     36
                      A                      A                      A
 Frequencies --   1331.4136              1340.1765              1445.9282
 Red. masses --      1.5259                 1.4649                 1.6797
 Frc consts  --      1.5937                 1.5502                 2.0690
 IR Inten    --     10.5151                 0.7559                50.9793

                     37                     38                     39
                      A                      A                      A
 Frequencies --   1472.0933              1488.7948              1499.0105
 Red. masses --      1.0899                 1.0844                 1.0988
 Frc consts  --      1.3916                 1.4162                 1.4547
 IR Inten    --      1.6810                10.1383                 1.5852

                     40                     41                     42
                      A                      A                      A
 Frequencies --   1503.6052              1509.7417              2996.4830
 Red. masses --      1.1521                 1.6446                 1.0350
 Frc consts  --      1.5347                 2.2086                 5.4755
 IR Inten    --     31.6393                15.6799                40.6377

                     43                     44                     45
                      A                      A                      A
 Frequencies --   3032.7037              3053.2398              3056.3314
 Red. masses --      1.0647                 1.1036                 1.0599
 Frc consts  --      5.7697                 6.0615                 5.8336
 IR Inten    --     26.3448                40.7400                39.9435

                     46                     47                     48
                      A                      A                      A
 Frequencies --   3087.4176              3102.9041              3106.6502
 Red. masses --      1.1006                 1.1025                 1.0912
 Frc consts  --      6.1810                 6.2543                 6.2051
 IR Inten    --      7.5698                39.2152                34.5834

                     49                     50                     51
                      A                      A                      A
 Frequencies --   3126.1746              3177.3281              3193.0837
 Red. masses --      1.0989                 1.0894                 1.0953
 Frc consts  --      6.3274                 6.4799                 6.5796
 IR Inten    --     26.9465                 5.1522                19.7568

 - Thermochemistry -
 -------------------
 Temperature   298.150 Kelvin.  Pressure   1.00000 Atm.
 Atom     1 has atomic number  6 and mass  12.00000

 Molecular mass:   126.06808 amu.
 Principal axes and moments of inertia in atomic units:
                           1         2         3
     Eigenvalues --   652.048681161.325061292.32241
           X            0.99998  -0.00001   0.00661
           Y            0.00038   0.99849  -0.05496
           Z           -0.00660   0.05496   0.99847
 This molecule is an asymmetric top.
 Rotational symmetry number  1.
 Warning -- assumption of classical behavior for rotation
           may cause significant error
 Rotational temperatures (Kelvin)      0.13283     0.07458     0.06702
 Rotational constants (GHZ):           2.76780     1.55404     1.39651
 Zero-point vibrational energy     419716.2 (Joules/Mol)
                                  100.31458 (Kcal/Mol)
 Warning -- explicit consideration of   9 degrees of freedom as
           vibrations may cause significant error
 Vibrational temperatures:    118.25   217.86   250.80   306.40   492.28
          (Kelvin)            538.19   583.77   727.27   845.09   984.26
                             1022.17  1095.00  1188.93  1231.97  1258.01
                             1298.62  1371.32  1397.50  1443.39  1461.65
                             1491.87  1516.23  1535.17  1578.97  1664.00
                             1666.04  1695.83  1716.68  1762.02  1802.82
                             1822.39  1840.23  1854.28  1915.60  1928.21
                             2080.37  2118.01  2142.04  2156.74  2163.35
                             2172.18  4311.27  4363.38  4392.93  4397.37
                             4442.10  4464.38  4469.77  4497.86  4571.46
                             4594.13

 Zero-point correction=                           0.159861 (Hartree/Particle)
 Thermal correction to Energy=                    0.167672
 Thermal correction to Enthalpy=                  0.168617
 Thermal correction to Gibbs Free Energy=         0.127438
 Sum of electronic and zero-point Energies=           -422.976718
 Sum of electronic and thermal Energies=              -422.968907
 Sum of electronic and thermal Enthalpies=            -422.967963
 Sum of electronic and thermal Free Energies=         -423.009141

                     E (Thermal)             CV                S
                      KCal/Mol        Cal/Mol-Kelvin    Cal/Mol-Kelvin
 Total                  105.216             30.281             86.667
 Electronic               0.000              0.000              0.000
 Translational            0.889              2.981             40.409
 Rotational               0.889              2.981             28.372
 Vibrational            103.439             24.319             17.886
 Vibration     1          0.600              1.961              3.838
 Vibration     2          0.619              1.901              2.654
 Vibration     3          0.627              1.874              2.388
 Vibration     4          0.644              1.821              2.018
 Vibration     5          0.721              1.591              1.202
 Vibration     6          0.745              1.525              1.063
 Vibration     7          0.771              1.458              0.942
 Vibration     8          0.861              1.238              0.645
 Vibration     9          0.945              1.059              0.472

 Optimization completed.
    -- Stationary point found.
 Normal termination of Gaussian 09 at Tue Jan 28 10:07:43 2020.
