 Gaussian 09, Revision D.01,
 Gaussian 09:  ES64L-G09RevD.01 24-Apr-2013

 -----------------------------
 # b3lyp 6-31G(2df,p) opt Freq
 -----------------------------

 -----
 titel
 -----
 Symbolic Z-matrix:
 Charge =  0 Multiplicity = 1

 SCF Done:  E(RB3LYP) =  -423.101137717     A.U. after   13 cycles
 Optimization completed.
    -- Stationary point found.
 Normal termination of Gaussian 09 at Tue Jan 28 13:28:29 2020.

 ----------------------------------------------------------------------
 #N Geom=AllCheck Guess=TCheck SCRF=Check GenChk RB3LYP/6-31G(2df,p) Fr
 eq
 ----------------------------------------------------------------------

 Structure from the checkpoint file:  "/scratch/puck/g09_119979a9-41b2-44c1-825f-8fe879461d94/Gau-31867.chk"
 -----
 titel
 -----
 Charge =  0 Multiplicity = 1

                         Standard orientation:
 ---------------------------------------------------------------------
 Center     Atomic      Atomic             Coordinates (Angstroms)
 Number     Number       Type             X           Y           Z
 ---------------------------------------------------------------------
      1          8           0       -2.771361    1.024794    0.055571
      2          6           0       -2.214886   -0.209590   -0.370447
      3          6           0       -1.059776   -0.630206    0.511437
      4          8           0       -0.202133   -1.677223   -0.024967
      5          6           0        0.327353   -0.386684    0.142330
      6          6           0        1.619430    0.005645    0.874248
      7          6           0        1.382116    1.432342    0.289486
      8          6           0        1.076264    0.465561   -0.897457
      9          6           0        2.351112   -0.330780   -0.466476
     10          1           0       -2.099805    1.704604   -0.062289
     11          1           0       -3.024107   -0.943810   -0.300943
     12          1           0       -1.880545   -0.181940   -1.417510
     13          1           0       -1.308797   -0.755830    1.566021
     14          1           0        1.924459   -0.257075    1.886484
     15          1           0        0.545865    2.005168    0.700916
     16          1           0        2.275320    2.050090    0.174574
     17          1           0        0.767909    0.727746   -1.909312
     18          1           0        2.392076   -1.382990   -0.752599
     19          1           0        3.305897    0.175754   -0.628903
 ---------------------------------------------------------------------

 SCF Done:  E(RB3LYP) =  -423.101137717     A.U. after    1 cycles

 The electronic state is 1-A.
 Alpha  occ. eigenvalues --  -19.15081 -19.14225 -10.24729 -10.23376 -10.23237
 Alpha  occ. eigenvalues --  -10.20931 -10.20774 -10.20081 -10.19616  -1.07370
 Alpha  occ. eigenvalues --   -1.02177  -0.91619  -0.72824  -0.67392  -0.64790
 Alpha  occ. eigenvalues --   -0.64086  -0.60816  -0.53286  -0.51945  -0.50864
 Alpha  occ. eigenvalues --   -0.48235  -0.45061  -0.43995  -0.43179  -0.40035
 Alpha  occ. eigenvalues --   -0.36305  -0.34922  -0.33870  -0.33352  -0.33098
 Alpha  occ. eigenvalues --   -0.32302  -0.28692  -0.27954  -0.25808
 Alpha virt. eigenvalues --    0.04993   0.10222   0.10918   0.11804   0.12259
 Alpha virt. eigenvalues --    0.12886   0.13426   0.15121   0.15608   0.16458
 Alpha virt. eigenvalues --    0.16636   0.17835   0.18156   0.19257   0.20081

 Mulliken charges:
               1
     1  O   -0.412005
     2  C   -0.098063
     3  C   -0.150905
     4  O   -0.324144
     5  C    0.567840
     6  C   -0.146564
     7  C   -0.222641
     8  C   -0.156527
     9  C   -0.225190
    10  H    0.286000
    11  H    0.120492
    12  H    0.097261
    13  H    0.100758
    14  H    0.083657
    15  H    0.087395
    16  H    0.101133
    17  H    0.081467
    18  H    0.115832
    19  H    0.094203
 Sum of Mulliken charges =   0.00000

 Dipole moment (field-independent basis, Debye):
    X=              1.4829    Y=              1.5263    Z=             -0.0732  Tot=              2.1293
 Quadrupole moment (field-independent basis, Debye-Ang):
   XX=            -56.8594   YY=            -55.1305   ZZ=            -51.8864
   XY=              2.4914   XZ=              0.6959   YZ=             -1.1307

  Exact polarizability:  89.826   2.683  71.573  -2.064   0.369  66.275
 Approx polarizability: 118.234   1.355 112.196  -4.181   1.991 102.418

                      1                      2                      3
                      A                      A                      A
 Frequencies --     56.2461               127.4938               171.8408
 Red. masses --      4.0167                 3.5140                 2.4489
 Frc consts  --      0.0075                 0.0337                 0.0426
 IR Inten    --      1.8064                 0.2988                 2.4861

                      4                      5                      6
                      A                      A                      A
 Frequencies --    215.8766               326.1451               364.9752
 Red. masses --      2.8975                 1.1966                 4.2044
 Frc consts  --      0.0796                 0.0750                 0.3300
 IR Inten    --      4.4185                98.4531                18.4961

                      7                      8                      9
                      A                      A                      A
 Frequencies --    410.0058               473.0722               506.8517
 Red. masses --      3.2901                 4.0434                 3.1000
 Frc consts  --      0.3259                 0.5332                 0.4692
 IR Inten    --      2.7680                 3.4924                 1.8355

                     10                     11                     12
                      A                      A                      A
 Frequencies --    612.7651               620.1758               785.4011
 Red. masses --      2.4717                 3.5844                 2.9030
 Frc consts  --      0.5468                 0.8123                 1.0551
 IR Inten    --      1.5273                12.1304                 0.0085

                     13                     14                     15
                      A                      A                      A
 Frequencies --    796.8266               857.4382               893.2269
 Red. masses --      2.9795                 3.2314                 1.9760
 Frc consts  --      1.1146                 1.3998                 0.9289
 IR Inten    --      0.0874                21.2200                 0.5992

                     16                     17                     18
                      A                      A                      A
 Frequencies --    904.1948               925.0324               965.4457
 Red. masses --      2.3511                 2.1254                 2.5251
 Frc consts  --      1.1325                 1.0715                 1.3867
 IR Inten    --      1.5502                 9.3491                42.4102

                     19                     20                     21
                      A                      A                      A
 Frequencies --    997.2362              1018.2335              1043.2475
 Red. masses --      1.4522                 1.0159                 1.4580
 Frc consts  --      0.8509                 0.6206                 0.9349
 IR Inten    --     17.1629                 0.2511                18.6474

                     22                     23                     24
                      A                      A                      A
 Frequencies --   1063.5322              1075.2334              1079.1746
 Red. masses --      3.1681                 2.0774                 1.7636
 Frc consts  --      2.1113                 1.4151                 1.2101
 IR Inten    --     31.3370                47.8869                13.9794

                     25                     26                     27
                      A                      A                      A
 Frequencies --   1086.1947              1105.4292              1123.7454
 Red. masses --      1.7655                 2.0242                 3.5809
 Frc consts  --      1.2273                 1.4573                 2.6642
 IR Inten    --      0.2429                 5.9731                 1.0150

                     28                     29                     30
                      A                      A                      A
 Frequencies --   1150.7585              1184.2738              1193.5483
 Red. masses --      1.6041                 1.4433                 1.3677
 Frc consts  --      1.2515                 1.1926                 1.1479
 IR Inten    --      2.2456                 1.7342                 0.3395

                     31                     32                     33
                      A                      A                      A
 Frequencies --   1208.2143              1233.4140              1240.6481
 Red. masses --      1.3072                 1.5842                 1.7075
 Frc consts  --      1.1243                 1.4200                 1.5484
 IR Inten    --     17.7110                 1.3191                 1.7633

                     34                     35                     36
                      A                      A                      A
 Frequencies --   1250.9500              1330.2004              1374.3934
 Red. masses --      1.7373                 1.3517                 1.2846
 Frc consts  --      1.6017                 1.4092                 1.4297
 IR Inten    --     10.0996                19.2709                15.2403

                     37                     38                     39
                      A                      A                      A
 Frequencies --   1415.1560              1492.2207              1504.7373
 Red. masses --      1.2634                 1.0973                 1.0968
 Frc consts  --      1.4907                 1.4397                 1.4631
 IR Inten    --     41.9839                 0.2954                 2.3154

                     40                     41                     42
                      A                      A                      A
 Frequencies --   1514.7604              1558.9803              3005.2623
 Red. masses --      1.3952                 2.9200                 1.0666
 Frc consts  --      1.8862                 4.1813                 5.6756
 IR Inten    --      5.2977                31.6106                33.5644

                     43                     44                     45
                      A                      A                      A
 Frequencies --   3050.8732              3062.5536              3078.1829
 Red. masses --      1.0554                 1.0550                 1.0950
 Frc consts  --      5.7877                 5.8298                 6.1132
 IR Inten    --     45.4145                41.3519                24.6378

                     46                     47                     48
                      A                      A                      A
 Frequencies --   3108.8876              3118.3449              3121.8507
 Red. masses --      1.0895                 1.0925                 1.1074
 Frc consts  --      6.2039                 6.2590                 6.3589
 IR Inten    --     24.7984                58.5315                37.5085

                     49                     50                     51
                      A                      A                      A
 Frequencies --   3126.5050              3136.9460              3811.9608
 Red. masses --      1.0949                 1.1106                 1.0662
 Frc consts  --      6.3057                 6.4390                 9.1282
 IR Inten    --     25.4107                25.6134                10.8519

 - Thermochemistry -
 -------------------
 Temperature   298.150 Kelvin.  Pressure   1.00000 Atm.
 Atom     1 has atomic number  8 and mass  15.99491

 Molecular mass:   126.06808 amu.
 Principal axes and moments of inertia in atomic units:
                           1         2         3
     Eigenvalues --   547.981111493.454371749.43847
           X            0.99990   0.01409   0.00209
           Y           -0.01409   0.99990   0.00085
           Z           -0.00207  -0.00088   1.00000
 This molecule is an asymmetric top.
 Rotational symmetry number  1.
 Warning -- assumption of classical behavior for rotation
           may cause significant error
 Rotational temperatures (Kelvin)      0.15806     0.05800     0.04951
 Rotational constants (GHZ):           3.29344     1.20843     1.03161
 Zero-point vibrational energy     417967.2 (Joules/Mol)
                                   99.89656 (Kcal/Mol)
 Warning -- explicit consideration of  11 degrees of freedom as
           vibrations may cause significant error
 Vibrational temperatures:     80.93   183.43   247.24   310.60   469.25
          (Kelvin)            525.12   589.91   680.64   729.25   881.63
                              892.29  1130.02  1146.45  1233.66  1285.15
                             1300.93  1330.91  1389.06  1434.80  1465.01
                             1501.00  1530.18  1547.02  1552.69  1562.79
                             1590.46  1616.82  1655.68  1703.90  1717.25
                             1738.35  1774.61  1785.01  1799.84  1913.86
                             1977.44  2036.09  2146.97  2164.98  2179.40
                             2243.02  4323.90  4389.52  4406.33  4428.81
                             4472.99  4486.60  4491.64  4498.34  4513.36
                             5484.55

 Zero-point correction=                           0.159195 (Hartree/Particle)
 Thermal correction to Energy=                    0.167317
 Thermal correction to Enthalpy=                  0.168261
 Thermal correction to Gibbs Free Energy=         0.126067
 Sum of electronic and zero-point Energies=           -422.941942
 Sum of electronic and thermal Energies=              -422.933820
 Sum of electronic and thermal Enthalpies=            -422.932876
 Sum of electronic and thermal Free Energies=         -422.975071

                     E (Thermal)             CV                S
                      KCal/Mol        Cal/Mol-Kelvin    Cal/Mol-Kelvin
 Total                  104.993             31.335             88.806
 Electronic               0.000              0.000              0.000
 Translational            0.889              2.981             40.409
 Rotational               0.889              2.981             28.750
 Vibrational            103.216             25.374             19.647
 Vibration     1          0.596              1.975              4.585
 Vibration     2          0.611              1.926              2.984
 Vibration     3          0.626              1.877              2.415
 Vibration     4          0.645              1.817              1.993
 Vibration     5          0.710              1.623              1.279
 Vibration     6          0.738              1.544              1.101
 Vibration     7          0.774              1.449              0.927
 Vibration     8          0.830              1.310              0.729
 Vibration     9          0.862              1.235              0.641
 Vibration    10          0.972              1.005              0.428
 Vibration    11          0.980              0.989              0.416

 Normal termination of Gaussian 09 at Tue Jan 28 14:10:38 2020.
