 Gaussian 09, Revision D.01,
 Gaussian 09:  ES64L-G09RevD.01 24-Apr-2013

 -----------------------------
 # b3lyp 6-31G(2df,p) opt Freq
 -----------------------------

 -----
 titel
 -----
 Symbolic Z-matrix:
 Charge =  0 Multiplicity = 1

 SCF Done:  E(RB3LYP) =  -423.178853758     A.U. after   13 cycles
 Optimization completed.
    -- Stationary point found.
 Normal termination of Gaussian 09 at Mon Jan 27 12:47:17 2020.

 ----------------------------------------------------------------------
 #N Geom=AllCheck Guess=TCheck SCRF=Check GenChk RB3LYP/6-31G(2df,p) Fr
 eq
 ----------------------------------------------------------------------

 Structure from the checkpoint file:  "/scratch/puck/g09_bf1ac511-1cb1-4c49-a507-c78343859698/Gau-99242.chk"
 -----
 titel
 -----
 Charge =  0 Multiplicity = 1

                         Standard orientation:
 ---------------------------------------------------------------------
 Center     Atomic      Atomic             Coordinates (Angstroms)
 Number     Number       Type             X           Y           Z
 ---------------------------------------------------------------------
      1          6           0       -1.723693    0.307793   -0.768100
      2          8           0       -0.777885    1.340474   -0.514579
      3          6           0        0.030480    1.071256    0.635972
      4          6           0        1.509256    1.043832    0.197207
      5          6           0        1.908559   -0.342495   -0.355581
      6          8           0        0.776028   -1.093637   -0.798380
      7          6           0       -0.087864   -1.391704    0.255475
      8          6           0       -1.469607   -0.796267    0.239167
      9          6           0       -0.429702   -0.267873    1.198139
     10          1           0       -2.745583    0.696899   -0.655482
     11          1           0       -1.595123   -0.032058   -1.803213
     12          1           0       -0.123923    1.874162    1.367784
     13          1           0        1.638637    1.821702   -0.559881
     14          1           0        2.153239    1.301893    1.045489
     15          1           0        2.562815   -0.253831   -1.225883
     16          1           0        2.447234   -0.919175    0.410471
     17          1           0        0.029582   -2.396181    0.661109
     18          1           0       -2.303182   -1.399270    0.579726
     19          1           0       -0.473414   -0.416092    2.269885
 ---------------------------------------------------------------------

 SCF Done:  E(RB3LYP) =  -423.178853758     A.U. after    1 cycles

 The electronic state is 1-A.
 Alpha  occ. eigenvalues --  -19.14149 -19.12651 -10.23390 -10.23361 -10.22630
 Alpha  occ. eigenvalues --  -10.22318 -10.19316 -10.19181 -10.17791  -1.04560
 Alpha  occ. eigenvalues --   -1.01782  -0.85462  -0.78073  -0.71187  -0.63937
 Alpha  occ. eigenvalues --   -0.63047  -0.58117  -0.53868  -0.52275  -0.48312
 Alpha  occ. eigenvalues --   -0.46610  -0.45030  -0.44223  -0.42964  -0.41611
 Alpha  occ. eigenvalues --   -0.37874  -0.37778  -0.35005  -0.33880  -0.31121
 Alpha  occ. eigenvalues --   -0.29887  -0.26847  -0.26160  -0.23156
 Alpha virt. eigenvalues --    0.08036   0.09765   0.11743   0.11893   0.13067
 Alpha virt. eigenvalues --    0.14183   0.14907   0.15969   0.16243   0.17352
 Alpha virt. eigenvalues --    0.18477   0.18831   0.19730   0.20831   0.22488

 Mulliken charges:
               1
     1  C   -0.083066
     2  O   -0.277855
     3  C    0.117733
     4  C   -0.235605
     5  C   -0.065002
     6  O   -0.247032
     7  C    0.087955
     8  C   -0.109631
     9  C   -0.143462
    10  H    0.092786
    11  H    0.110700
    12  H    0.074351
    13  H    0.116930
    14  H    0.093053
    15  H    0.111028
    16  H    0.089569
    17  H    0.083648
    18  H    0.093020
    19  H    0.090881
 Sum of Mulliken charges =   0.00000

 Dipole moment (field-independent basis, Debye):
    X=              0.1530    Y=             -0.6443    Z=              1.8859  Tot=              1.9988
 Quadrupole moment (field-independent basis, Debye-Ang):
   XX=            -49.0154   YY=            -55.0232   ZZ=            -52.7120
   XY=              2.6872   XZ=              0.1287   YZ=             -0.6457

  Exact polarizability:  82.638   2.839  70.564   1.868  -0.179  67.373
 Approx polarizability: 111.140   3.427 102.788   3.705   1.376 104.688

                      1                      2                      3
                      A                      A                      A
 Frequencies --    101.8765               143.3223               265.4486
 Red. masses --      3.1357                 2.0547                 3.4318
 Frc consts  --      0.0192                 0.0249                 0.1425
 IR Inten    --      3.9134                 0.5915                 4.9541

                      4                      5                      6
                      A                      A                      A
 Frequencies --    333.5992               443.5371               500.6532
 Red. masses --      2.9834                 3.8684                 3.5599
 Frc consts  --      0.1956                 0.4484                 0.5257
 IR Inten    --      2.4877                 4.4659                 0.6805

                      7                      8                      9
                      A                      A                      A
 Frequencies --    554.6231               659.0413               743.4778
 Red. masses --      4.9279                 4.8662                 5.2456
 Frc consts  --      0.8931                 1.2453                 1.7084
 IR Inten    --      3.8297                 2.5764                 3.2788

                     10                     11                     12
                      A                      A                      A
 Frequencies --    769.9890               781.0700               801.7196
 Red. masses --      1.7993                 2.2975                 1.6729
 Frc consts  --      0.6285                 0.8258                 0.6335
 IR Inten    --      1.9388                 3.6539                 8.7218

                     13                     14                     15
                      A                      A                      A
 Frequencies --    830.8687               895.3736               910.1585
 Red. masses --      3.6970                 3.5960                 2.4693
 Frc consts  --      1.5037                 1.6986                 1.2052
 IR Inten    --      4.9657                 3.4852                 9.0882

                     16                     17                     18
                      A                      A                      A
 Frequencies --    945.5143               970.1780               985.2399
 Red. masses --      2.3777                 1.6305                 2.6215
 Frc consts  --      1.2524                 0.9042                 1.4993
 IR Inten    --     11.5812                18.7623                 7.2047

                     19                     20                     21
                      A                      A                      A
 Frequencies --   1037.7168              1046.6120              1058.9154
 Red. masses --      1.6302                 2.4425                 2.0341
 Frc consts  --      1.0343                 1.5764                 1.3438
 IR Inten    --      7.4390                 8.8114                37.0058

                     22                     23                     24
                      A                      A                      A
 Frequencies --   1070.6452              1085.5713              1101.4769
 Red. masses --      2.9318                 3.0068                 1.4403
 Frc consts  --      1.9800                 2.0877                 1.0296
 IR Inten    --     12.5987                12.4345                12.7611

                     25                     26                     27
                      A                      A                      A
 Frequencies --   1121.4191              1145.4447              1200.0241
 Red. masses --      1.6223                 2.9063                 1.9159
 Frc consts  --      1.2021                 2.2467                 1.6256
 IR Inten    --      8.5168                90.9551                40.1499

                     28                     29                     30
                      A                      A                      A
 Frequencies --   1229.2696              1255.4952              1287.7465
 Red. masses --      1.0971                 1.2147                 1.6780
 Frc consts  --      0.9768                 1.1281                 1.6395
 IR Inten    --      3.0778                 2.6504                33.1211

                     31                     32                     33
                      A                      A                      A
 Frequencies --   1309.7294              1316.3336              1341.3869
 Red. masses --      1.3111                 1.4063                 1.2811
 Frc consts  --      1.3251                 1.4357                 1.3581
 IR Inten    --      0.3046                 2.8035                 3.6083

                     34                     35                     36
                      A                      A                      A
 Frequencies --   1353.2825              1368.8960              1384.1305
 Red. masses --      1.3548                 1.9644                 1.3618
 Frc consts  --      1.4618                 2.1688                 1.5372
 IR Inten    --      8.6838                 9.1887                11.6244

                     37                     38                     39
                      A                      A                      A
 Frequencies --   1413.0180              1437.7676              1479.4291
 Red. masses --      1.3041                 1.9515                 1.0846
 Frc consts  --      1.5342                 2.3768                 1.3986
 IR Inten    --      9.5185                10.3708                 1.9477

                     40                     41                     42
                      A                      A                      A
 Frequencies --   1508.5406              1520.0904              2994.0323
 Red. masses --      1.0958                 1.0904                 1.0710
 Frc consts  --      1.4693                 1.4845                 5.6565
 IR Inten    --      1.8134                 0.4280                64.3508

                     43                     44                     45
                      A                      A                      A
 Frequencies --   2999.1750              3015.1994              3043.8969
 Red. masses --      1.0637                 1.0842                 1.0999
 Frc consts  --      5.6371                 5.8077                 6.0044
 IR Inten    --     80.7010                45.8008                36.4029

                     46                     47                     48
                      A                      A                      A
 Frequencies --   3047.0494              3089.9557              3103.8281
 Red. masses --      1.0651                 1.0957                 1.0884
 Frc consts  --      5.8262                 6.1636                 6.1777
 IR Inten    --     47.2362                13.3859                47.1797

                     49                     50                     51
                      A                      A                      A
 Frequencies --   3107.0589              3179.2123              3189.9943
 Red. masses --      1.0983                 1.0893                 1.0943
 Frc consts  --      6.2470                 6.4866                 6.5612
 IR Inten    --     27.2226                11.6423                14.8051

 - Thermochemistry -
 -------------------
 Temperature   298.150 Kelvin.  Pressure   1.00000 Atm.
 Atom     1 has atomic number  6 and mass  12.00000

 Molecular mass:   126.06808 amu.
 Principal axes and moments of inertia in atomic units:
                           1         2         3
     Eigenvalues --   672.45168 899.715081131.82153
           X            0.99784   0.06489   0.00992
           Y           -0.06476   0.99782  -0.01298
           Z           -0.01075   0.01231   0.99987
 This molecule is an asymmetric top.
 Rotational symmetry number  1.
 Warning -- assumption of classical behavior for rotation
           may cause significant error
 Rotational temperatures (Kelvin)      0.12880     0.09627     0.07653
 Rotational constants (GHZ):           2.68382     2.00590     1.59455
 Zero-point vibrational energy     427533.6 (Joules/Mol)
                                  102.18298 (Kcal/Mol)
 Warning -- explicit consideration of   7 degrees of freedom as
           vibrations may cause significant error
 Vibrational temperatures:    146.58   206.21   381.92   479.97   638.15
          (Kelvin)            720.33   797.98   948.21  1069.70  1107.84
                             1123.78  1153.49  1195.43  1288.24  1309.51
                             1360.38  1395.87  1417.54  1493.04  1505.84
                             1523.54  1540.42  1561.89  1584.78  1613.47
                             1648.04  1726.56  1768.64  1806.38  1852.78
                             1884.41  1893.91  1929.95  1947.07  1969.53
                             1991.45  2033.02  2068.62  2128.57  2170.45
                             2187.07  4307.74  4315.14  4338.19  4379.48
                             4384.02  4445.75  4465.71  4470.36  4574.17
                             4589.68

 Zero-point correction=                           0.162839 (Hartree/Particle)
 Thermal correction to Energy=                    0.169717
 Thermal correction to Enthalpy=                  0.170661
 Thermal correction to Gibbs Free Energy=         0.131500
 Sum of electronic and zero-point Energies=           -423.016015
 Sum of electronic and thermal Energies=              -423.009137
 Sum of electronic and thermal Enthalpies=            -423.008193
 Sum of electronic and thermal Free Energies=         -423.047354

                     E (Thermal)             CV                S
                      KCal/Mol        Cal/Mol-Kelvin    Cal/Mol-Kelvin
 Total                  106.499             27.714             82.421
 Electronic               0.000              0.000              0.000
 Translational            0.889              2.981             40.409
 Rotational               0.889              2.981             28.017
 Vibrational            104.721             21.753             13.995
 Vibration     1          0.604              1.948              3.418
 Vibration     2          0.616              1.910              2.759
 Vibration     3          0.671              1.736              1.626
 Vibration     4          0.715              1.608              1.243
 Vibration     5          0.803              1.375              0.816
 Vibration     6          0.856              1.249              0.656
 Vibration     7          0.910              1.130              0.535

 Optimization completed.
    -- Stationary point found.
 Normal termination of Gaussian 09 at Mon Jan 27 13:33:10 2020.
