 Gaussian 09, Revision D.01,
 Gaussian 09:  ES64L-G09RevD.01 24-Apr-2013

 -----------------------------
 # b3lyp 6-31G(2df,p) opt Freq
 -----------------------------

 -----
 titel
 -----
 Symbolic Z-matrix:
 Charge =  0 Multiplicity = 1

 SCF Done:  E(RB3LYP) =  -423.188824196     A.U. after   13 cycles
 Optimization completed.
    -- Stationary point found.
 Normal termination of Gaussian 09 at Tue Jan 28 03:17:15 2020.

 ----------------------------------------------------------------------
 #N Geom=AllCheck Guess=TCheck SCRF=Check GenChk RB3LYP/6-31G(2df,p) Fr
 eq
 ----------------------------------------------------------------------

 Structure from the checkpoint file:  "/scratch/puck/g09_6dca7cb2-602a-4368-9fa3-e6906eb94661/Gau-45617.chk"
 -----
 titel
 -----
 Charge =  0 Multiplicity = 1

                         Standard orientation:
 ---------------------------------------------------------------------
 Center     Atomic      Atomic             Coordinates (Angstroms)
 Number     Number       Type             X           Y           Z
 ---------------------------------------------------------------------
      1          8           0        1.558726    1.341399    0.566354
      2          6           0        0.708279    0.814204   -0.442219
      3          6           0       -0.721988    1.422436   -0.531273
      4          6           0       -1.636365    0.165114   -0.306453
      5          6           0       -0.795160   -0.929504   -1.012295
      6          6           0        0.435564   -0.685301   -0.119226
      7          8           0        1.534231   -1.527013   -0.344957
      8          6           0       -0.209288   -0.728211    1.265524
      9          6           0       -1.445707   -0.240813    1.147610
     10          1           0        1.835464    2.223490    0.301475
     11          1           0        1.214103    0.858263   -1.416988
     12          1           0       -0.874238    2.185701    0.235922
     13          1           0       -0.904143    1.876004   -1.510638
     14          1           0       -2.666064    0.293444   -0.640370
     15          1           0       -1.202260   -1.934878   -0.889326
     16          1           0       -0.604426   -0.729382   -2.072065
     17          1           0        2.286470   -1.127326    0.107207
     18          1           0        0.316534   -1.025089    2.163524
     19          1           0       -2.157104   -0.042862    1.940077
 ---------------------------------------------------------------------

 SCF Done:  E(RB3LYP) =  -423.188824196     A.U. after    1 cycles

 The electronic state is 1-A.
 Alpha  occ. eigenvalues --  -19.14021 -19.13120 -10.23020 -10.22776 -10.19087
 Alpha  occ. eigenvalues --  -10.18016 -10.17619 -10.17409 -10.17018  -1.02903
 Alpha  occ. eigenvalues --   -1.00958  -0.86899  -0.73792  -0.70055  -0.68993
 Alpha  occ. eigenvalues --   -0.59125  -0.55844  -0.54039  -0.51660  -0.50201
 Alpha  occ. eigenvalues --   -0.47050  -0.43267  -0.42466  -0.40241  -0.37874
 Alpha  occ. eigenvalues --   -0.36970  -0.36665  -0.35330  -0.33802  -0.31970
 Alpha  occ. eigenvalues --   -0.30638  -0.27068  -0.25471  -0.23469
 Alpha virt. eigenvalues --    0.02170   0.07151   0.09621   0.10750   0.12805
 Alpha virt. eigenvalues --    0.13645   0.16218   0.16981   0.17256   0.17507
 Alpha virt. eigenvalues --    0.19165   0.19372   0.20506   0.23457   0.24131

 Mulliken charges:
               1
     1  O   -0.450982
     2  C    0.083638
     3  C   -0.255191
     4  C   -0.068977
     5  C   -0.253105
     6  C    0.390077
     7  O   -0.518371
     8  C   -0.120754
     9  C   -0.084130
    10  H    0.285066
    11  H    0.069873
    12  H    0.100199
    13  H    0.092783
    14  H    0.062106
    15  H    0.105676
    16  H    0.090653
    17  H    0.282299
    18  H    0.095768
    19  H    0.093370
 Sum of Mulliken charges =   0.00000

 Dipole moment (field-independent basis, Debye):
    X=             -0.1401    Y=              2.1888    Z=             -0.3235  Tot=              2.2170
 Quadrupole moment (field-independent basis, Debye-Ang):
   XX=            -49.7919   YY=            -52.7893   ZZ=            -52.8119
   XY=              2.8102   XZ=              0.3105   YZ=             -2.5823

  Exact polarizability:  80.791  -2.289  69.980   0.413  -2.393  71.804
 Approx polarizability: 124.316  -8.152 103.128   2.198  -3.161 107.546

                      1                      2                      3
                      A                      A                      A
 Frequencies --    143.5187               230.5700               271.2944
 Red. masses --      3.5386                 2.7753                 1.2700
 Frc consts  --      0.0429                 0.0869                 0.0551
 IR Inten    --      2.3195                12.4092                79.0967

                      4                      5                      6
                      A                      A                      A
 Frequencies --    323.5906               348.0543               370.8154
 Red. masses --      2.0722                 1.7544                 2.4202
 Frc consts  --      0.1278                 0.1252                 0.1961
 IR Inten    --     12.6142                26.8656                66.7832

                      7                      8                      9
                      A                      A                      A
 Frequencies --    405.6397               466.7977               506.4626
 Red. masses --      2.5047                 1.9844                 3.3014
 Frc consts  --      0.2428                 0.2548                 0.4989
 IR Inten    --      0.3159                 1.0954                 4.5982

                     10                     11                     12
                      A                      A                      A
 Frequencies --    538.9127               624.4405               668.6878
 Red. masses --      3.3647                 5.4572                 3.3271
 Frc consts  --      0.5757                 1.2537                 0.8765
 IR Inten    --      7.8968                 2.4705                 0.6625

                     13                     14                     15
                      A                      A                      A
 Frequencies --    743.6235               768.3777               798.6161
 Red. masses --      1.6643                 3.6990                 2.8762
 Frc consts  --      0.5422                 1.2867                 1.0808
 IR Inten    --     39.9763                 2.1383                 0.4062

                     16                     17                     18
                      A                      A                      A
 Frequencies --    837.2636               920.0715               932.0257
 Red. masses --      2.4667                 2.3121                 2.6009
 Frc consts  --      1.0188                 1.1532                 1.3312
 IR Inten    --      8.0199                 1.8480                12.8419

                     19                     20                     21
                      A                      A                      A
 Frequencies --    936.2706               941.4169               961.3996
 Red. masses --      2.1498                 1.5774                 1.7723
 Frc consts  --      1.1104                 0.8237                 0.9652
 IR Inten    --      0.4230                 3.7781                 5.4548

                     22                     23                     24
                      A                      A                      A
 Frequencies --   1014.8326              1052.5496              1073.4878
 Red. masses --      2.0800                 2.3128                 1.6259
 Frc consts  --      1.2621                 1.5097                 1.1039
 IR Inten    --      0.7088                37.1880                 2.4906

                     25                     26                     27
                      A                      A                      A
 Frequencies --   1085.6776              1113.5466              1131.4380
 Red. masses --      1.3828                 1.8523                 1.2348
 Frc consts  --      0.9603                 1.3533                 0.9313
 IR Inten    --     18.9117                41.6142                21.3040

                     28                     29                     30
                      A                      A                      A
 Frequencies --   1185.2295              1191.6569              1221.8664
 Red. masses --      1.7765                 1.4583                 1.7327
 Frc consts  --      1.4704                 1.2201                 1.5241
 IR Inten    --     29.1384                24.4930                45.3957

                     31                     32                     33
                      A                      A                      A
 Frequencies --   1255.0459              1265.0342              1290.5711
 Red. masses --      1.4727                 1.8033                 1.4280
 Frc consts  --      1.3668                 1.7003                 1.4014
 IR Inten    --     14.3581                60.3817                 4.5453

                     34                     35                     36
                      A                      A                      A
 Frequencies --   1312.0142              1329.1060              1359.0930
 Red. masses --      1.4919                 1.5874                 1.6105
 Frc consts  --      1.5131                 1.6522                 1.7527
 IR Inten    --     18.8181                20.1878                59.2488

                     37                     38                     39
                      A                      A                      A
 Frequencies --   1390.8775              1425.7751              1482.2874
 Red. masses --      1.7632                 1.3662                 1.0948
 Frc consts  --      2.0097                 1.6364                 1.4172
 IR Inten    --      3.9063                14.6658                 1.9812

                     40                     41                     42
                      A                      A                      A
 Frequencies --   1501.7853              1650.5260              2997.8073
 Red. masses --      1.1310                 6.1188                 1.0842
 Frc consts  --      1.5029                 9.8211                 5.7406
 IR Inten    --      3.3369                 1.0473                37.2098

                     43                     44                     45
                      A                      A                      A
 Frequencies --   3048.6534              3053.9745              3104.1508
 Red. masses --      1.0614                 1.0620                 1.1033
 Frc consts  --      5.8124                 5.8356                 6.2635
 IR Inten    --     30.1066                42.4207                18.7223

                     46                     47                     48
                      A                      A                      A
 Frequencies --   3110.0980              3122.8429              3196.0282
 Red. masses --      1.0900                 1.1032                 1.0867
 Frc consts  --      6.2117                 6.3386                 6.5401
 IR Inten    --     45.8162                23.8638                 9.6761

                     49                     50                     51
                      A                      A                      A
 Frequencies --   3225.6018              3794.1283              3827.7680
 Red. masses --      1.1062                 1.0657                 1.0664
 Frc consts  --      6.7809                 9.0385                 9.2061
 IR Inten    --     12.3906                28.6932                25.9243

 - Thermochemistry -
 -------------------
 Temperature   298.150 Kelvin.  Pressure   1.00000 Atm.
 Atom     1 has atomic number  8 and mass  15.99491

 Molecular mass:   126.06808 amu.
 Principal axes and moments of inertia in atomic units:
                           1         2         3
     Eigenvalues --   794.02013 934.456111158.50633
           X            0.99983   0.01673   0.00762
           Y           -0.01645   0.99922  -0.03586
           Z           -0.00821   0.03573   0.99933
 This molecule is an asymmetric top.
 Rotational symmetry number  1.
 Warning -- assumption of classical behavior for rotation
           may cause significant error
 Rotational temperatures (Kelvin)      0.10908     0.09269     0.07476
 Rotational constants (GHZ):           2.27292     1.93133     1.55782
 Zero-point vibrational energy     421990.5 (Joules/Mol)
                                  100.85815 (Kcal/Mol)
 Warning -- explicit consideration of  10 degrees of freedom as
           vibrations may cause significant error
 Vibrational temperatures:    206.49   331.74   390.33   465.57   500.77
          (Kelvin)            533.52   583.62   671.62   728.69   775.37
                              898.43   962.09  1069.91  1105.52  1149.03
                             1204.63  1323.78  1340.98  1347.08  1354.49
                             1383.24  1460.12  1514.38  1544.51  1562.05
                             1602.14  1627.88  1705.28  1714.53  1757.99
                             1805.73  1820.10  1856.84  1887.69  1912.28
                             1955.43  2001.16  2051.37  2132.68  2160.73
                             2374.74  4313.17  4386.33  4393.98  4466.17
                             4474.73  4493.07  4598.37  4640.92  5458.90
                             5507.30

 Zero-point correction=                           0.160728 (Hartree/Particle)
 Thermal correction to Energy=                    0.168398
 Thermal correction to Enthalpy=                  0.169342
 Thermal correction to Gibbs Free Energy=         0.129281
 Sum of electronic and zero-point Energies=           -423.028097
 Sum of electronic and thermal Energies=              -423.020426
 Sum of electronic and thermal Enthalpies=            -423.019482
 Sum of electronic and thermal Free Energies=         -423.059543

                     E (Thermal)             CV                S
                      KCal/Mol        Cal/Mol-Kelvin    Cal/Mol-Kelvin
 Total                  105.671             31.844             84.316
 Electronic               0.000              0.000              0.000
 Translational            0.889              2.981             40.409
 Rotational               0.889              2.981             28.243
 Vibrational            103.894             25.882             15.664
 Vibration     1          0.616              1.910              2.756
 Vibration     2          0.652              1.794              1.875
 Vibration     3          0.675              1.726              1.588
 Vibration     4          0.708              1.628              1.292
 Vibration     5          0.726              1.579              1.175
 Vibration     6          0.743              1.532              1.076
 Vibration     7          0.771              1.458              0.942
 Vibration     8          0.824              1.324              0.747
 Vibration     9          0.862              1.236              0.642
 Vibration    10          0.894              1.164              0.568

 Optimization completed.
    -- Stationary point found.
 Normal termination of Gaussian 09 at Tue Jan 28 05:17:45 2020.
