 Gaussian 09, Revision D.01,
 Gaussian 09:  ES64L-G09RevD.01 24-Apr-2013

 -----------------------------
 # b3lyp 6-31G(2df,p) opt Freq
 -----------------------------

 -----
 titel
 -----
 Symbolic Z-matrix:
 Charge =  0 Multiplicity = 1

 SCF Done:  E(RB3LYP) =  -423.168445211     A.U. after   14 cycles
 Optimization completed.
    -- Stationary point found.
 Normal termination of Gaussian 09 at Tue Jan 28 08:20:46 2020.

 ----------------------------------------------------------------------
 #N Geom=AllCheck Guess=TCheck SCRF=Check GenChk RB3LYP/6-31G(2df,p) Fr
 eq
 ----------------------------------------------------------------------

 Structure from the checkpoint file:  "/scratch/puck/g09_c26e5217-191f-4821-8ac0-92126d4226e3/Gau-79817.chk"
 -----
 titel
 -----
 Charge =  0 Multiplicity = 1

                         Standard orientation:
 ---------------------------------------------------------------------
 Center     Atomic      Atomic             Coordinates (Angstroms)
 Number     Number       Type             X           Y           Z
 ---------------------------------------------------------------------
      1          8           0        2.627950   -0.094841   -0.366268
      2          6           0        1.363311   -0.176384    0.302831
      3          6           0        0.544478   -1.140702   -0.568974
      4          8           0       -0.525053   -1.785468    0.090410
      5          6           0       -1.504747   -0.923420    0.670662
      6          6           0       -2.060588    0.088171   -0.291162
      7          6           0       -1.495949    1.280531   -0.521540
      8          6           0       -0.302836    1.827549    0.128993
      9          6           0        0.831221    1.223897    0.512703
     10          1           0        3.115812    0.651918   -0.004643
     11          1           0        1.499726   -0.650435    1.290228
     12          1           0        0.216635   -0.621887   -1.478201
     13          1           0        1.223137   -1.943356   -0.868517
     14          1           0       -2.290969   -1.596052    1.024072
     15          1           0       -1.084312   -0.406255    1.545712
     16          1           0       -2.954438   -0.185920   -0.844978
     17          1           0       -1.990441    1.960390   -1.213732
     18          1           0       -0.362245    2.898207    0.324904
     19          1           0        1.554573    1.858010    1.030950
 ---------------------------------------------------------------------

 SCF Done:  E(RB3LYP) =  -423.168445211     A.U. after    1 cycles

 The electronic state is 1-A.
 Alpha  occ. eigenvalues --  -19.13794 -19.13491 -10.23709 -10.22652 -10.21763
 Alpha  occ. eigenvalues --  -10.19798 -10.19673 -10.19558 -10.18838  -1.02782
 Alpha  occ. eigenvalues --   -1.01575  -0.81809  -0.77641  -0.71566  -0.69764
 Alpha  occ. eigenvalues --   -0.60454  -0.59493  -0.52540  -0.50375  -0.49859
 Alpha  occ. eigenvalues --   -0.47485  -0.45903  -0.44716  -0.42963  -0.40028
 Alpha  occ. eigenvalues --   -0.38522  -0.36625  -0.35865  -0.34599  -0.30407
 Alpha  occ. eigenvalues --   -0.30172  -0.27296  -0.24799  -0.23775
 Alpha virt. eigenvalues --   -0.03319   0.04685   0.08061   0.09385   0.12016
 Alpha virt. eigenvalues --    0.12959   0.14630   0.15452   0.16777   0.17371
 Alpha virt. eigenvalues --    0.18177   0.19207   0.20021   0.22037   0.23406

 Mulliken charges:
               1
     1  O   -0.438298
     2  C    0.077639
     3  C   -0.088912
     4  O   -0.255569
     5  C   -0.120925
     6  C   -0.085148
     7  C   -0.072973
     8  C   -0.087065
     9  C   -0.100071
    10  H    0.280444
    11  H    0.083359
    12  H    0.104815
    13  H    0.120897
    14  H    0.108174
    15  H    0.100959
    16  H    0.096838
    17  H    0.096834
    18  H    0.096690
    19  H    0.082314
 Sum of Mulliken charges =   0.00000

 Dipole moment (field-independent basis, Debye):
    X=             -0.3659    Y=              2.2773    Z=              0.8264  Tot=              2.4501
 Quadrupole moment (field-independent basis, Debye-Ang):
   XX=            -49.9900   YY=            -53.7721   ZZ=            -53.5140
   XY=              2.7500   XZ=              3.5378   YZ=              0.0249

  Exact polarizability:  97.056   3.178  84.113   6.880  -1.373  59.261
 Approx polarizability: 145.897   7.108 130.219  11.719  -4.045  92.821

                      1                      2                      3
                      A                      A                      A
 Frequencies --     85.4673               177.6631               224.4476
 Red. masses --      3.8324                 1.1034                 3.5788
 Frc consts  --      0.0165                 0.0205                 0.1062
 IR Inten    --      0.8360                99.7341                 2.2643

                      4                      5                      6
                      A                      A                      A
 Frequencies --    243.2977               272.2138               282.2467
 Red. masses --      3.5694                 2.8728                 4.2787
 Frc consts  --      0.1245                 0.1254                 0.2008
 IR Inten    --      6.0884                 6.5395                 1.1371

                      7                      8                      9
                      A                      A                      A
 Frequencies --    332.9900               393.0194               453.8442
 Red. masses --      3.0938                 3.5456                 2.3196
 Frc consts  --      0.2021                 0.3227                 0.2815
 IR Inten    --      8.6819                 2.5179                 0.9707

                     10                     11                     12
                      A                      A                      A
 Frequencies --    542.1234               564.4819               632.3815
 Red. masses --      3.4744                 2.6167                 3.1233
 Frc consts  --      0.6016                 0.4913                 0.7359
 IR Inten    --      8.8362                 5.0042                 0.5148

                     13                     14                     15
                      A                      A                      A
 Frequencies --    711.1328               814.8922               818.1096
 Red. masses --      1.9656                 1.6689                 2.4550
 Frc consts  --      0.5857                 0.6529                 0.9681
 IR Inten    --     26.0543                 9.1751                 6.0761

                     16                     17                     18
                      A                      A                      A
 Frequencies --    855.3050               924.9344               931.4605
 Red. masses --      3.4007                 2.6139                 3.9785
 Frc consts  --      1.4658                 1.3175                 2.0338
 IR Inten    --      7.6719                 9.4581                18.6080

                     19                     20                     21
                      A                      A                      A
 Frequencies --   1004.1478              1012.5746              1016.9134
 Red. masses --      1.7230                 1.6310                 1.2849
 Frc consts  --      1.0236                 0.9853                 0.7829
 IR Inten    --     12.7005                19.0076                 1.6522

                     22                     23                     24
                      A                      A                      A
 Frequencies --   1030.4987              1060.7538              1076.1390
 Red. masses --      2.1751                 3.0490                 2.4956
 Frc consts  --      1.3609                 2.0213                 1.7028
 IR Inten    --     26.5751                85.2428                12.6023

                     25                     26                     27
                      A                      A                      A
 Frequencies --   1117.2743              1141.4984              1233.1057
 Red. masses --      2.2566                 5.7963                 1.1155
 Frc consts  --      1.6597                 4.4499                 0.9994
 IR Inten    --     17.8054                68.5164                26.9756

                     28                     29                     30
                      A                      A                      A
 Frequencies --   1254.2450              1262.0195              1296.3865
 Red. masses --      1.1367                 1.1074                 1.0831
 Frc consts  --      1.0535                 1.0392                 1.0725
 IR Inten    --     11.8122                 5.3623                 0.9121

                     31                     32                     33
                      A                      A                      A
 Frequencies --   1313.6095              1345.5378              1380.3798
 Red. masses --      1.1387                 1.1752                 1.2205
 Frc consts  --      1.1577                 1.2535                 1.3702
 IR Inten    --      7.9233                 3.4234                 6.3944

                     34                     35                     36
                      A                      A                      A
 Frequencies --   1403.0866              1422.3578              1436.5325
 Red. masses --      1.3044                 1.3736                 1.6965
 Frc consts  --      1.5129                 1.6374                 2.0627
 IR Inten    --     16.6881                 2.8658                32.5066

                     37                     38                     39
                      A                      A                      A
 Frequencies --   1462.6243              1497.6935              1506.7858
 Red. masses --      1.5191                 1.0830                 1.0972
 Frc consts  --      1.9148                 1.4312                 1.4677
 IR Inten    --     13.3693                 2.5538                 4.5054

                     40                     41                     42
                      A                      A                      A
 Frequencies --   1689.7109              1706.4283              2947.9536
 Red. masses --      8.3846                 5.9259                 1.0805
 Frc consts  --     14.1045                10.1666                 5.5326
 IR Inten    --      0.4846                 0.6895                35.5308

                     43                     44                     45
                      A                      A                      A
 Frequencies --   2996.0804              3033.3511              3086.9831
 Red. masses --      1.0680                 1.0650                 1.0933
 Frc consts  --      5.6485                 5.7735                 6.1384
 IR Inten    --     47.8101                33.9663                33.7986

                     46                     47                     48
                      A                      A                      A
 Frequencies --   3089.1474              3102.3502              3123.3812
 Red. masses --      1.0835                 1.0984                 1.0875
 Frc consts  --      6.0919                 6.2289                 6.2505
 IR Inten    --     12.9400                19.9583                20.1910

                     49                     50                     51
                      A                      A                      A
 Frequencies --   3137.6061              3169.2481              3816.4358
 Red. masses --      1.0868                 1.0939                 1.0663
 Frc consts  --      6.3039                 6.4733                 9.1501
 IR Inten    --     20.8116                21.8439                16.9835

 - Thermochemistry -
 -------------------
 Temperature   298.150 Kelvin.  Pressure   1.00000 Atm.
 Atom     1 has atomic number  8 and mass  15.99491

 Molecular mass:   126.06808 amu.
 Principal axes and moments of inertia in atomic units:
                           1         2         3
     Eigenvalues --   751.778321151.022901676.08036
           X            0.99989   0.00986   0.01113
           Y           -0.00987   0.99995   0.00109
           Z           -0.01112  -0.00120   0.99994
 This molecule is an asymmetric top.
 Rotational symmetry number  1.
 Warning -- assumption of classical behavior for rotation
           may cause significant error
 Rotational temperatures (Kelvin)      0.11521     0.07525     0.05168
 Rotational constants (GHZ):           2.40063     1.56795     1.07676
 Zero-point vibrational energy     421282.0 (Joules/Mol)
                                  100.68882 (Kcal/Mol)
 Warning -- explicit consideration of  11 degrees of freedom as
           vibrations may cause significant error
 Vibrational temperatures:    122.97   255.62   322.93   350.05   391.65
          (Kelvin)            406.09   479.10   565.47   652.98   779.99
                              812.16   909.85  1023.16  1172.45  1177.08
                             1230.59  1330.77  1340.16  1444.74  1456.87
                             1463.11  1482.66  1526.19  1548.32  1607.51
                             1642.36  1774.16  1804.58  1815.76  1865.21
                             1889.99  1935.93  1986.06  2018.73  2046.45
                             2066.85  2104.39  2154.84  2167.93  2431.11
                             2455.17  4241.44  4310.69  4364.31  4441.47
                             4444.59  4463.58  4493.84  4514.31  4559.84
                             5490.99

 Zero-point correction=                           0.160458 (Hartree/Particle)
 Thermal correction to Energy=                    0.168821
 Thermal correction to Enthalpy=                  0.169765
 Thermal correction to Gibbs Free Energy=         0.127680
 Sum of electronic and zero-point Energies=           -423.007987
 Sum of electronic and thermal Energies=              -422.999624
 Sum of electronic and thermal Enthalpies=            -422.998680
 Sum of electronic and thermal Free Energies=         -423.040765

                     E (Thermal)             CV                S
                      KCal/Mol        Cal/Mol-Kelvin    Cal/Mol-Kelvin
 Total                  105.937             32.250             88.576
 Electronic               0.000              0.000              0.000
 Translational            0.889              2.981             40.409
 Rotational               0.889              2.981             28.763
 Vibrational            104.159             26.289             19.404
 Vibration     1          0.601              1.959              3.761
 Vibration     2          0.628              1.870              2.353
 Vibration     3          0.649              1.804              1.923
 Vibration     4          0.659              1.774              1.779
 Vibration     5          0.675              1.725              1.582
 Vibration     6          0.681              1.707              1.520
 Vibration     7          0.715              1.610              1.246
 Vibration     8          0.760              1.485              0.989
 Vibration     9          0.812              1.352              0.784
 Vibration    10          0.897              1.157              0.561
 Vibration    11          0.920              1.108              0.515

 Optimization completed.
    -- Stationary point found.
 Normal termination of Gaussian 09 at Tue Jan 28 09:13:55 2020.
