 Gaussian 09, Revision D.01,
 Gaussian 09:  ES64L-G09RevD.01 24-Apr-2013

 -----------------------------
 # b3lyp 6-31G(2df,p) opt Freq
 -----------------------------

 -----
 titel
 -----
 Symbolic Z-matrix:
 Charge =  0 Multiplicity = 1

 SCF Done:  E(RB3LYP) =  -423.100685616     A.U. after   12 cycles
 Optimization completed.
    -- Stationary point found.
 Normal termination of Gaussian 09 at Tue Jan 28 10:05:23 2020.

 ----------------------------------------------------------------------
 #N Geom=AllCheck Guess=TCheck SCRF=Check GenChk RB3LYP/6-31G(2df,p) Fr
 eq
 ----------------------------------------------------------------------

 Structure from the checkpoint file:  "/scratch/puck/g09_e2d57d84-967c-49f2-b816-cb6a63d5caec/Gau-107763.chk"
 -----
 titel
 -----
 Charge =  0 Multiplicity = 1

                         Standard orientation:
 ---------------------------------------------------------------------
 Center     Atomic      Atomic             Coordinates (Angstroms)
 Number     Number       Type             X           Y           Z
 ---------------------------------------------------------------------
      1          6           0       -2.516651    0.353208    0.062365
      2          8           0       -1.536203   -0.423916    0.737119
      3          6           0       -0.333349   -0.490171    0.077146
      4          6           0        0.011778   -1.108575   -1.300366
      5          6           0        1.362422   -0.637956   -0.717902
      6          6           0        0.968274   -1.019253    0.748458
      7          6           0        1.347513    0.368488    1.314588
      8          6           0        0.735196    0.653226   -0.073021
      9          8           0        0.465431    1.861575   -0.690742
     10          1           0       -2.763296   -0.076990   -0.917965
     11          1           0       -3.411533    0.344788    0.688180
     12          1           0       -2.179356    1.386712   -0.081069
     13          1           0       -0.129781   -2.188930   -1.400301
     14          1           0       -0.343514   -0.580272   -2.189106
     15          1           0        2.360159   -0.722528   -1.143895
     16          1           0        1.092521   -2.001631    1.197676
     17          1           0        0.779102    0.714890    2.181669
     18          1           0        2.417073    0.569712    1.437385
     19          1           0        1.293697    2.339185   -0.811195
 ---------------------------------------------------------------------

 SCF Done:  E(RB3LYP) =  -423.100685616     A.U. after    1 cycles

 The electronic state is 1-A.
 Alpha  occ. eigenvalues --  -19.14985 -19.14315 -10.23958 -10.23776 -10.21913
 Alpha  occ. eigenvalues --  -10.19425 -10.19341 -10.17924 -10.17803  -1.04392
 Alpha  occ. eigenvalues --   -1.02960  -0.92669  -0.74192  -0.69771  -0.62902
 Alpha  occ. eigenvalues --   -0.61090  -0.60362  -0.53718  -0.51396  -0.47197
 Alpha  occ. eigenvalues --   -0.46018  -0.45384  -0.42900  -0.42375  -0.41122
 Alpha  occ. eigenvalues --   -0.37134  -0.35900  -0.33579  -0.31663  -0.31310
 Alpha  occ. eigenvalues --   -0.30426  -0.28464  -0.25633  -0.23946
 Alpha virt. eigenvalues --    0.07354   0.10854   0.12059   0.12738   0.13098
 Alpha virt. eigenvalues --    0.14021   0.14330   0.15744   0.16934   0.17567
 Alpha virt. eigenvalues --    0.17584   0.18558   0.20037   0.20701   0.21711

 Mulliken charges:
               1
     1  C   -0.269077
     2  O   -0.301384
     3  C    0.422479
     4  C   -0.340347
     5  C   -0.121680
     6  C   -0.109296
     7  C   -0.336513
     8  C    0.331900
     9  O   -0.479416
    10  H    0.113110
    11  H    0.124789
    12  H    0.135189
    13  H    0.093671
    14  H    0.101691
    15  H    0.075365
    16  H    0.083561
    17  H    0.107133
    18  H    0.084551
    19  H    0.284273
 Sum of Mulliken charges =   0.00000

 Dipole moment (field-independent basis, Debye):
    X=              1.2055    Y=              0.5786    Z=             -0.7184  Tot=              1.5180
 Quadrupole moment (field-independent basis, Debye-Ang):
   XX=            -48.0965   YY=            -51.9489   ZZ=            -54.4456
   XY=              1.4784   XZ=              0.2445   YZ=              0.2387

  Exact polarizability:  82.213  -0.118  72.808   2.541   2.483  72.234
 Approx polarizability: 113.070  -0.017 109.668   0.714  -0.570 107.733

                      1                      2                      3
                      A                      A                      A
 Frequencies --     82.1728               159.8259               176.1346
 Red. masses --      2.7582                 2.1490                 1.3566
 Frc consts  --      0.0110                 0.0323                 0.0248
 IR Inten    --      4.0410                 2.0043                 1.2751

                      4                      5                      6
                      A                      A                      A
 Frequencies --    250.9639               275.0690               313.9564
 Red. masses --      1.4201                 3.2263                 2.7747
 Frc consts  --      0.0527                 0.1438                 0.1611
 IR Inten    --     42.9295                 7.7803                 6.2574

                      7                      8                      9
                      A                      A                      A
 Frequencies --    321.3432               436.7225               483.8808
 Red. masses --      2.2106                 2.8894                 2.5075
 Frc consts  --      0.1345                 0.3247                 0.3459
 IR Inten    --     49.7009                 4.6261                 1.8793

                     10                     11                     12
                      A                      A                      A
 Frequencies --    499.6259               643.4670               673.1449
 Red. masses --      2.8821                 3.8346                 4.3555
 Frc consts  --      0.4239                 0.9355                 1.1628
 IR Inten    --      5.6763                 4.8470                11.1881

                     13                     14                     15
                      A                      A                      A
 Frequencies --    723.5834               787.0291               873.8691
 Red. masses --      3.5988                 4.0213                 1.7138
 Frc consts  --      1.1102                 1.4676                 0.7711
 IR Inten    --     11.9826                 0.2964                 0.3250

                     16                     17                     18
                      A                      A                      A
 Frequencies --    898.5983               923.6872               934.3817
 Red. masses --      2.4183                 2.2616                 2.0502
 Frc consts  --      1.1505                 1.1369                 1.0546
 IR Inten    --      2.2229                 0.6498                 0.4066

                     19                     20                     21
                      A                      A                      A
 Frequencies --    974.3933              1003.8638              1041.2210
 Red. masses --      1.5230                 1.3297                 1.9420
 Frc consts  --      0.8520                 0.7895                 1.2405
 IR Inten    --      1.0127                 5.3497                20.0919

                     22                     23                     24
                      A                      A                      A
 Frequencies --   1058.3412              1072.0590              1083.7104
 Red. masses --      4.6590                 2.0867                 2.4873
 Frc consts  --      3.0746                 1.4130                 1.7211
 IR Inten    --     52.4062                18.3836                17.0695

                     25                     26                     27
                      A                      A                      A
 Frequencies --   1115.3830              1129.9509              1145.2461
 Red. masses --      1.3061                 1.8466                 1.5350
 Frc consts  --      0.9574                 1.3891                 1.1862
 IR Inten    --      0.8770                 9.7600                 2.5068

                     28                     29                     30
                      A                      A                      A
 Frequencies --   1183.0725              1186.1764              1200.8297
 Red. masses --      1.2847                 1.8236                 1.8193
 Frc consts  --      1.0595                 1.5117                 1.5457
 IR Inten    --      1.6467                29.3581                15.9450

                     31                     32                     33
                      A                      A                      A
 Frequencies --   1211.9183              1234.4005              1269.9158
 Red. masses --      1.6030                 1.8246                 1.9853
 Frc consts  --      1.3871                 1.6381                 1.8864
 IR Inten    --     18.5703                 6.6559                10.6499

                     34                     35                     36
                      A                      A                      A
 Frequencies --   1285.2409              1311.4198              1389.2597
 Red. masses --      2.4732                 3.4754                 2.4121
 Frc consts  --      2.4070                 3.5216                 2.7429
 IR Inten    --    217.9515               146.6329                70.2179

                     37                     38                     39
                      A                      A                      A
 Frequencies --   1484.4649              1489.7081              1503.1634
 Red. masses --      1.1680                 1.0468                 1.1646
 Frc consts  --      1.5165                 1.3688                 1.5504
 IR Inten    --      1.6448                 3.9325                 5.3951

                     40                     41                     42
                      A                      A                      A
 Frequencies --   1508.9573              1514.1850              3004.6279
 Red. masses --      1.0650                 1.2502                 1.0360
 Frc consts  --      1.4288                 1.6888                 5.5103
 IR Inten    --     15.4030                15.8769                46.7697

                     43                     44                     45
                      A                      A                      A
 Frequencies --   3042.6165              3049.6481              3069.0547
 Red. masses --      1.0570                 1.0551                 1.1007
 Frc consts  --      5.7652                 5.7814                 6.1083
 IR Inten    --     62.0626                28.6437                37.4062

                     46                     47                     48
                      A                      A                      A
 Frequencies --   3109.5317              3111.4343              3125.3797
 Red. masses --      1.1076                 1.1097                 1.1012
 Frc consts  --      6.3099                 6.3298                 6.3376
 IR Inten    --     27.2473                25.7364                28.0468

                     49                     50                     51
                      A                      A                      A
 Frequencies --   3136.6785              3151.1714              3797.1640
 Red. masses --      1.0903                 1.0942                 1.0658
 Frc consts  --      6.3200                 6.4016                 9.0545
 IR Inten    --     32.5756                26.1472                24.4404

 - Thermochemistry -
 -------------------
 Temperature   298.150 Kelvin.  Pressure   1.00000 Atm.
 Atom     1 has atomic number  6 and mass  12.00000

 Molecular mass:   126.06808 amu.
 Principal axes and moments of inertia in atomic units:
                           1         2         3
     Eigenvalues --   744.128001100.887261213.65152
           X            0.99920  -0.02821   0.02834
           Y            0.02505   0.99404   0.10609
           Z           -0.03117  -0.10530   0.99395
 This molecule is an asymmetric top.
 Rotational symmetry number  1.
 Warning -- assumption of classical behavior for rotation
           may cause significant error
 Rotational temperatures (Kelvin)      0.11640     0.07868     0.07137
 Rotational constants (GHZ):           2.42531     1.63935     1.48703
 Zero-point vibrational energy     415413.1 (Joules/Mol)
                                   99.28611 (Kcal/Mol)
 Warning -- explicit consideration of  10 degrees of freedom as
           vibrations may cause significant error
 Vibrational temperatures:    118.23   229.95   253.42   361.08   395.76
          (Kelvin)            451.71   462.34   628.35   696.20   718.85
                              925.80   968.50  1041.07  1132.36  1257.30
                             1292.88  1328.98  1344.37  1401.93  1444.33
                             1498.08  1522.71  1542.45  1559.22  1604.79
                             1625.75  1647.75  1702.18  1706.64  1727.72
                             1743.68  1776.02  1827.12  1849.17  1886.84
                             1998.83  2135.81  2143.35  2162.71  2171.05
                             2178.57  4322.98  4377.64  4387.76  4415.68
                             4473.92  4476.65  4496.72  4512.98  4533.83
                             5463.27

 Zero-point correction=                           0.158222 (Hartree/Particle)
 Thermal correction to Energy=                    0.166587
 Thermal correction to Enthalpy=                  0.167532
 Thermal correction to Gibbs Free Energy=         0.125499
 Sum of electronic and zero-point Energies=           -422.942463
 Sum of electronic and thermal Energies=              -422.934098
 Sum of electronic and thermal Enthalpies=            -422.933154
 Sum of electronic and thermal Free Energies=         -422.975187

                     E (Thermal)             CV                S
                      KCal/Mol        Cal/Mol-Kelvin    Cal/Mol-Kelvin
 Total                  104.535             32.373             88.465
 Electronic               0.000              0.000              0.000
 Translational            0.889              2.981             40.409
 Rotational               0.889              2.981             28.388
 Vibrational            102.758             26.412             19.668
 Vibration     1          0.600              1.961              3.838
 Vibration     2          0.622              1.892              2.552
 Vibration     3          0.628              1.872              2.369
 Vibration     4          0.663              1.761              1.724
 Vibration     5          0.677              1.719              1.564
 Vibration     6          0.702              1.647              1.341
 Vibration     7          0.707              1.633              1.303
 Vibration     8          0.797              1.390              0.837
 Vibration     9          0.840              1.286              0.700
 Vibration    10          0.855              1.251              0.659

 Normal termination of Gaussian 09 at Tue Jan 28 10:49:57 2020.
