 Gaussian 09, Revision D.01,
 Gaussian 09:  ES64L-G09RevD.01 24-Apr-2013

 -----------------------------
 # b3lyp 6-31G(2df,p) opt Freq
 -----------------------------

 -----
 titel
 -----
 Symbolic Z-matrix:
 Charge =  0 Multiplicity = 1

 SCF Done:  E(RB3LYP) =  -423.128259360     A.U. after   13 cycles
 Optimization completed.
    -- Stationary point found.
 Normal termination of Gaussian 09 at Tue Jan 28 03:47:20 2020.

 ----------------------------------------------------------------------
 #N Geom=AllCheck Guess=TCheck SCRF=Check GenChk RB3LYP/6-31G(2df,p) Fr
 eq
 ----------------------------------------------------------------------

 Structure from the checkpoint file:  "/scratch/puck/g09_ac3d8c38-34b1-4c54-ae1b-a2b55ec8781b/Gau-116616.chk"
 -----
 titel
 -----
 Charge =  0 Multiplicity = 1

                         Standard orientation:
 ---------------------------------------------------------------------
 Center     Atomic      Atomic             Coordinates (Angstroms)
 Number     Number       Type             X           Y           Z
 ---------------------------------------------------------------------
      1          8           0       -2.291207   -0.944375   -0.199062
      2          6           0       -1.369567   -0.215452    0.594286
      3          6           0       -1.372300    1.271314    0.129505
      4          6           0       -0.097177    1.032200   -0.750555
      5          6           0        1.245518    1.535320   -0.153493
      6          6           0        1.330455    0.240367    0.704242
      7          6           0        1.961901   -1.006830    0.036596
      8          8           0        0.667891   -1.495104   -0.421023
      9          6           0        0.043288   -0.309602    0.044364
     10          1           0       -1.964210   -1.849567   -0.257366
     11          1           0       -1.515450   -0.420041    1.665093
     12          1           0       -2.274587    1.524442   -0.428054
     13          1           0       -1.230222    1.991225    0.939368
     14          1           0       -0.255492    1.083871   -1.827088
     15          1           0        2.057483    1.639240   -0.879654
     16          1           0        1.178853    2.465298    0.418819
     17          1           0        1.466099    0.325037    1.782952
     18          1           0        2.639703   -0.804430   -0.801784
     19          1           0        2.431642   -1.723144    0.718721
 ---------------------------------------------------------------------

 SCF Done:  E(RB3LYP) =  -423.128259360     A.U. after    1 cycles

 The electronic state is 1-A.
 Alpha  occ. eigenvalues --  -19.13961 -19.13415 -10.23733 -10.22961 -10.22828
 Alpha  occ. eigenvalues --  -10.19323 -10.18716 -10.18348 -10.18322  -1.04786
 Alpha  occ. eigenvalues --   -1.01464  -0.85697  -0.76373  -0.68841  -0.66192
 Alpha  occ. eigenvalues --   -0.61106  -0.58577  -0.52477  -0.50519  -0.49312
 Alpha  occ. eigenvalues --   -0.48833  -0.45705  -0.43045  -0.40975  -0.39052
 Alpha  occ. eigenvalues --   -0.38135  -0.35960  -0.34564  -0.33019  -0.31984
 Alpha  occ. eigenvalues --   -0.29803  -0.28546  -0.25963  -0.23179
 Alpha virt. eigenvalues --    0.05855   0.09228   0.09452   0.10879   0.11787
 Alpha virt. eigenvalues --    0.12744   0.13673   0.14820   0.16032   0.16792
 Alpha virt. eigenvalues --    0.17599   0.18320   0.19344   0.22088   0.22831

 Mulliken charges:
               1
     1  O   -0.436353
     2  C    0.003965
     3  C   -0.245788
     4  C   -0.099872
     5  C   -0.252595
     6  C   -0.160174
     7  C   -0.101909
     8  O   -0.343129
     9  C    0.492280
    10  H    0.293561
    11  H    0.057105
    12  H    0.121878
    13  H    0.098885
    14  H    0.077388
    15  H    0.101046
    16  H    0.100906
    17  H    0.077389
    18  H    0.105332
    19  H    0.110085
 Sum of Mulliken charges =   0.00000

 Dipole moment (field-independent basis, Debye):
    X=              1.6997    Y=              0.7216    Z=              1.0753  Tot=              2.1368
 Quadrupole moment (field-independent basis, Debye-Ang):
   XX=            -54.7191   YY=            -52.2402   ZZ=            -52.4073
   XY=             -0.1868   XZ=             -0.2759   YZ=             -1.2198

  Exact polarizability:  82.972  -2.419  75.714   0.013  -1.149  65.074
 Approx polarizability: 111.806  -1.523 110.061   1.872   0.714 100.376

                      1                      2                      3
                      A                      A                      A
 Frequencies --    111.9634               142.5712               196.3544
 Red. masses --      2.5403                 3.8218                 2.9908
 Frc consts  --      0.0188                 0.0458                 0.0679
 IR Inten    --      0.8381                 2.9282                10.4243

                      4                      5                      6
                      A                      A                      A
 Frequencies --    320.9860               349.7864               371.3472
 Red. masses --      1.9699                 1.9632                 2.1853
 Frc consts  --      0.1196                 0.1415                 0.1776
 IR Inten    --     57.0453                34.8193                 5.1599

                      7                      8                      9
                      A                      A                      A
 Frequencies --    407.4021               443.8041               529.3281
 Red. masses --      2.8136                 1.8765                 3.8582
 Frc consts  --      0.2751                 0.2178                 0.6369
 IR Inten    --     16.4099                 1.1659                 6.3193

                     10                     11                     12
                      A                      A                      A
 Frequencies --    692.6628               757.5115               800.2852
 Red. masses --      3.5295                 2.4847                 2.4828
 Frc consts  --      0.9977                 0.8400                 0.9369
 IR Inten    --     13.7405                 5.1093                 1.9374

                     13                     14                     15
                      A                      A                      A
 Frequencies --    825.7758               837.7815               885.6971
 Red. masses --      1.9652                 3.0407                 1.7466
 Frc consts  --      0.7895                 1.2574                 0.8072
 IR Inten    --      2.3052                 3.4885                 0.2379

                     16                     17                     18
                      A                      A                      A
 Frequencies --    905.5795               936.6890               972.0469
 Red. masses --      2.8510                 1.6946                 6.3852
 Frc consts  --      1.3775                 0.8760                 3.5547
 IR Inten    --     10.0249                 0.9513               106.1311

                     19                     20                     21
                      A                      A                      A
 Frequencies --   1010.7422              1012.5263              1024.1619
 Red. masses --      2.1881                 2.6002                 1.7815
 Frc consts  --      1.3170                 1.5706                 1.1010
 IR Inten    --      8.8716                21.1611                11.2404

                     22                     23                     24
                      A                      A                      A
 Frequencies --   1041.0089              1083.7202              1099.0747
 Red. masses --      3.5112                 2.0534                 1.8073
 Frc consts  --      2.2419                 1.4209                 1.2863
 IR Inten    --      0.7296                12.4602                14.9088

                     25                     26                     27
                      A                      A                      A
 Frequencies --   1128.4997              1156.7944              1167.6461
 Red. masses --      2.4634                 1.5577                 1.2983
 Frc consts  --      1.8484                 1.2281                 1.0430
 IR Inten    --     10.6701                19.4451                 3.5659

                     28                     29                     30
                      A                      A                      A
 Frequencies --   1187.7193              1207.5600              1227.1107
 Red. masses --      1.4839                 1.3815                 1.6527
 Frc consts  --      1.2333                 1.1869                 1.4663
 IR Inten    --     29.3283                 5.7943                33.5753

                     31                     32                     33
                      A                      A                      A
 Frequencies --   1232.9771              1265.9894              1284.3428
 Red. masses --      1.5354                 1.5963                 1.6988
 Frc consts  --      1.3752                 1.5074                 1.6510
 IR Inten    --      3.1227                 7.9348                19.9921

                     34                     35                     36
                      A                      A                      A
 Frequencies --   1289.6517              1316.3685              1346.8818
 Red. masses --      1.5237                 1.5210                 1.4900
 Frc consts  --      1.4931                 1.5529                 1.5925
 IR Inten    --     17.7835                 5.0379                 6.7287

                     37                     38                     39
                      A                      A                      A
 Frequencies --   1367.4752              1389.4002              1462.2094
 Red. masses --      1.9946                 1.4245                 1.1143
 Frc consts  --      2.1976                 1.6202                 1.4037
 IR Inten    --     50.1929                11.8539                 6.5209

                     40                     41                     42
                      A                      A                      A
 Frequencies --   1480.6300              1517.9251              2990.0468
 Red. masses --      1.1048                 1.1125                 1.0853
 Frc consts  --      1.4270                 1.5102                 5.7166
 IR Inten    --      5.1711                 0.8697                77.9721

                     43                     44                     45
                      A                      A                      A
 Frequencies --   3021.4357              3045.9505              3071.0625
 Red. masses --      1.0566                 1.0584                 1.0613
 Frc consts  --      5.6830                 5.7855                 5.8976
 IR Inten    --     70.4290                41.8985                24.3004

                     46                     47                     48
                      A                      A                      A
 Frequencies --   3072.9089              3091.4620              3106.1124
 Red. masses --      1.1090                 1.1037                 1.0930
 Frc consts  --      6.1700                 6.2151                 6.2133
 IR Inten    --     27.7382                17.9231                43.8332

                     49                     50                     51
                      A                      A                      A
 Frequencies --   3117.2715              3139.7849              3797.5848
 Red. masses --      1.0911                 1.1051                 1.0661
 Frc consts  --      6.2470                 6.4186                 9.0585
 IR Inten    --     19.4376                18.9697                27.4050

 - Thermochemistry -
 -------------------
 Temperature   298.150 Kelvin.  Pressure   1.00000 Atm.
 Atom     1 has atomic number  8 and mass  15.99491

 Molecular mass:   126.06808 amu.
 Principal axes and moments of inertia in atomic units:
                           1         2         3
     Eigenvalues --   650.576421034.620261445.66108
           X            0.99991  -0.01293  -0.00339
           Y            0.01289   0.99985  -0.01169
           Z            0.00354   0.01164   0.99993
 This molecule is an asymmetric top.
 Rotational symmetry number  1.
 Warning -- assumption of classical behavior for rotation
           may cause significant error
 Rotational temperatures (Kelvin)      0.13313     0.08372     0.05991
 Rotational constants (GHZ):           2.77406     1.74435     1.24838
 Zero-point vibrational energy     420138.1 (Joules/Mol)
                                  100.41542 (Kcal/Mol)
 Warning -- explicit consideration of   9 degrees of freedom as
           vibrations may cause significant error
 Vibrational temperatures:    161.09   205.13   282.51   461.83   503.26
          (Kelvin)            534.29   586.16   638.53   761.58   996.59
                             1089.89  1151.43  1188.11  1205.38  1274.32
                             1302.93  1347.68  1398.56  1454.23  1456.80
                             1473.54  1497.78  1559.23  1581.32  1623.66
                             1664.37  1679.98  1708.86  1737.41  1765.54
                             1773.98  1821.47  1847.88  1855.52  1893.96
                             1937.86  1967.49  1999.03  2103.79  2130.29
                             2183.95  4302.01  4347.17  4382.44  4418.57
                             4421.23  4447.92  4469.00  4485.05  4517.44
                             5463.87

 Zero-point correction=                           0.160022 (Hartree/Particle)
 Thermal correction to Energy=                    0.167681
 Thermal correction to Enthalpy=                  0.168626
 Thermal correction to Gibbs Free Energy=         0.128017
 Sum of electronic and zero-point Energies=           -422.968237
 Sum of electronic and thermal Energies=              -422.960578
 Sum of electronic and thermal Enthalpies=            -422.959634
 Sum of electronic and thermal Free Energies=         -423.000243

                     E (Thermal)             CV                S
                      KCal/Mol        Cal/Mol-Kelvin    Cal/Mol-Kelvin
 Total                  105.222             30.401             85.469
 Electronic               0.000              0.000              0.000
 Translational            0.889              2.981             40.409
 Rotational               0.889              2.981             28.366
 Vibrational            103.444             24.439             16.693
 Vibration     1          0.607              1.940              3.235
 Vibration     2          0.616              1.911              2.769
 Vibration     3          0.636              1.845              2.167
 Vibration     4          0.706              1.633              1.305
 Vibration     5          0.727              1.576              1.167
 Vibration     6          0.743              1.531              1.074
 Vibration     7          0.772              1.454              0.936
 Vibration     8          0.803              1.375              0.815
 Vibration     9          0.884              1.185              0.589

 Optimization completed.
    -- Stationary point found.
 Normal termination of Gaussian 09 at Tue Jan 28 04:31:08 2020.
