 Gaussian 09, Revision D.01,
 Gaussian 09:  ES64L-G09RevD.01 24-Apr-2013

 -----------------------------
 # b3lyp 6-31G(2df,p) opt Freq
 -----------------------------

 -----
 titel
 -----
 Symbolic Z-matrix:
 Charge =  0 Multiplicity = 1

 SCF Done:  E(RB3LYP) =  -423.127133095     A.U. after   14 cycles
 Optimization completed.
    -- Stationary point found.
 Normal termination of Gaussian 09 at Mon Jan 27 14:24:16 2020.

 ----------------------------------------------------------------------
 #N Geom=AllCheck Guess=TCheck SCRF=Check GenChk RB3LYP/6-31G(2df,p) Fr
 eq
 ----------------------------------------------------------------------

 Structure from the checkpoint file:  "/scratch/puck/g09_e9727bf9-1c12-495e-acf0-89530e5b0089/Gau-49751.chk"
 -----
 titel
 -----
 Charge =  0 Multiplicity = 1

                         Standard orientation:
 ---------------------------------------------------------------------
 Center     Atomic      Atomic             Coordinates (Angstroms)
 Number     Number       Type             X           Y           Z
 ---------------------------------------------------------------------
      1          6           0        3.161412    1.116212   -0.140031
      2          6           0        2.483680   -0.186810    0.308294
      3          8           0        2.801760   -1.269658   -0.563717
      4          6           0        1.033956   -0.016736    0.458325
      5          6           0       -0.160480    0.126616    0.542213
      6          6           0       -1.595828    0.278527    0.639784
      7          6           0       -2.505013   -0.937299    0.298726
      8          8           0       -3.294704   -0.142771   -0.604993
      9          6           0       -2.367544    0.954611   -0.529587
     10          1           0        2.991924    1.915038    0.587815
     11          1           0        4.236464    0.948551   -0.244840
     12          1           0        2.760043    1.444297   -1.104451
     13          1           0        2.906255   -0.486038    1.275306
     14          1           0        2.330681   -1.119811   -1.391041
     15          1           0       -1.868033    0.719891    1.602771
     16          1           0       -1.977026   -1.750367   -0.214509
     17          1           0       -3.100650   -1.347364    1.120989
     18          1           0       -1.772735    1.060591   -1.445553
     19          1           0       -2.864473    1.903915   -0.303150
 ---------------------------------------------------------------------

 SCF Done:  E(RB3LYP) =  -423.127133095     A.U. after    1 cycles

 The electronic state is 1-A.
 Alpha  occ. eigenvalues --  -19.14009 -19.13770 -10.25757 -10.23932 -10.23883
 Alpha  occ. eigenvalues --  -10.22087 -10.18319 -10.18316 -10.17802  -1.04478
 Alpha  occ. eigenvalues --   -1.02330  -0.79786  -0.76987  -0.71260  -0.69753
 Alpha  occ. eigenvalues --   -0.64007  -0.58545  -0.53904  -0.51365  -0.50308
 Alpha  occ. eigenvalues --   -0.46678  -0.45293  -0.43844  -0.40946  -0.40755
 Alpha  occ. eigenvalues --   -0.39926  -0.37934  -0.35651  -0.34500  -0.33009
 Alpha  occ. eigenvalues --   -0.28579  -0.25978  -0.25595  -0.25280
 Alpha virt. eigenvalues --    0.02881   0.03666   0.08114   0.08600   0.11068
 Alpha virt. eigenvalues --    0.12334   0.12705   0.14509   0.15323   0.16535
 Alpha virt. eigenvalues --    0.17200   0.17891   0.18068   0.19299   0.20992

 Mulliken charges:
               1
     1  C   -0.383989
     2  C   -0.019864
     3  O   -0.412600
     4  C    0.081775
     5  C    0.047393
     6  C   -0.217787
     7  C   -0.072649
     8  O   -0.267584
     9  C   -0.072221
    10  H    0.124879
    11  H    0.126260
    12  H    0.115947
    13  H    0.118627
    14  H    0.281699
    15  H    0.113220
    16  H    0.110224
    17  H    0.111413
    18  H    0.104887
    19  H    0.110370
 Sum of Mulliken charges =   0.00000

 Dipole moment (field-independent basis, Debye):
    X=              0.3829    Y=              1.4498    Z=              0.4363  Tot=              1.5617
 Quadrupole moment (field-independent basis, Debye-Ang):
   XX=            -60.3329   YY=            -53.6099   ZZ=            -50.3062
   XY=              2.7227   XZ=             -4.0115   YZ=             -0.1992

  Exact polarizability: 111.516  -0.989  69.527  -2.524  -1.185  64.067
 Approx polarizability: 153.391  -7.330  97.999  -2.966   0.158  95.072

                      1                      2                      3
                      A                      A                      A
 Frequencies --      6.7042                60.3443                79.7493
 Red. masses --      2.9725                 6.0988                 3.5030
 Frc consts  --      0.0001                 0.0131                 0.0131
 IR Inten    --      0.8267                 2.5716                 0.7861

                      4                      5                      6
                      A                      A                      A
 Frequencies --    119.7234               186.9056               231.3656
 Red. masses --      2.9881                 3.4921                 1.4475
 Frc consts  --      0.0252                 0.0719                 0.0457
 IR Inten    --      3.0895                 0.5222                 7.3120

                      7                      8                      9
                      A                      A                      A
 Frequencies --    262.0430               300.9196               345.0336
 Red. masses --      1.3093                 1.4984                 4.1211
 Frc consts  --      0.0530                 0.0799                 0.2891
 IR Inten    --     24.3982                64.1716                25.2247

                     10                     11                     12
                      A                      A                      A
 Frequencies --    439.3349               471.7270               558.5683
 Red. masses --      3.5539                 4.2100                 4.4247
 Frc consts  --      0.4041                 0.5520                 0.8134
 IR Inten    --      2.7284                19.1567                 4.0051

                     13                     14                     15
                      A                      A                      A
 Frequencies --    585.4549               643.3837               799.7140
 Red. masses --      4.3645                 2.8856                 3.7647
 Frc consts  --      0.8814                 0.7038                 1.4186
 IR Inten    --      1.7002                 9.4537                 4.3949

                     16                     17                     18
                      A                      A                      A
 Frequencies --    877.3572               889.8301               920.2106
 Red. masses --      2.8901                 1.2363                 2.3331
 Frc consts  --      1.3107                 0.5767                 1.1640
 IR Inten    --     13.9336                 0.0229                19.4226

                     19                     20                     21
                      A                      A                      A
 Frequencies --    997.9558              1002.3192              1035.0744
 Red. masses --      2.8808                 4.0357                 1.9809
 Frc consts  --      1.6904                 2.3888                 1.2504
 IR Inten    --     25.4613                 1.1469                39.5857

                     22                     23                     24
                      A                      A                      A
 Frequencies --   1040.8184              1081.6207              1103.1478
 Red. masses --     10.6606                 2.2998                 2.7061
 Frc consts  --      6.8043                 1.5852                 1.9402
 IR Inten    --     94.0961                 7.9713                37.3858

                     25                     26                     27
                      A                      A                      A
 Frequencies --   1110.3554              1159.0661              1171.0590
 Red. masses --      1.9934                 1.0883                 1.1900
 Frc consts  --      1.4480                 0.8615                 0.9615
 IR Inten    --     31.3851                 1.1800                 0.2990

                     28                     29                     30
                      A                      A                      A
 Frequencies --   1192.1231              1237.2382              1282.6263
 Red. masses --      1.9009                 1.2475                 1.3659
 Frc consts  --      1.5917                 1.1252                 1.3240
 IR Inten    --     15.4753                 1.9243                 8.5686

                     31                     32                     33
                      A                      A                      A
 Frequencies --   1303.9943              1335.4476              1344.6613
 Red. masses --      1.2543                 1.3372                 1.5718
 Frc consts  --      1.2566                 1.4051                 1.6745
 IR Inten    --      0.0447                13.6822                43.9218

                     34                     35                     36
                      A                      A                      A
 Frequencies --   1381.2572              1396.9422              1417.3175
 Red. masses --      1.6040                 1.2370                 1.1935
 Frc consts  --      1.8030                 1.4222                 1.4126
 IR Inten    --      0.0954                 4.6482                76.2194

                     37                     38                     39
                      A                      A                      A
 Frequencies --   1486.8744              1491.0934              1510.1930
 Red. masses --      1.0509                 1.0588                 1.0767
 Frc consts  --      1.3688                 1.3870                 1.4468
 IR Inten    --      7.2811                 0.8427                 1.4556

                     40                     41                     42
                      A                      A                      A
 Frequencies --   1535.8073              2354.1465              3015.1165
 Red. masses --      1.1092                11.9201                 1.0543
 Frc consts  --      1.5415                38.9220                 5.6472
 IR Inten    --      1.1894                 5.6091               102.4848

                     43                     44                     45
                      A                      A                      A
 Frequencies --   3026.1010              3035.4894              3039.6751
 Red. masses --      1.0594                 1.0694                 1.0472
 Frc consts  --      5.7160                 5.8059                 5.7005
 IR Inten    --      9.6863                12.7777                18.3656

                     46                     47                     48
                      A                      A                      A
 Frequencies --   3058.6820              3074.0334              3083.3238
 Red. masses --      1.0915                 1.1082                 1.1040
 Frc consts  --      6.0167                 6.1697                 6.1837
 IR Inten    --      3.5925                13.0929                81.0528

                     49                     50                     51
                      A                      A                      A
 Frequencies --   3113.5058              3127.2571              3803.7288
 Red. masses --      1.1014                 1.1031                 1.0661
 Frc consts  --      6.2906                 6.3562                 9.0878
 IR Inten    --     25.7963                22.0977                15.9842

 - Thermochemistry -
 -------------------
 Temperature   298.150 Kelvin.  Pressure   1.00000 Atm.
 Atom     1 has atomic number  6 and mass  12.00000

 Molecular mass:   126.06808 amu.
 Principal axes and moments of inertia in atomic units:
                           1         2         3
     Eigenvalues --   433.287302841.579272996.84170
           X            0.99990   0.01257  -0.00671
           Y           -0.01286   0.99897  -0.04359
           Z            0.00616   0.04367   0.99903
 This molecule is an asymmetric top.
 Rotational symmetry number  1.
 Warning -- assumption of classical behavior for rotation
           may cause significant error
 Rotational temperatures (Kelvin)      0.19990     0.03048     0.02890
 Rotational constants (GHZ):           4.16523     0.63512     0.60221
 Zero-point vibrational energy     413467.8 (Joules/Mol)
                                   98.82118 (Kcal/Mol)
 Warning -- explicit consideration of  13 degrees of freedom as
           vibrations may cause significant error
 Vibrational temperatures:      9.65    86.82   114.74   172.26   268.92
          (Kelvin)            332.88   377.02   432.96   496.43   632.10
                              678.71   803.65   842.34   925.68  1150.61
                             1262.32  1280.27  1323.98  1435.83  1442.11
                             1489.24  1497.50  1556.21  1587.18  1597.55
                             1667.64  1684.89  1715.20  1780.11  1845.41
                             1876.15  1921.41  1934.67  1987.32  2009.89
                             2039.20  2139.28  2145.35  2172.83  2209.68
                             3387.09  4338.07  4353.88  4367.39  4373.41
                             4400.76  4422.84  4436.21  4479.63  4499.42
                             5472.71

 Zero-point correction=                           0.157482 (Hartree/Particle)
 Thermal correction to Energy=                    0.167498
 Thermal correction to Enthalpy=                  0.168442
 Thermal correction to Gibbs Free Energy=         0.119399
 Sum of electronic and zero-point Energies=           -422.969652
 Sum of electronic and thermal Energies=              -422.959635
 Sum of electronic and thermal Enthalpies=            -422.958691
 Sum of electronic and thermal Free Energies=         -423.007734

                     E (Thermal)             CV                S
                      KCal/Mol        Cal/Mol-Kelvin    Cal/Mol-Kelvin
 Total                  105.106             34.764            103.220
 Electronic               0.000              0.000              0.000
 Translational            0.889              2.981             40.409
 Rotational               0.889              2.981             29.691
 Vibrational            103.329             28.802             33.120
 Vibration     1          0.593              1.987              8.806
 Vibration     2          0.597              1.973              4.446
 Vibration     3          0.600              1.963              3.897
 Vibration     4          0.609              1.933              3.105
 Vibration     5          0.632              1.858              2.258
 Vibration     6          0.653              1.793              1.868
 Vibration     7          0.669              1.742              1.648
 Vibration     8          0.693              1.672              1.412
 Vibration     9          0.723              1.585              1.189
 Vibration    10          0.799              1.384              0.829
 Vibration    11          0.829              1.313              0.733
 Vibration    12          0.914              1.121              0.527
 Vibration    13          0.942              1.063              0.475

 Optimization completed on the basis of negligible forces.
    -- Stationary point found.
 Normal termination of Gaussian 09 at Mon Jan 27 14:55:22 2020.
