 Gaussian 09, Revision D.01,
 Gaussian 09:  ES64L-G09RevD.01 24-Apr-2013

 -----------------------------
 # b3lyp 6-31G(2df,p) opt Freq
 -----------------------------

 -----
 titel
 -----
 Symbolic Z-matrix:
 Charge =  0 Multiplicity = 1

 SCF Done:  E(RB3LYP) =  -423.248955016     A.U. after   14 cycles
 Optimization completed.
    -- Stationary point found.
 Normal termination of Gaussian 09 at Tue Jan 28 08:52:13 2020.

 ----------------------------------------------------------------------
 #N Geom=AllCheck Guess=TCheck SCRF=Check GenChk RB3LYP/6-31G(2df,p) Fr
 eq
 ----------------------------------------------------------------------

 Structure from the checkpoint file:  "/scratch/puck/g09_8f89841f-6eda-41a9-af16-2dd78ac8096e/Gau-103610.chk"
 -----
 titel
 -----
 Charge =  0 Multiplicity = 1

                         Standard orientation:
 ---------------------------------------------------------------------
 Center     Atomic      Atomic             Coordinates (Angstroms)
 Number     Number       Type             X           Y           Z
 ---------------------------------------------------------------------
      1          6           0       -1.528374   -1.908658    0.025519
      2          6           0       -1.830490   -0.430360   -0.226272
      3          6           0       -0.634428    0.523975   -0.032137
      4          6           0       -1.018713    1.963834   -0.397283
      5          8           0        0.439164    0.112756   -0.906208
      6          6           0        1.575060   -0.163519   -0.186604
      7          8           0        2.599491   -0.512402   -0.701540
      8          6           0        1.254205    0.055037    1.246348
      9          6           0       -0.014793    0.442418    1.341612
     10          1           0       -2.417177   -2.515096   -0.170662
     11          1           0       -0.729231   -2.260630   -0.631900
     12          1           0       -1.220646   -2.091735    1.059398
     13          1           0       -2.190283   -0.295762   -1.252675
     14          1           0       -2.637353   -0.088679    0.433757
     15          1           0       -1.370813    2.004405   -1.431530
     16          1           0       -1.818286    2.325635    0.256354
     17          1           0       -0.156970    2.628020   -0.295400
     18          1           0        1.985027   -0.092973    2.027733
     19          1           0       -0.568312    0.687624    2.239808
 ---------------------------------------------------------------------

 SCF Done:  E(RB3LYP) =  -423.248955016     A.U. after    1 cycles

 The electronic state is 1-A.
 Alpha  occ. eigenvalues --  -19.17320 -19.11581 -10.29876 -10.26342 -10.21775
 Alpha  occ. eigenvalues --  -10.20593 -10.19853 -10.19320 -10.18099  -1.09315
 Alpha  occ. eigenvalues --   -1.01561  -0.82834  -0.79438  -0.74468  -0.66235
 Alpha  occ. eigenvalues --   -0.62700  -0.59564  -0.56651  -0.49503  -0.48152
 Alpha  occ. eigenvalues --   -0.45636  -0.44805  -0.43201  -0.42369  -0.41337
 Alpha  occ. eigenvalues --   -0.40428  -0.38620  -0.36415  -0.35800  -0.35426
 Alpha  occ. eigenvalues --   -0.34153  -0.30118  -0.27908  -0.26513
 Alpha virt. eigenvalues --   -0.04179   0.07799   0.08123   0.10398   0.11772
 Alpha virt. eigenvalues --    0.13358   0.13712   0.14486   0.15635   0.16250
 Alpha virt. eigenvalues --    0.17319   0.18829   0.19989   0.20485   0.21249

 Mulliken charges:
               1
     1  C   -0.400781
     2  C   -0.198243
     3  C    0.296407
     4  C   -0.417614
     5  O   -0.253347
     6  C    0.405050
     7  O   -0.347720
     8  C   -0.234672
     9  C   -0.091376
    10  H    0.117993
    11  H    0.143309
    12  H    0.118610
    13  H    0.115099
    14  H    0.100787
    15  H    0.136021
    16  H    0.120027
    17  H    0.131857
    18  H    0.133953
    19  H    0.124641
 Sum of Mulliken charges =   0.00000

 Dipole moment (field-independent basis, Debye):
    X=             -3.6670    Y=              1.2552    Z=              2.6855  Tot=              4.7153
 Quadrupole moment (field-independent basis, Debye-Ang):
   XX=            -59.1538   YY=            -52.3227   ZZ=            -52.2220
   XY=              1.4725   XZ=              4.6122   YZ=             -0.2526

  Exact polarizability:  94.332  -7.340  68.332  -0.318   0.901  69.333
 Approx polarizability: 149.428 -18.640  93.722  -8.475   4.431 107.758

                      1                      2                      3
                      A                      A                      A
 Frequencies --     86.1806               107.4607               191.3952
 Red. masses --      2.7543                 2.7449                 2.4570
 Frc consts  --      0.0121                 0.0187                 0.0530
 IR Inten    --      1.6158                 0.0110                 2.2667

                      4                      5                      6
                      A                      A                      A
 Frequencies --    222.3382               229.6842               252.8948
 Red. masses --      1.4339                 1.1547                 2.1603
 Frc consts  --      0.0418                 0.0359                 0.0814
 IR Inten    --      0.2833                 0.1418                 1.2433

                      7                      8                      9
                      A                      A                      A
 Frequencies --    337.5320               353.9174               387.6413
 Red. masses --      2.6438                 3.1727                 2.7736
 Frc consts  --      0.1775                 0.2341                 0.2456
 IR Inten    --      0.9368                 1.7433                 0.2854

                     10                     11                     12
                      A                      A                      A
 Frequencies --    516.9973               558.2466               589.8992
 Red. masses --      4.2177                 3.0153                 4.3789
 Frc consts  --      0.6642                 0.5536                 0.8978
 IR Inten    --      3.3921                 1.3677                 0.4768

                     13                     14                     15
                      A                      A                      A
 Frequencies --    699.9026               732.4612               785.8283
 Red. masses --      4.9931                 2.4662                 1.3688
 Frc consts  --      1.4411                 0.7795                 0.4980
 IR Inten    --      7.6590                 1.1615                 1.4202

                     16                     17                     18
                      A                      A                      A
 Frequencies --    830.9656               844.0002               899.1234
 Red. masses --      5.6214                 2.0235                 2.6205
 Frc consts  --      2.2870                 0.8493                 1.2482
 IR Inten    --      2.4932                42.5276                16.0788

                     19                     20                     21
                      A                      A                      A
 Frequencies --    920.1620               968.5965               976.0470
 Red. masses --      1.7787                 3.3484                 1.3710
 Frc consts  --      0.8873                 1.8509                 0.7695
 IR Inten    --      3.2180                58.3472                 3.4845

                     22                     23                     24
                      A                      A                      A
 Frequencies --   1005.2728              1042.5966              1063.0539
 Red. masses --      1.4214                 2.3317                 1.4704
 Frc consts  --      0.8463                 1.4934                 0.9790
 IR Inten    --     12.0960                 9.7481                 2.1185

                     25                     26                     27
                      A                      A                      A
 Frequencies --   1088.1515              1136.2510              1157.5846
 Red. masses --      1.3310                 2.8426                 3.2075
 Frc consts  --      0.9286                 2.1623                 2.5323
 IR Inten    --     24.9928                79.4757                21.1364

                     28                     29                     30
                      A                      A                      A
 Frequencies --   1215.6588              1250.8200              1326.3069
 Red. masses --      2.5033                 2.2483                 1.4830
 Frc consts  --      2.1796                 2.0725                 1.5370
 IR Inten    --      8.0343                35.8412                15.0362

                     31                     32                     33
                      A                      A                      A
 Frequencies --   1347.1534              1374.7674              1406.5771
 Red. masses --      1.7990                 1.5626                 1.2298
 Frc consts  --      1.9236                 1.7400                 1.4335
 IR Inten    --      1.1334                 4.6292                 1.9845

                     34                     35                     36
                      A                      A                      A
 Frequencies --   1413.5351              1474.0814              1489.6216
 Red. masses --      1.2508                 1.0715                 1.0654
 Frc consts  --      1.4724                 1.3718                 1.3929
 IR Inten    --      4.2546                 0.7178                 1.9576

                     37                     38                     39
                      A                      A                      A
 Frequencies --   1492.8987              1496.5293              1508.7615
 Red. masses --      1.0518                 1.0420                 1.0527
 Frc consts  --      1.3811                 1.3749                 1.4119
 IR Inten    --      1.2768                 7.8526                 4.2080

                     40                     41                     42
                      A                      A                      A
 Frequencies --   1663.6733              1867.9793              3031.3451
 Red. masses --      6.8556                12.6516                 1.0591
 Frc consts  --     11.1797                26.0100                 5.7341
 IR Inten    --      7.2040               444.7908                18.3636

                     43                     44                     45
                      A                      A                      A
 Frequencies --   3045.0730              3046.4929              3070.6419
 Red. masses --      1.0355                 1.0359                 1.1014
 Frc consts  --      5.6570                 5.6647                 6.1185
 IR Inten    --     23.1185                17.4491                 9.4381

                     46                     47                     48
                      A                      A                      A
 Frequencies --   3112.9838              3120.0524              3126.0933
 Red. masses --      1.1014                 1.1016                 1.1017
 Frc consts  --      6.2884                 6.3181                 6.3431
 IR Inten    --     27.1976                10.9961                21.9681

                     49                     50                     51
                      A                      A                      A
 Frequencies --   3129.6663              3210.7411              3253.9034
 Red. masses --      1.1030                 1.0908                 1.1040
 Frc consts  --      6.3656                 6.6253                 6.8871
 IR Inten    --     16.8420                 2.5678                 0.9777

 - Thermochemistry -
 -------------------
 Temperature   298.150 Kelvin.  Pressure   1.00000 Atm.
 Atom     1 has atomic number  6 and mass  12.00000

 Molecular mass:   126.06808 amu.
 Principal axes and moments of inertia in atomic units:
                           1         2         3
     Eigenvalues --   765.251751259.263511462.27470
           X            0.99937   0.02378   0.02633
           Y           -0.02303   0.99933  -0.02848
           Z           -0.02699   0.02786   0.99925
 This molecule is an asymmetric top.
 Rotational symmetry number  1.
 Warning -- assumption of classical behavior for rotation
           may cause significant error
 Rotational temperatures (Kelvin)      0.11318     0.06878     0.05923
 Rotational constants (GHZ):           2.35836     1.43317     1.23420
 Zero-point vibrational energy     415460.3 (Joules/Mol)
                                   99.29740 (Kcal/Mol)
 Warning -- explicit consideration of  12 degrees of freedom as
           vibrations may cause significant error
 Vibrational temperatures:    123.99   154.61   275.37   319.89   330.46
          (Kelvin)            363.86   485.63   509.21   557.73   743.84
                              803.19   848.73  1007.00  1053.85  1130.63
                             1195.57  1214.33  1293.64  1323.91  1393.59
                             1404.31  1446.36  1500.06  1529.50  1565.61
                             1634.81  1665.50  1749.06  1799.65  1908.26
                             1938.25  1977.98  2023.75  2033.76  2120.87
                             2143.23  2147.95  2153.17  2170.77  2393.65
                             2687.60  4361.42  4381.18  4383.22  4417.96
                             4478.88  4489.05  4497.75  4502.89  4619.53
                             4681.64

 Zero-point correction=                           0.158240 (Hartree/Particle)
 Thermal correction to Energy=                    0.167152
 Thermal correction to Enthalpy=                  0.168096
 Thermal correction to Gibbs Free Energy=         0.124751
 Sum of electronic and zero-point Energies=           -423.090715
 Sum of electronic and thermal Energies=              -423.081803
 Sum of electronic and thermal Enthalpies=            -423.080859
 Sum of electronic and thermal Free Energies=         -423.124204

                     E (Thermal)             CV                S
                      KCal/Mol        Cal/Mol-Kelvin    Cal/Mol-Kelvin
 Total                  104.889             33.564             91.227
 Electronic               0.000              0.000              0.000
 Translational            0.889              2.981             40.409
 Rotational               0.889              2.981             28.734
 Vibrational            103.112             27.603             22.084
 Vibration     1          0.601              1.959              3.745
 Vibration     2          0.606              1.943              3.314
 Vibration     3          0.634              1.852              2.214
 Vibration     4          0.648              1.807              1.940
 Vibration     5          0.652              1.796              1.881
 Vibration     6          0.664              1.758              1.710
 Vibration     7          0.718              1.601              1.224
 Vibration     8          0.730              1.567              1.149
 Vibration     9          0.756              1.497              1.009
 Vibration    10          0.872              1.212              0.617
 Vibration    11          0.914              1.122              0.527
 Vibration    12          0.947              1.053              0.467

 Optimization completed.
    -- Stationary point found.
 Normal termination of Gaussian 09 at Tue Jan 28 09:35:14 2020.
