 Gaussian 09, Revision D.01,
 Gaussian 09:  ES64L-G09RevD.01 24-Apr-2013

 -----------------------------
 # b3lyp 6-31G(2df,p) opt Freq
 -----------------------------

 -----
 titel
 -----
 Symbolic Z-matrix:
 Charge =  0 Multiplicity = 1

 SCF Done:  E(RB3LYP) =  -423.128656539     A.U. after   14 cycles
 Optimization completed.
    -- Stationary point found.
 Normal termination of Gaussian 09 at Mon Jan 27 17:45:38 2020.

 ----------------------------------------------------------------------
 #N Geom=AllCheck Guess=TCheck SCRF=Check GenChk RB3LYP/6-31G(2df,p) Fr
 eq
 ----------------------------------------------------------------------

 Structure from the checkpoint file:  "/scratch/puck/g09_49c6f922-01f2-422f-a446-093a3192826f/Gau-15715.chk"
 -----
 titel
 -----
 Charge =  0 Multiplicity = 1

                         Standard orientation:
 ---------------------------------------------------------------------
 Center     Atomic      Atomic             Coordinates (Angstroms)
 Number     Number       Type             X           Y           Z
 ---------------------------------------------------------------------
      1          6           0       -2.421283    0.269712    0.287190
      2          6           0       -1.016160   -0.186309    0.072620
      3          8           0       -0.602856   -1.455744    0.592396
      4          6           0       -0.391731   -1.193014   -0.808377
      5          6           0        0.907680   -0.366617   -0.948180
      6          6           0        2.015810   -0.620738    0.117481
      7          6           0        1.386715    0.475349    1.036918
      8          6           0        0.269395    0.709024   -0.023618
      9          8           0        0.061604    1.991056   -0.542131
     10          1           0       -2.636278    1.134750   -0.347337
     11          1           0       -3.126572   -0.529987    0.045645
     12          1           0       -2.585231    0.560658    1.331793
     13          1           0       -0.828001   -1.904922   -1.501599
     14          1           0        1.195143   -0.108270   -1.966719
     15          1           0        2.015816   -1.625880    0.540254
     16          1           0        3.020259   -0.378079   -0.234745
     17          1           0        1.052504    0.137501    2.019558
     18          1           0        2.016855    1.361702    1.146375
     19          1           0       -0.297046    2.545584    0.160450
 ---------------------------------------------------------------------

 SCF Done:  E(RB3LYP) =  -423.128656539     A.U. after    1 cycles

 The electronic state is 1-A.
 Alpha  occ. eigenvalues --  -19.14776 -19.14662 -10.23508 -10.23242 -10.23108
 Alpha  occ. eigenvalues --  -10.18662 -10.18269 -10.17693 -10.17439  -1.07443
 Alpha  occ. eigenvalues --   -1.02796  -0.83585  -0.74890  -0.71190  -0.65600
 Alpha  occ. eigenvalues --   -0.60169  -0.57569  -0.54204  -0.50561  -0.48311
 Alpha  occ. eigenvalues --   -0.46908  -0.43453  -0.42602  -0.41062  -0.39779
 Alpha  occ. eigenvalues --   -0.38622  -0.36923  -0.35005  -0.34035  -0.32084
 Alpha  occ. eigenvalues --   -0.31357  -0.27134  -0.25300  -0.23910
 Alpha virt. eigenvalues --    0.06672   0.08349   0.09690   0.11035   0.12784
 Alpha virt. eigenvalues --    0.13857   0.13994   0.14971   0.15743   0.16440
 Alpha virt. eigenvalues --    0.18198   0.18823   0.19803   0.21821   0.22049

 Mulliken charges:
               1
     1  C   -0.523956
     2  C    0.355637
     3  O   -0.283079
     4  C   -0.061257
     5  C   -0.100800
     6  C   -0.220693
     7  C   -0.294183
     8  C    0.338173
     9  O   -0.477668
    10  H    0.133086
    11  H    0.136175
    12  H    0.125490
    13  H    0.098832
    14  H    0.081066
    15  H    0.112870
    16  H    0.099040
    17  H    0.103224
    18  H    0.098217
    19  H    0.279826
 Sum of Mulliken charges =   0.00000

 Dipole moment (field-independent basis, Debye):
    X=             -0.6395    Y=              1.0244    Z=              0.0328  Tot=              1.2081
 Quadrupole moment (field-independent basis, Debye-Ang):
   XX=            -50.6784   YY=            -53.3191   ZZ=            -53.0970
   XY=             -1.8292   XZ=              0.0274   YZ=              5.9007

  Exact polarizability:  82.780  -1.896  73.272  -1.245   5.023  67.370
 Approx polarizability: 107.032  -2.970 112.046  -4.284   3.912 106.780

                      1                      2                      3
                      A                      A                      A
 Frequencies --    141.2701               192.0505               201.1690
 Red. masses --      2.6132                 1.0451                 2.5458
 Frc consts  --      0.0307                 0.0227                 0.0607
 IR Inten    --      0.5596                 3.2347                 0.4756

                      4                      5                      6
                      A                      A                      A
 Frequencies --    222.4620               255.5298               286.5985
 Red. masses --      2.1704                 1.2400                 3.4134
 Frc consts  --      0.0633                 0.0477                 0.1652
 IR Inten    --      1.0344                81.4744                17.7637

                      7                      8                      9
                      A                      A                      A
 Frequencies --    359.1755               413.5489               465.7918
 Red. masses --      3.2843                 4.3300                 2.6433
 Frc consts  --      0.2496                 0.4363                 0.3379
 IR Inten    --     12.3440                24.0290                 0.3937

                     10                     11                     12
                      A                      A                      A
 Frequencies --    536.1575               594.7621               652.2602
 Red. masses --      4.4108                 3.9922                 3.3522
 Frc consts  --      0.7470                 0.8321                 0.8403
 IR Inten    --      5.1247                 2.4104                 2.4106

                     13                     14                     15
                      A                      A                      A
 Frequencies --    725.8049               771.2790               786.4251
 Red. masses --      1.5728                 3.4091                 3.1216
 Frc consts  --      0.4882                 1.1948                 1.1375
 IR Inten    --      4.4091                 2.8479                 5.9294

                     16                     17                     18
                      A                      A                      A
 Frequencies --    831.2335               862.4053               908.7028
 Red. masses --      2.4453                 2.2300                 1.9623
 Frc consts  --      0.9955                 0.9772                 0.9547
 IR Inten    --      2.7249                23.5329                 0.8066

                     19                     20                     21
                      A                      A                      A
 Frequencies --    943.9399               968.9985               993.7528
 Red. masses --      2.8288                 1.7304                 2.0348
 Frc consts  --      1.4851                 0.9573                 1.1839
 IR Inten    --      2.4743                 2.0403                 2.0178

                     22                     23                     24
                      A                      A                      A
 Frequencies --   1013.3810              1041.1319              1088.4513
 Red. masses --      2.4717                 1.7488                 2.2370
 Frc consts  --      1.4955                 1.1169                 1.5615
 IR Inten    --     18.5796                13.8703                17.9085

                     25                     26                     27
                      A                      A                      A
 Frequencies --   1096.9754              1106.1882              1128.1374
 Red. masses --      1.9125                 1.9521                 1.6836
 Frc consts  --      1.3560                 1.4074                 1.2624
 IR Inten    --      5.5305                14.7050                 5.2890

                     28                     29                     30
                      A                      A                      A
 Frequencies --   1208.1905              1221.8593              1234.0672
 Red. masses --      2.8693                 1.3640                 1.4551
 Frc consts  --      2.4677                 1.1998                 1.3057
 IR Inten    --     46.1708                11.0758                14.4088

                     31                     32                     33
                      A                      A                      A
 Frequencies --   1248.8319              1274.9464              1282.9224
 Red. masses --      1.3197                 1.5950                 1.7272
 Frc consts  --      1.2127                 1.5275                 1.6750
 IR Inten    --     10.6648                 0.8537                10.4423

                     34                     35                     36
                      A                      A                      A
 Frequencies --   1294.3548              1367.2796              1394.8914
 Red. masses --      1.9883                 1.9357                 1.2843
 Frc consts  --      1.9626                 2.1321                 1.4723
 IR Inten    --     66.4134                 4.6015                 3.6590

                     37                     38                     39
                      A                      A                      A
 Frequencies --   1452.3183              1456.7780              1478.1675
 Red. masses --      1.2682                 2.1997                 1.1546
 Frc consts  --      1.5760                 2.7504                 1.4864
 IR Inten    --      3.3325                13.5887                 4.3856

                     40                     41                     42
                      A                      A                      A
 Frequencies --   1482.2691              1495.6545              3030.4201
 Red. masses --      1.1016                 1.1685                 1.0382
 Frc consts  --      1.4260                 1.5400                 5.6175
 IR Inten    --      6.3951                 2.0403                24.0513

                     43                     44                     45
                      A                      A                      A
 Frequencies --   3063.1465              3076.7631              3095.9314
 Red. masses --      1.0581                 1.0602                 1.0965
 Frc consts  --      5.8494                 5.9131                 6.1921
 IR Inten    --     30.1835                38.2948                13.7035

                     46                     47                     48
                      A                      A                      A
 Frequencies --   3119.4543              3122.5023              3125.2908
 Red. masses --      1.1047                 1.1016                 1.0923
 Frc consts  --      6.3334                 6.3281                 6.2859
 IR Inten    --      7.9236                10.8490                 4.7822

                     49                     50                     51
                      A                      A                      A
 Frequencies --   3140.5156              3167.9223              3788.5821
 Red. masses --      1.1065                 1.0943                 1.0658
 Frc consts  --      6.4300                 6.4704                 9.0131
 IR Inten    --     31.9053                27.1296                17.8182

 - Thermochemistry -
 -------------------
 Temperature   298.150 Kelvin.  Pressure   1.00000 Atm.
 Atom     1 has atomic number  6 and mass  12.00000

 Molecular mass:   126.06808 amu.
 Principal axes and moments of inertia in atomic units:
                           1         2         3
     Eigenvalues --   729.20125 979.381901303.67192
           X            0.99864  -0.05196   0.00492
           Y            0.05163   0.99727   0.05287
           Z           -0.00765  -0.05255   0.99859
 This molecule is an asymmetric top.
 Rotational symmetry number  1.
 Warning -- assumption of classical behavior for rotation
           may cause significant error
 Rotational temperatures (Kelvin)      0.11878     0.08844     0.06644
 Rotational constants (GHZ):           2.47496     1.84273     1.38435
 Zero-point vibrational energy     413971.6 (Joules/Mol)
                                   98.94158 (Kcal/Mol)
 Warning -- explicit consideration of  11 degrees of freedom as
           vibrations may cause significant error
 Vibrational temperatures:    203.26   276.32   289.44   320.07   367.65
          (Kelvin)            412.35   516.77   595.00   670.17   771.41
                              855.73   938.46  1044.27  1109.70  1131.49
                             1195.96  1240.81  1307.42  1358.12  1394.17
                             1429.79  1458.03  1497.95  1566.04  1578.30
                             1591.56  1623.14  1738.31  1757.98  1775.55
                             1796.79  1834.36  1845.84  1862.29  1967.21
                             2006.94  2089.56  2095.98  2126.75  2132.65
                             2151.91  4360.09  4407.18  4426.77  4454.35
                             4488.19  4492.58  4496.59  4518.50  4557.93
                             5450.92

 Zero-point correction=                           0.157673 (Hartree/Particle)
 Thermal correction to Energy=                    0.166018
 Thermal correction to Enthalpy=                  0.166962
 Thermal correction to Gibbs Free Energy=         0.125415
 Sum of electronic and zero-point Energies=           -422.970983
 Sum of electronic and thermal Energies=              -422.962639
 Sum of electronic and thermal Enthalpies=            -422.961695
 Sum of electronic and thermal Free Energies=         -423.003241

                     E (Thermal)             CV                S
                      KCal/Mol        Cal/Mol-Kelvin    Cal/Mol-Kelvin
 Total                  104.178             32.974             87.443
 Electronic               0.000              0.000              0.000
 Translational            0.889              2.981             40.409
 Rotational               0.889              2.981             28.323
 Vibrational            102.400             27.012             18.711
 Vibration     1          0.615              1.912              2.787
 Vibration     2          0.634              1.851              2.208
 Vibration     3          0.638              1.838              2.122
 Vibration     4          0.648              1.807              1.939
 Vibration     5          0.666              1.753              1.692
 Vibration     6          0.684              1.699              1.494
 Vibration     7          0.734              1.556              1.126
 Vibration     8          0.777              1.441              0.914
 Vibration     9          0.823              1.326              0.749
 Vibration    10          0.891              1.170              0.574
 Vibration    11          0.952              1.043              0.459

 Optimization completed.
    -- Stationary point found.
 Normal termination of Gaussian 09 at Mon Jan 27 19:48:54 2020.
