 Gaussian 09, Revision D.01,
 Gaussian 09:  ES64L-G09RevD.01 24-Apr-2013

 -----------------------------
 # b3lyp 6-31G(2df,p) opt Freq
 -----------------------------

 -----
 titel
 -----
 Symbolic Z-matrix:
 Charge =  0 Multiplicity = 1

 SCF Done:  E(RB3LYP) =  -423.202693834     A.U. after   14 cycles
 Optimization completed.
    -- Stationary point found.
 Normal termination of Gaussian 09 at Tue Jan 28 00:38:50 2020.

 ----------------------------------------------------------------------
 #N Geom=AllCheck Guess=TCheck SCRF=Check GenChk RB3LYP/6-31G(2df,p) Fr
 eq
 ----------------------------------------------------------------------

 Structure from the checkpoint file:  "/scratch/puck/g09_86c032ee-0191-4b06-b675-7f44c1bb519f/Gau-71493.chk"
 -----
 titel
 -----
 Charge =  0 Multiplicity = 1

                         Standard orientation:
 ---------------------------------------------------------------------
 Center     Atomic      Atomic             Coordinates (Angstroms)
 Number     Number       Type             X           Y           Z
 ---------------------------------------------------------------------
      1          6           0       -2.420739   -0.415771   -0.526755
      2          6           0       -1.217175   -0.599728    0.405425
      3          6           0       -0.733717    0.739372    0.999008
      4          6           0        0.271720    1.288247   -0.020550
      5          8           0        0.544818    2.446293   -0.203472
      6          6           0        0.869949    0.104200   -0.778802
      7          6           0        1.982861   -0.619106    0.019418
      8          8           0        1.052353   -1.608567    0.499680
      9          6           0        0.006471   -1.112457   -0.371864
     10          1           0       -3.279645   -0.015801    0.020224
     11          1           0       -2.196401    0.284952   -1.340372
     12          1           0       -2.720212   -1.366314   -0.979690
     13          1           0       -1.466425   -1.320979    1.190101
     14          1           0       -1.524784    1.464912    1.199225
     15          1           0       -0.191718    0.573565    1.938431
     16          1           0        1.075157    0.334565   -1.822839
     17          1           0        2.760136   -1.060386   -0.616718
     18          1           0        2.459849   -0.060322    0.832936
     19          1           0       -0.249534   -1.844538   -1.146245
 ---------------------------------------------------------------------

 SCF Done:  E(RB3LYP) =  -423.202693834     A.U. after    1 cycles

 The electronic state is 1-A.
 Alpha  occ. eigenvalues --  -19.14171 -19.13349 -10.27070 -10.24515 -10.24244
 Alpha  occ. eigenvalues --  -10.20046 -10.19975 -10.19133 -10.18754  -1.05166
 Alpha  occ. eigenvalues --   -1.04131  -0.83510  -0.76104  -0.71220  -0.69389
 Alpha  occ. eigenvalues --   -0.61964  -0.56694  -0.53499  -0.51038  -0.49093
 Alpha  occ. eigenvalues --   -0.46330  -0.44533  -0.43647  -0.41719  -0.41574
 Alpha  occ. eigenvalues --   -0.39973  -0.39556  -0.36494  -0.35201  -0.34045
 Alpha  occ. eigenvalues --   -0.32267  -0.31792  -0.26110  -0.24020
 Alpha virt. eigenvalues --   -0.02351   0.07541   0.08208   0.10779   0.11936
 Alpha virt. eigenvalues --    0.13341   0.14156   0.14312   0.15419   0.15995
 Alpha virt. eigenvalues --    0.17898   0.18518   0.18853   0.20789   0.21409

 Mulliken charges:
               1
     1  C   -0.405786
     2  C   -0.018673
     3  C   -0.336634
     4  C    0.403799
     5  O   -0.320127
     6  C   -0.184544
     7  C   -0.088657
     8  O   -0.298847
     9  C    0.125918
    10  H    0.124552
    11  H    0.122665
    12  H    0.120875
    13  H    0.090385
    14  H    0.123791
    15  H    0.138098
    16  H    0.100521
    17  H    0.111502
    18  H    0.115948
    19  H    0.075213
 Sum of Mulliken charges =   0.00000

 Dipole moment (field-independent basis, Debye):
    X=             -0.9039    Y=             -1.4995    Z=             -0.4932  Tot=              1.8190
 Quadrupole moment (field-independent basis, Debye-Ang):
   XX=            -49.5101   YY=            -64.3862   ZZ=            -51.3591
   XY=             -0.3806   XZ=             -1.1157   YZ=              3.2206

  Exact polarizability:  82.002   1.022  75.357  -1.694   1.714  65.510
 Approx polarizability: 107.674   3.029 117.471  -1.962  -2.539 100.459

                      1                      2                      3
                      A                      A                      A
 Frequencies --     84.3290               111.3121               220.2908
 Red. masses --      4.2369                 3.0831                 1.6077
 Frc consts  --      0.0178                 0.0225                 0.0460
 IR Inten    --      4.7423                 2.0930                 1.0128

                      4                      5                      6
                      A                      A                      A
 Frequencies --    227.1402               251.7681               330.4084
 Red. masses --      2.4562                 1.7329                 2.2187
 Frc consts  --      0.0747                 0.0647                 0.1427
 IR Inten    --      2.0474                 4.1605                 1.1493

                      7                      8                      9
                      A                      A                      A
 Frequencies --    423.1250               455.7444               516.2843
 Red. masses --      4.5900                 3.3824                 3.0823
 Frc consts  --      0.4842                 0.4139                 0.4841
 IR Inten    --      7.8470                 1.4320                 2.4290

                     10                     11                     12
                      A                      A                      A
 Frequencies --    634.6500               678.0748               749.1545
 Red. masses --      3.5575                 3.6909                 3.0601
 Frc consts  --      0.8442                 0.9998                 1.0119
 IR Inten    --      1.2761                 2.5381                 2.5809

                     13                     14                     15
                      A                      A                      A
 Frequencies --    825.3970               843.4651               880.5685
 Red. masses --      2.3044                 2.9880                 2.0883
 Frc consts  --      0.9250                 1.2525                 0.9540
 IR Inten    --      1.6681                 7.5329                 1.2050

                     16                     17                     18
                      A                      A                      A
 Frequencies --    893.8857               938.8944               961.4893
 Red. masses --      2.2292                 2.1276                 1.9328
 Frc consts  --      1.0495                 1.1050                 1.0528
 IR Inten    --     10.2259                10.9177                 4.0224

                     19                     20                     21
                      A                      A                      A
 Frequencies --    988.3738              1023.3477              1032.2667
 Red. masses --      1.9205                 2.0793                 3.1721
 Frc consts  --      1.1054                 1.2830                 1.9915
 IR Inten    --      9.7231                29.6133                73.3166

                     22                     23                     24
                      A                      A                      A
 Frequencies --   1043.5833              1104.3369              1112.3659
 Red. masses --      2.7106                 1.6384                 1.7216
 Frc consts  --      1.7393                 1.1772                 1.2551
 IR Inten    --      6.0713                 7.9716                 0.5507

                     25                     26                     27
                      A                      A                      A
 Frequencies --   1153.4979              1174.8120              1190.4381
 Red. masses --      1.5395                 1.9252                 1.6194
 Frc consts  --      1.2069                 1.5655                 1.3521
 IR Inten    --     28.8767                31.9577                11.6429

                     28                     29                     30
                      A                      A                      A
 Frequencies --   1210.6982              1231.5465              1275.5389
 Red. masses --      1.5492                 1.8456                 1.6573
 Frc consts  --      1.3379                 1.6493                 1.5887
 IR Inten    --      6.8036                 1.7852                 5.5191

                     31                     32                     33
                      A                      A                      A
 Frequencies --   1283.1726              1315.2247              1325.1812
 Red. masses --      1.3940                 1.3004                 1.5075
 Frc consts  --      1.3523                 1.3254                 1.5597
 IR Inten    --      4.0158                 7.0368                 1.8048

                     34                     35                     36
                      A                      A                      A
 Frequencies --   1362.8309              1369.9044              1411.6315
 Red. masses --      1.5454                 1.5207                 1.2270
 Frc consts  --      1.6912                 1.6815                 1.4406
 IR Inten    --      6.2415                 5.4926                 4.6226

                     37                     38                     39
                      A                      A                      A
 Frequencies --   1450.4569              1497.1138              1500.5562
 Red. masses --      1.0924                 1.0511                 1.0478
 Frc consts  --      1.3541                 1.3881                 1.3901
 IR Inten    --     10.8362                 4.4521                 4.0412

                     40                     41                     42
                      A                      A                      A
 Frequencies --   1525.8654              1843.7109              3016.0588
 Red. masses --      1.0969                12.3368                 1.0558
 Frc consts  --      1.5046                24.7081                 5.6588
 IR Inten    --      0.2293               211.8427                78.8422

                     43                     44                     45
                      A                      A                      A
 Frequencies --   3027.2547              3041.6378              3042.2513
 Red. masses --      1.0388                 1.0826                 1.0696
 Frc consts  --      5.6088                 5.9013                 5.8324
 IR Inten    --     13.3572                30.1345                23.8241

                     46                     47                     48
                      A                      A                      A
 Frequencies --   3061.1424              3063.4309              3094.6339
 Red. masses --      1.0847                 1.1102                 1.0983
 Frc consts  --      5.9888                 6.1384                 6.1971
 IR Inten    --      8.8202                30.2639                35.7697

                     49                     50                     51
                      A                      A                      A
 Frequencies --   3109.2883              3115.3659              3132.2583
 Red. masses --      1.1018                 1.0967                 1.0889
 Frc consts  --      6.2756                 6.2714                 6.2944
 IR Inten    --     15.8985                14.5182                11.1249

 - Thermochemistry -
 -------------------
 Temperature   298.150 Kelvin.  Pressure   1.00000 Atm.
 Atom     1 has atomic number  6 and mass  12.00000

 Molecular mass:   126.06808 amu.
 Principal axes and moments of inertia in atomic units:
                           1         2         3
     Eigenvalues --   880.01442 937.878151489.69349
           X            0.99933   0.03654   0.00186
           Y           -0.03657   0.99894   0.02808
           Z           -0.00083  -0.02813   0.99960
 This molecule is an asymmetric top.
 Rotational symmetry number  1.
 Warning -- assumption of classical behavior for rotation
           may cause significant error
 Rotational temperatures (Kelvin)      0.09842     0.09235     0.05814
 Rotational constants (GHZ):           2.05081     1.92428     1.21148
 Zero-point vibrational energy     419624.6 (Joules/Mol)
                                  100.29269 (Kcal/Mol)
 Warning -- explicit consideration of   9 degrees of freedom as
           vibrations may cause significant error
 Vibrational temperatures:    121.33   160.15   316.95   326.80   362.24
          (Kelvin)            475.38   608.78   655.71   742.82   913.12
                              975.60  1077.86  1187.56  1213.56  1266.94
                             1286.10  1350.86  1383.37  1422.05  1472.37
                             1485.20  1501.48  1588.89  1600.44  1659.62
                             1690.29  1712.77  1741.92  1771.92  1835.21
                             1846.20  1892.31  1906.64  1960.81  1970.98
                             2031.02  2086.88  2154.01  2158.96  2195.38
                             2652.69  4339.43  4355.54  4376.23  4377.12
                             4404.30  4407.59  4452.48  4473.57  4482.31
                             4506.62

 Zero-point correction=                           0.159827 (Hartree/Particle)
 Thermal correction to Energy=                    0.167873
 Thermal correction to Enthalpy=                  0.168817
 Thermal correction to Gibbs Free Energy=         0.127045
 Sum of electronic and zero-point Energies=           -423.042867
 Sum of electronic and thermal Energies=              -423.034821
 Sum of electronic and thermal Enthalpies=            -423.033876
 Sum of electronic and thermal Free Energies=         -423.075649

                     E (Thermal)             CV                S
                      KCal/Mol        Cal/Mol-Kelvin    Cal/Mol-Kelvin
 Total                  105.342             30.776             87.918
 Electronic               0.000              0.000              0.000
 Translational            0.889              2.981             40.409
 Rotational               0.889              2.981             28.599
 Vibrational            103.565             24.814             18.910
 Vibration     1          0.601              1.960              3.788
 Vibration     2          0.607              1.940              3.246
 Vibration     3          0.647              1.810              1.957
 Vibration     4          0.651              1.800              1.901
 Vibration     5          0.664              1.760              1.718
 Vibration     6          0.713              1.615              1.258
 Vibration     7          0.785              1.420              0.881
 Vibration     8          0.814              1.348              0.779
 Vibration     9          0.871              1.214              0.619

 Normal termination of Gaussian 09 at Tue Jan 28 01:23:25 2020.
