 Gaussian 09, Revision D.01,
 Gaussian 09:  ES64L-G09RevD.01 24-Apr-2013

 -----------------------------
 # b3lyp 6-31G(2df,p) opt Freq
 -----------------------------

 -----
 titel
 -----
 Symbolic Z-matrix:
 Charge =  0 Multiplicity = 1

 SCF Done:  E(RB3LYP) =  -423.148337605     A.U. after   14 cycles
 Optimization completed.
    -- Stationary point found.
 Normal termination of Gaussian 09 at Mon Jan 27 16:17:56 2020.

 ----------------------------------------------------------------------
 #N Geom=AllCheck Guess=TCheck SCRF=Check GenChk RB3LYP/6-31G(2df,p) Fr
 eq
 ----------------------------------------------------------------------

 Structure from the checkpoint file:  "/scratch/puck/g09_57b67870-fdb0-4438-988a-6d06ee74b9dc/Gau-83489.chk"
 -----
 titel
 -----
 Charge =  0 Multiplicity = 1

                         Standard orientation:
 ---------------------------------------------------------------------
 Center     Atomic      Atomic             Coordinates (Angstroms)
 Number     Number       Type             X           Y           Z
 ---------------------------------------------------------------------
      1          6           0        2.253623    0.466220   -0.642881
      2          6           0        0.983944   -0.011172    0.070112
      3          8           0        1.294481   -0.394511    1.408275
      4          6           0        0.254218   -1.147763   -0.727947
      5          6           0       -1.206294   -0.718317   -0.726752
      6          8           0       -1.656241   -0.671230    0.666787
      7          6           0       -1.444807    0.737403    0.660859
      8          6           0       -1.212369    0.829215   -0.813918
      9          6           0       -0.066259    1.096183    0.140883
     10          1           0        2.026290    0.866668   -1.635793
     11          1           0        2.748665    1.245127   -0.055361
     12          1           0        2.958452   -0.364528   -0.773698
     13          1           0        2.011154   -1.036979    1.373027
     14          1           0        0.631547   -1.217324   -1.755083
     15          1           0        0.390482   -2.116221   -0.238792
     16          1           0       -1.893619   -1.293836   -1.349262
     17          1           0       -2.010361    1.340559    1.360925
     18          1           0       -1.597462    1.472832   -1.592256
     19          1           0        0.256589    2.119015    0.303654
 ---------------------------------------------------------------------

 SCF Done:  E(RB3LYP) =  -423.148337605     A.U. after    1 cycles

 The electronic state is 1-A.
 Alpha  occ. eigenvalues --  -19.12741 -19.12640 -10.23931 -10.23623 -10.23535
 Alpha  occ. eigenvalues --  -10.18967 -10.18730 -10.17862 -10.17738  -1.04902
 Alpha  occ. eigenvalues --   -1.00962  -0.84379  -0.77090  -0.72646  -0.65614
 Alpha  occ. eigenvalues --   -0.61191  -0.55568  -0.53634  -0.52825  -0.48853
 Alpha  occ. eigenvalues --   -0.46668  -0.44180  -0.42007  -0.41326  -0.40028
 Alpha  occ. eigenvalues --   -0.38733  -0.36320  -0.35743  -0.33784  -0.31640
 Alpha  occ. eigenvalues --   -0.30831  -0.27344  -0.26053  -0.22021
 Alpha virt. eigenvalues --    0.07380   0.09016   0.10701   0.11981   0.12185
 Alpha virt. eigenvalues --    0.13607   0.14605   0.15504   0.16226   0.17239
 Alpha virt. eigenvalues --    0.17533   0.18319   0.18725   0.21009   0.21609

 Mulliken charges:
               1
     1  C   -0.449707
     2  C    0.396326
     3  O   -0.470040
     4  C   -0.265671
     5  C    0.080830
     6  O   -0.300588
     7  C    0.101453
     8  C   -0.167277
     9  C   -0.100728
    10  H    0.117651
    11  H    0.122354
    12  H    0.104835
    13  H    0.272470
    14  H    0.091473
    15  H    0.105340
    16  H    0.078858
    17  H    0.103327
    18  H    0.094600
    19  H    0.084494
 Sum of Mulliken charges =   0.00000

 Dipole moment (field-independent basis, Debye):
    X=              1.2513    Y=              0.5454    Z=             -2.1626  Tot=              2.5573
 Quadrupole moment (field-independent basis, Debye-Ang):
   XX=            -51.4430   YY=            -49.8493   ZZ=            -54.8454
   XY=             -4.3562   XZ=              1.8121   YZ=              1.3699

  Exact polarizability:  79.622  -1.511  71.713   0.297   2.549  68.770
 Approx polarizability: 106.912  -0.255 106.742  -0.210   1.719 110.022

                      1                      2                      3
                      A                      A                      A
 Frequencies --    119.3699               235.8553               267.4117
 Red. masses --      3.7422                 3.1545                 1.0599
 Frc consts  --      0.0314                 0.1034                 0.0447
 IR Inten    --      0.3710                 1.6382                 0.8687

                      4                      5                      6
                      A                      A                      A
 Frequencies --    273.8697               329.0335               370.6867
 Red. masses --      1.0657                 3.7961                 2.3808
 Frc consts  --      0.0471                 0.2421                 0.1927
 IR Inten    --     90.3637                 4.1746                 3.5709

                      7                      8                      9
                      A                      A                      A
 Frequencies --    417.0215               441.3681               557.5677
 Red. masses --      2.6789                 3.5864                 3.8394
 Frc consts  --      0.2745                 0.4116                 0.7033
 IR Inten    --     12.1546                10.6545                 1.8187

                     10                     11                     12
                      A                      A                      A
 Frequencies --    630.4365               672.2159               761.3253
 Red. masses --      3.7882                 5.0558                 1.8883
 Frc consts  --      0.8871                 1.3460                 0.6449
 IR Inten    --      0.7552                 4.7835                 6.0362

                     13                     14                     15
                      A                      A                      A
 Frequencies --    789.5023               806.5250               848.7195
 Red. masses --      2.4127                 2.5431                 2.5070
 Frc consts  --      0.8861                 0.9747                 1.0640
 IR Inten    --      9.3005                 4.3365                 8.8094

                     16                     17                     18
                      A                      A                      A
 Frequencies --    854.4033               902.5277               944.6071
 Red. masses --      2.6967                 1.9749                 1.9661
 Frc consts  --      1.1599                 0.9478                 1.0336
 IR Inten    --      6.1737                10.1864                 1.5382

                     19                     20                     21
                      A                      A                      A
 Frequencies --    952.0952               971.9763               993.6695
 Red. masses --      2.1064                 1.9615                 2.2594
 Frc consts  --      1.1250                 1.0918                 1.3144
 IR Inten    --     24.9444                 6.1377                 6.0442

                     22                     23                     24
                      A                      A                      A
 Frequencies --    996.1818              1033.2297              1053.3570
 Red. masses --      1.7191                 2.8326                 1.7853
 Frc consts  --      1.0051                 1.7817                 1.1671
 IR Inten    --     20.2850                32.2761                11.5152

                     25                     26                     27
                      A                      A                      A
 Frequencies --   1075.9753              1081.4723              1122.4444
 Red. masses --      1.7699                 1.7801                 1.6654
 Frc consts  --      1.2073                 1.2267                 1.2362
 IR Inten    --      8.3385                 9.3270                57.8555

                     28                     29                     30
                      A                      A                      A
 Frequencies --   1125.9018              1198.1318              1211.6693
 Red. masses --      1.8266                 2.7098                 1.9234
 Frc consts  --      1.3642                 2.2919                 1.6638
 IR Inten    --      6.0449                10.5909                48.1869

                     31                     32                     33
                      A                      A                      A
 Frequencies --   1227.6324              1268.1504              1278.7868
 Red. masses --      1.5091                 1.3361                 1.7787
 Frc consts  --      1.3400                 1.2660                 1.7138
 IR Inten    --      4.0428                21.3540                 8.2720

                     34                     35                     36
                      A                      A                      A
 Frequencies --   1300.7062              1344.3054              1380.5233
 Red. masses --      1.6491                 1.4642                 1.9483
 Frc consts  --      1.6438                 1.5590                 2.1878
 IR Inten    --      6.5036                18.9890                 8.8140

                     37                     38                     39
                      A                      A                      A
 Frequencies --   1401.8317              1412.3858              1461.6610
 Red. masses --      1.3385                 2.2140                 1.1110
 Frc consts  --      1.5497                 2.6021                 1.3985
 IR Inten    --     14.3782                17.6936                 1.4301

                     40                     41                     42
                      A                      A                      A
 Frequencies --   1491.2417              1496.0359              3021.8000
 Red. masses --      1.0512                 1.0746                 1.0383
 Frc consts  --      1.3773                 1.4170                 5.5861
 IR Inten    --      1.3226                 4.4175                18.0745

                     43                     44                     45
                      A                      A                      A
 Frequencies --   3037.4672              3089.8078              3097.7336
 Red. masses --      1.0619                 1.0974                 1.0936
 Frc consts  --      5.7725                 6.1726                 6.1831
 IR Inten    --     29.0012                21.7877                36.9735

                     46                     47                     48
                      A                      A                      A
 Frequencies --   3100.4526              3114.2492              3171.7741
 Red. masses --      1.0979                 1.1024                 1.0891
 Frc consts  --      6.2181                 6.2995                 6.4551
 IR Inten    --     28.3154                23.2443                 6.8557

                     49                     50                     51
                      A                      A                      A
 Frequencies --   3186.7587              3210.6012              3805.3217
 Red. masses --      1.0911                 1.0999                 1.0659
 Frc consts  --      6.5285                 6.6803                 9.0942
 IR Inten    --     24.5626                13.3328                10.3629

 - Thermochemistry -
 -------------------
 Temperature   298.150 Kelvin.  Pressure   1.00000 Atm.
 Atom     1 has atomic number  6 and mass  12.00000

 Molecular mass:   126.06808 amu.
 Principal axes and moments of inertia in atomic units:
                           1         2         3
     Eigenvalues --   599.052571147.995301161.96588
           X            0.99987  -0.00428  -0.01522
           Y            0.00993  -0.57913   0.81517
           Z            0.01230   0.81522   0.57902
 This molecule is an asymmetric top.
 Rotational symmetry number  1.
 Warning -- assumption of classical behavior for rotation
           may cause significant error
 Rotational temperatures (Kelvin)      0.14458     0.07545     0.07454
 Rotational constants (GHZ):           3.01266     1.57208     1.55318
 Zero-point vibrational energy     418320.8 (Joules/Mol)
                                   99.98107 (Kcal/Mol)
 Warning -- explicit consideration of   9 degrees of freedom as
           vibrations may cause significant error
 Vibrational temperatures:    171.75   339.34   384.75   394.04   473.41
          (Kelvin)            533.33   600.00   635.03   802.21   907.06
                              967.17  1095.38  1135.92  1160.41  1221.12
                             1229.29  1298.53  1359.08  1369.85  1398.46
                             1429.67  1433.28  1486.59  1515.54  1548.09
                             1556.00  1614.95  1619.92  1723.84  1743.32
                             1766.29  1824.58  1839.89  1871.42  1934.15
                             1986.26  2016.92  2032.11  2103.00  2145.56
                             2152.46  4347.69  4370.23  4445.54  4456.94
                             4460.85  4480.70  4563.47  4585.03  4619.33
                             5475.00

 Zero-point correction=                           0.159330 (Hartree/Particle)
 Thermal correction to Energy=                    0.166956
 Thermal correction to Enthalpy=                  0.167901
 Thermal correction to Gibbs Free Energy=         0.127783
 Sum of electronic and zero-point Energies=           -422.989008
 Sum of electronic and thermal Energies=              -422.981381
 Sum of electronic and thermal Enthalpies=            -422.980437
 Sum of electronic and thermal Free Energies=         -423.020554

                     E (Thermal)             CV                S
                      KCal/Mol        Cal/Mol-Kelvin    Cal/Mol-Kelvin
 Total                  104.767             31.314             84.434
 Electronic               0.000              0.000              0.000
 Translational            0.889              2.981             40.409
 Rotational               0.889              2.981             28.171
 Vibrational            102.989             25.352             15.854
 Vibration     1          0.609              1.933              3.111
 Vibration     2          0.655              1.786              1.834
 Vibration     3          0.673              1.733              1.613
 Vibration     4          0.676              1.722              1.572
 Vibration     5          0.712              1.617              1.265
 Vibration     6          0.743              1.532              1.077
 Vibration     7          0.780              1.433              0.902
 Vibration     8          0.801              1.380              0.822
 Vibration     9          0.913              1.123              0.529

 Optimization completed.
    -- Stationary point found.
 Normal termination of Gaussian 09 at Mon Jan 27 17:05:03 2020.
