 Gaussian 09, Revision D.01,
 Gaussian 09:  ES64L-G09RevD.01 24-Apr-2013

 -----------------------------
 # b3lyp 6-31G(2df,p) opt Freq
 -----------------------------

 -----
 titel
 -----
 Symbolic Z-matrix:
 Charge =  0 Multiplicity = 1

 SCF Done:  E(RB3LYP) =  -423.169537056     A.U. after   13 cycles
 Optimization completed.
    -- Stationary point found.
 Normal termination of Gaussian 09 at Mon Jan 27 19:00:59 2020.

 ----------------------------------------------------------------------
 #N Geom=AllCheck Guess=TCheck SCRF=Check GenChk RB3LYP/6-31G(2df,p) Fr
 eq
 ----------------------------------------------------------------------

 Structure from the checkpoint file:  "/scratch/puck/g09_523fe331-19fb-4201-9a31-7ca8275337a0/Gau-64693.chk"
 -----
 titel
 -----
 Charge =  0 Multiplicity = 1

                         Standard orientation:
 ---------------------------------------------------------------------
 Center     Atomic      Atomic             Coordinates (Angstroms)
 Number     Number       Type             X           Y           Z
 ---------------------------------------------------------------------
      1          6           0       -2.281875    0.427648    0.044954
      2          6           0       -0.773681    0.317065    0.106247
      3          6           0        0.016625    1.599310    0.354815
      4          8           0        1.289953    1.379715   -0.274874
      5          6           0        1.375130   -0.022161   -0.509770
      6          6           0        1.299225   -0.785234    0.842246
      7          6           0       -0.226618   -0.985135    0.808216
      8          8           0       -0.367279   -1.697200   -0.461888
      9          6           0       -0.039002   -0.416752   -1.046960
     10          1           0       -2.595007    1.161319   -0.705760
     11          1           0       -2.720902   -0.539911   -0.213146
     12          1           0       -2.695341    0.742733    1.009888
     13          1           0       -0.457608    2.469376   -0.114175
     14          1           0        0.145083    1.820572    1.424443
     15          1           0        2.240389   -0.213838   -1.141640
     16          1           0        1.803660   -1.753531    0.833117
     17          1           0        1.682771   -0.176895    1.664700
     18          1           0       -0.735914   -1.463819    1.645298
     19          1           0       -0.267341   -0.314575   -2.107121
 ---------------------------------------------------------------------

 SCF Done:  E(RB3LYP) =  -423.169537056     A.U. after    1 cycles

 The electronic state is 1-A.
 Alpha  occ. eigenvalues --  -19.13737 -19.13721 -10.23981 -10.23295 -10.23198
 Alpha  occ. eigenvalues --  -10.22769 -10.20249 -10.18305 -10.18200  -1.06255
 Alpha  occ. eigenvalues --   -1.02536  -0.79837  -0.76833  -0.70928  -0.68754
 Alpha  occ. eigenvalues --   -0.63308  -0.56613  -0.53739  -0.51938  -0.48773
 Alpha  occ. eigenvalues --   -0.47770  -0.43469  -0.42718  -0.40983  -0.40332
 Alpha  occ. eigenvalues --   -0.38810  -0.38257  -0.36812  -0.35360  -0.32602
 Alpha  occ. eigenvalues --   -0.31008  -0.30127  -0.26235  -0.23278
 Alpha virt. eigenvalues --    0.08690   0.09130   0.10736   0.11491   0.12970
 Alpha virt. eigenvalues --    0.13365   0.14921   0.15106   0.16244   0.16839
 Alpha virt. eigenvalues --    0.17527   0.17846   0.18244   0.20206   0.21274

 Mulliken charges:
               1
     1  C   -0.499899
     2  C    0.312625
     3  C   -0.159599
     4  O   -0.272648
     5  C    0.075023
     6  C   -0.243258
     7  C    0.020989
     8  O   -0.305212
     9  C    0.033483
    10  H    0.118467
    11  H    0.138723
    12  H    0.117872
    13  H    0.105520
    14  H    0.096345
    15  H    0.083103
    16  H    0.111058
    17  H    0.107823
    18  H    0.077394
    19  H    0.082189
 Sum of Mulliken charges =   0.00000

 Dipole moment (field-independent basis, Debye):
    X=             -0.7890    Y=              0.4857    Z=              0.8467  Tot=              1.2551
 Quadrupole moment (field-independent basis, Debye-Ang):
   XX=            -53.4162   YY=            -57.8812   ZZ=            -50.2134
   XY=             -4.3811   XZ=             -0.3654   YZ=             -0.9094

  Exact polarizability:  77.334  -4.206  72.330  -0.253  -0.751  69.338
 Approx polarizability: 105.852  -1.511 110.034  -1.676   0.350 107.908

                      1                      2                      3
                      A                      A                      A
 Frequencies --    229.6601               249.5680               256.8474
 Red. masses --      2.3612                 1.0922                 2.7450
 Frc consts  --      0.0734                 0.0401                 0.1067
 IR Inten    --      0.8180                 0.4038                 1.8811

                      4                      5                      6
                      A                      A                      A
 Frequencies --    311.6308               389.9093               449.5921
 Red. masses --      2.3349                 2.7106                 2.5914
 Frc consts  --      0.1336                 0.2428                 0.3086
 IR Inten    --      2.4888                 2.5095                 5.3341

                      7                      8                      9
                      A                      A                      A
 Frequencies --    507.4603               595.0899               612.8996
 Red. masses --      3.6752                 5.8444                 4.5089
 Frc consts  --      0.5576                 1.2194                 0.9979
 IR Inten    --      6.3614                 2.6005                 0.6937

                     10                     11                     12
                      A                      A                      A
 Frequencies --    705.6137               756.3972               838.4872
 Red. masses --      3.7523                 3.4837                 3.7571
 Frc consts  --      1.1007                 1.1743                 1.5563
 IR Inten    --      3.4286                 1.2794                18.9177

                     13                     14                     15
                      A                      A                      A
 Frequencies --    850.7847               877.3109               910.7693
 Red. masses --      2.5408                 2.5484                 3.0031
 Frc consts  --      1.0836                 1.1557                 1.4677
 IR Inten    --      3.4656                 7.3833                22.5388

                     16                     17                     18
                      A                      A                      A
 Frequencies --    922.3364               951.3244               960.4376
 Red. masses --      2.1311                 2.2371                 2.2722
 Frc consts  --      1.0681                 1.1929                 1.2349
 IR Inten    --      4.5762                18.1122                 4.6527

                     19                     20                     21
                      A                      A                      A
 Frequencies --    974.1470              1002.0438              1016.6531
 Red. masses --      2.6889                 1.5833                 2.0723
 Frc consts  --      1.5034                 0.9367                 1.2619
 IR Inten    --     20.1660                 1.7617                 5.3397

                     22                     23                     24
                      A                      A                      A
 Frequencies --   1034.6782              1060.6706              1118.5728
 Red. masses --      2.0234                 3.0344                 1.7870
 Frc consts  --      1.2763                 2.0113                 1.3174
 IR Inten    --     12.0904                64.5302                 8.1033

                     25                     26                     27
                      A                      A                      A
 Frequencies --   1143.6645              1170.3594              1196.8273
 Red. masses --      1.9601                 1.6653                 1.6248
 Frc consts  --      1.5105                 1.3439                 1.3712
 IR Inten    --     10.9271                 2.8407                 5.3605

                     28                     29                     30
                      A                      A                      A
 Frequencies --   1222.7344              1231.5429              1239.3280
 Red. masses --      1.6984                 1.3653                 1.5107
 Frc consts  --      1.4961                 1.2200                 1.3671
 IR Inten    --      1.5781                 0.1787                 2.6973

                     31                     32                     33
                      A                      A                      A
 Frequencies --   1269.5311              1282.9723              1303.2535
 Red. masses --      2.2353                 1.5366                 1.4760
 Frc consts  --      2.1226                 1.4902                 1.4770
 IR Inten    --      3.7217                10.1822                 2.8198

                     34                     35                     36
                      A                      A                      A
 Frequencies --   1318.2088              1345.6767              1398.8177
 Red. masses --      1.9120                 1.5179                 1.6903
 Frc consts  --      1.9575                 1.6195                 1.9487
 IR Inten    --      5.2426                 5.2391                 1.5248

                     37                     38                     39
                      A                      A                      A
 Frequencies --   1410.9014              1475.9814              1494.7883
 Red. masses --      1.2631                 1.1036                 1.0570
 Frc consts  --      1.4814                 1.4166                 1.3915
 IR Inten    --      3.1056                 3.4842                 3.9920

                     40                     41                     42
                      A                      A                      A
 Frequencies --   1501.5841              1522.7105              2995.5600
 Red. masses --      1.0489                 1.0875                 1.0657
 Frc consts  --      1.3934                 1.4857                 5.6344
 IR Inten    --      4.8830                 1.0904                54.7449

                     43                     44                     45
                      A                      A                      A
 Frequencies --   3029.6491              3050.2784              3072.2675
 Red. masses --      1.0370                 1.0978                 1.0586
 Frc consts  --      5.6081                 6.0180                 5.8872
 IR Inten    --     28.5695                39.5433                18.8323

                     46                     47                     48
                      A                      A                      A
 Frequencies --   3089.5185              3115.8603              3117.4670
 Red. masses --      1.1007                 1.0947                 1.0955
 Frc consts  --      6.1900                 6.2619                 6.2731
 IR Inten    --     21.3286                21.7414                37.6903

                     49                     50                     51
                      A                      A                      A
 Frequencies --   3126.9175              3131.0249              3142.7094
 Red. masses --      1.1030                 1.0949                 1.0925
 Frc consts  --      6.3543                 6.3239                 6.3573
 IR Inten    --     13.3922                17.1272                37.3846

 - Thermochemistry -
 -------------------
 Temperature   298.150 Kelvin.  Pressure   1.00000 Atm.
 Atom     1 has atomic number  6 and mass  12.00000

 Molecular mass:   126.06808 amu.
 Principal axes and moments of inertia in atomic units:
                           1         2         3
     Eigenvalues --   719.79947 827.928031158.48828
           X            0.96977  -0.24386   0.00862
           Y            0.24393   0.96974  -0.00977
           Z           -0.00598   0.01158   0.99992
 This molecule is an asymmetric top.
 Rotational symmetry number  1.
 Warning -- assumption of classical behavior for rotation
           may cause significant error
 Rotational temperatures (Kelvin)      0.12033     0.10462     0.07476
 Rotational constants (GHZ):           2.50728     2.17983     1.55784
 Zero-point vibrational energy     424572.7 (Joules/Mol)
                                  101.47532 (Kcal/Mol)
 Warning -- explicit consideration of   9 degrees of freedom as
           vibrations may cause significant error
 Vibrational temperatures:    330.43   359.07   369.55   448.37   560.99
          (Kelvin)            646.86   730.12   856.20   881.82  1015.22
                             1088.29  1206.39  1224.09  1262.25  1310.39
                             1327.03  1368.74  1381.85  1401.58  1441.72
                             1462.74  1488.67  1526.07  1609.37  1645.48
                             1683.88  1721.97  1759.24  1771.91  1783.11
                             1826.57  1845.91  1875.09  1896.61  1936.13
                             2012.58  2029.97  2123.61  2150.66  2160.44
                             2190.84  4309.94  4358.98  4388.66  4420.30
                             4445.12  4483.02  4485.33  4498.93  4504.84
                             4521.65

 Zero-point correction=                           0.161711 (Hartree/Particle)
 Thermal correction to Energy=                    0.168517
 Thermal correction to Enthalpy=                  0.169461
 Thermal correction to Gibbs Free Energy=         0.131021
 Sum of electronic and zero-point Energies=           -423.007826
 Sum of electronic and thermal Energies=              -423.001020
 Sum of electronic and thermal Enthalpies=            -423.000076
 Sum of electronic and thermal Free Energies=         -423.038516

                     E (Thermal)             CV                S
                      KCal/Mol        Cal/Mol-Kelvin    Cal/Mol-Kelvin
 Total                  105.746             28.643             80.905
 Electronic               0.000              0.000              0.000
 Translational            0.889              2.981             40.409
 Rotational               0.889              2.981             28.025
 Vibrational            103.969             22.682             12.470
 Vibration     1          0.652              1.796              1.882
 Vibration     2          0.662              1.763              1.734
 Vibration     3          0.666              1.751              1.683
 Vibration     4          0.700              1.652              1.354
 Vibration     5          0.758              1.492              1.000
 Vibration     6          0.808              1.362              0.797
 Vibration     7          0.863              1.233              0.640
 Vibration     8          0.953              1.042              0.458
 Vibration     9          0.972              1.005              0.428

 Optimization completed.
    -- Stationary point found.
 Normal termination of Gaussian 09 at Mon Jan 27 19:46:52 2020.
