 Gaussian 09, Revision D.01,
 Gaussian 09:  ES64L-G09RevD.01 24-Apr-2013

 -----------------------------
 # b3lyp 6-31G(2df,p) opt Freq
 -----------------------------

 -----
 titel
 -----
 Symbolic Z-matrix:
 Charge =  0 Multiplicity = 1

 SCF Done:  E(RB3LYP) =  -423.170106582     A.U. after   14 cycles
 Optimization completed.
    -- Stationary point found.
 Normal termination of Gaussian 09 at Tue Jan 28 02:17:46 2020.

 ----------------------------------------------------------------------
 #N Geom=AllCheck Guess=TCheck SCRF=Check GenChk RB3LYP/6-31G(2df,p) Fr
 eq
 ----------------------------------------------------------------------

 Structure from the checkpoint file:  "/scratch/puck/g09_b1e24ce4-060e-49ba-b6b4-495d0d65ec5b/Gau-112228.chk"
 -----
 titel
 -----
 Charge =  0 Multiplicity = 1

                         Standard orientation:
 ---------------------------------------------------------------------
 Center     Atomic      Atomic             Coordinates (Angstroms)
 Number     Number       Type             X           Y           Z
 ---------------------------------------------------------------------
      1          8           0       -3.089578   -0.661907   -0.507725
      2          6           0       -2.103779   -0.193927    0.365498
      3          6           0       -1.671162    1.247830    0.303549
      4          6           0       -0.781137    0.151284   -0.253190
      5          6           0        0.515364   -0.209424    0.414427
      6          6           0        1.256595   -1.536528    0.037615
      7          6           0        2.608331   -0.769802   -0.071235
      8          6           0        1.800753    0.538343   -0.014107
      9          8           0        2.035834    1.675055   -0.302828
     10          1           0       -3.936318   -0.307096   -0.216763
     11          1           0       -2.084675   -0.682565    1.340781
     12          1           0       -2.171792    1.884635   -0.417073
     13          1           0       -1.372081    1.743080    1.221332
     14          1           0       -0.772671    0.082092   -1.337611
     15          1           0        0.416371   -0.125381    1.505097
     16          1           0        1.210641   -2.337635    0.775884
     17          1           0        0.922278   -1.926315   -0.926720
     18          1           0        3.249195   -0.885332    0.809188
     19          1           0        3.219213   -0.917322   -0.965035
 ---------------------------------------------------------------------

 SCF Done:  E(RB3LYP) =  -423.170106582     A.U. after    1 cycles

 The electronic state is 1-A.
 Alpha  occ. eigenvalues --  -19.14380 -19.13414 -10.26528 -10.23708 -10.19828
 Alpha  occ. eigenvalues --  -10.19481 -10.19343 -10.19156 -10.18542  -1.04272
 Alpha  occ. eigenvalues --   -1.02889  -0.86312  -0.83068  -0.69102  -0.62926
 Alpha  occ. eigenvalues --   -0.60791  -0.58607  -0.54351  -0.50555  -0.49421
 Alpha  occ. eigenvalues --   -0.46013  -0.44619  -0.43406  -0.42739  -0.38839
 Alpha  occ. eigenvalues --   -0.38545  -0.37349  -0.35824  -0.34838  -0.33477
 Alpha  occ. eigenvalues --   -0.31754  -0.28685  -0.26021  -0.23315
 Alpha virt. eigenvalues --   -0.01717   0.07844   0.09690   0.09938   0.11248
 Alpha virt. eigenvalues --    0.12263   0.14052   0.14763   0.15388   0.16853
 Alpha virt. eigenvalues --    0.17552   0.18000   0.19077   0.21256   0.24367

 Mulliken charges:
               1
     1  O   -0.425934
     2  C    0.088138
     3  C   -0.323628
     4  C   -0.008565
     5  C   -0.111139
     6  C   -0.255051
     7  C   -0.338199
     8  C    0.387421
     9  O   -0.294586
    10  H    0.287481
    11  H    0.081762
    12  H    0.118456
    13  H    0.114425
    14  H    0.097915
    15  H    0.094188
    16  H    0.108854
    17  H    0.118250
    18  H    0.130630
    19  H    0.129580
 Sum of Mulliken charges =   0.00000

 Dipole moment (field-independent basis, Debye):
    X=             -1.1763    Y=             -1.5779    Z=              1.5660  Tot=              2.5151
 Quadrupole moment (field-independent basis, Debye-Ang):
   XX=            -48.7653   YY=            -58.6434   ZZ=            -51.1513
   XY=             -8.7054   XZ=             -1.2071   YZ=              0.0147

  Exact polarizability:  92.490  -3.173  76.173  -1.630  -0.623  62.664
 Approx polarizability: 114.606   0.537 117.522  -2.369  -2.038  98.503

                      1                      2                      3
                      A                      A                      A
 Frequencies --     44.1952                77.4770               100.0010
 Red. masses --      3.9710                 2.5478                 4.4632
 Frc consts  --      0.0046                 0.0090                 0.0263
 IR Inten    --      3.5227                 2.4639                 2.1496

                      4                      5                      6
                      A                      A                      A
 Frequencies --    185.0840               254.1928               310.5265
 Red. masses --      3.3773                 2.7001                 1.4183
 Frc consts  --      0.0682                 0.1028                 0.0806
 IR Inten    --      0.5512                15.2004                69.7251

                      7                      8                      9
                      A                      A                      A
 Frequencies --    358.1673               362.6493               441.4674
 Red. masses --      2.7442                 3.2885                 2.6604
 Frc consts  --      0.2074                 0.2548                 0.3055
 IR Inten    --     16.4764                10.1440                 5.2091

                     10                     11                     12
                      A                      A                      A
 Frequencies --    466.7759               555.9948               677.4890
 Red. masses --      2.4527                 2.7049                 2.8900
 Frc consts  --      0.3148                 0.4927                 0.7816
 IR Inten    --      7.2667                 0.7385                 2.8502

                     13                     14                     15
                      A                      A                      A
 Frequencies --    723.9639               765.6539               817.7462
 Red. masses --      1.5974                 1.9940                 1.9302
 Frc consts  --      0.4933                 0.6887                 0.7605
 IR Inten    --      0.1782                 3.9943                 5.0634

                     16                     17                     18
                      A                      A                      A
 Frequencies --    869.3666               918.1279               926.9095
 Red. masses --      1.9523                 2.8941                 2.9458
 Frc consts  --      0.8694                 1.4374                 1.4912
 IR Inten    --      3.6407                11.5413                18.4564

                     19                     20                     21
                      A                      A                      A
 Frequencies --    944.8776               972.8528              1003.0046
 Red. masses --      1.4213                 2.1711                 2.3892
 Frc consts  --      0.7476                 1.2107                 1.4161
 IR Inten    --      0.7823                 0.3367                30.4220

                     22                     23                     24
                      A                      A                      A
 Frequencies --   1037.5007              1063.0992              1072.2384
 Red. masses --      1.3785                 2.2114                 2.6254
 Frc consts  --      0.8743                 1.4725                 1.7784
 IR Inten    --      8.0196                16.1360                33.4230

                     25                     26                     27
                      A                      A                      A
 Frequencies --   1096.3778              1102.4432              1171.6204
 Red. masses --      2.0520                 1.1055                 2.2719
 Frc consts  --      1.4533                 0.7916                 1.8375
 IR Inten    --     38.1672                 0.7790                 9.3638

                     28                     29                     30
                      A                      A                      A
 Frequencies --   1194.0167              1203.4138              1221.5622
 Red. masses --      1.6437                 1.6570                 1.6850
 Frc consts  --      1.3807                 1.4139                 1.4814
 IR Inten    --     11.9991                 8.9846                35.7753

                     31                     32                     33
                      A                      A                      A
 Frequencies --   1230.1062              1232.2026              1255.7786
 Red. masses --      1.3195                 1.4547                 1.3757
 Frc consts  --      1.1764                 1.3013                 1.2782
 IR Inten    --      8.2951                 1.7309                10.4507

                     34                     35                     36
                      A                      A                      A
 Frequencies --   1283.8769              1305.4997              1381.0673
 Red. masses --      1.4161                 1.2494                 1.4751
 Frc consts  --      1.3753                 1.2546                 1.6577
 IR Inten    --      2.2926                60.8981                 7.5035

                     37                     38                     39
                      A                      A                      A
 Frequencies --   1435.3914              1442.5910              1493.2449
 Red. masses --      1.2800                 1.1315                 1.3811
 Frc consts  --      1.5538                 1.3874                 1.8144
 IR Inten    --      0.9857                 7.9866                 8.5999

                     40                     41                     42
                      A                      A                      A
 Frequencies --   1494.0757              1888.9609              3021.3954
 Red. masses --      1.3581                12.7925                 1.0822
 Frc consts  --      1.7862                26.8938                 5.8205
 IR Inten    --      5.0453               239.1506                 7.3870

                     43                     44                     45
                      A                      A                      A
 Frequencies --   3057.4673              3077.2851              3086.0509
 Red. masses --      1.0608                 1.0608                 1.0871
 Frc consts  --      5.8424                 5.9186                 6.0998
 IR Inten    --     11.7592                19.3317                33.8864

                     46                     47                     48
                      A                      A                      A
 Frequencies --   3113.5207              3134.2464              3136.1550
 Red. masses --      1.1032                 1.0553                 1.1065
 Frc consts  --      6.3010                 6.1082                 6.4122
 IR Inten    --      5.9334                 9.1293                20.1937

                     49                     50                     51
                      A                      A                      A
 Frequencies --   3149.8603              3224.6659              3802.0362
 Red. masses --      1.0879                 1.1167                 1.0662
 Frc consts  --      6.3596                 6.8416                 9.0805
 IR Inten    --      7.7133                 7.5961                20.4607

 - Thermochemistry -
 -------------------
 Temperature   298.150 Kelvin.  Pressure   1.00000 Atm.
 Atom     1 has atomic number  8 and mass  15.99491

 Molecular mass:   126.06808 amu.
 Principal axes and moments of inertia in atomic units:
                           1         2         3
     Eigenvalues --   536.028801888.552302268.35507
           X            0.99929  -0.03758  -0.00308
           Y            0.03759   0.99929   0.00307
           Z            0.00296  -0.00318   0.99999
 This molecule is an asymmetric top.
 Rotational symmetry number  1.
 Warning -- assumption of classical behavior for rotation
           may cause significant error
 Rotational temperatures (Kelvin)      0.16158     0.04586     0.03818
 Rotational constants (GHZ):           3.36687     0.95562     0.79562
 Zero-point vibrational energy     413813.9 (Joules/Mol)
                                   98.90388 (Kcal/Mol)
 Warning -- explicit consideration of  11 degrees of freedom as
           vibrations may cause significant error
 Vibrational temperatures:     63.59   111.47   143.88   266.29   365.73
          (Kelvin)            446.78   515.32   521.77   635.17   671.59
                              799.95   974.75  1041.62  1101.60  1176.55
                             1250.82  1320.98  1333.61  1359.47  1399.72
                             1443.10  1492.73  1529.56  1542.71  1577.44
                             1586.17  1685.70  1717.92  1731.44  1757.55
                             1769.85  1772.86  1806.78  1847.21  1878.32
                             1987.05  2065.21  2075.56  2148.44  2149.64
                             2717.79  4347.11  4399.01  4427.52  4440.13
                             4479.66  4509.48  4512.22  4531.94  4639.57
                             5470.28

 Zero-point correction=                           0.157613 (Hartree/Particle)
 Thermal correction to Energy=                    0.166660
 Thermal correction to Enthalpy=                  0.167604
 Thermal correction to Gibbs Free Energy=         0.122799
 Sum of electronic and zero-point Energies=           -423.012493
 Sum of electronic and thermal Energies=              -423.003447
 Sum of electronic and thermal Enthalpies=            -423.002503
 Sum of electronic and thermal Free Energies=         -423.047307

                     E (Thermal)             CV                S
                      KCal/Mol        Cal/Mol-Kelvin    Cal/Mol-Kelvin
 Total                  104.580             33.414             94.299
 Electronic               0.000              0.000              0.000
 Translational            0.889              2.981             40.409
 Rotational               0.889              2.981             29.220
 Vibrational            102.803             27.452             24.671
 Vibration     1          0.595              1.980              5.062
 Vibration     2          0.599              1.964              3.954
 Vibration     3          0.604              1.949              3.454
 Vibration     4          0.631              1.860              2.277
 Vibration     5          0.665              1.756              1.701
 Vibration     6          0.699              1.654              1.360
 Vibration     7          0.733              1.558              1.130
 Vibration     8          0.737              1.549              1.111
 Vibration     9          0.801              1.380              0.822
 Vibration    10          0.824              1.324              0.747
 Vibration    11          0.911              1.127              0.532

 Optimization completed.
    -- Stationary point found.
 Normal termination of Gaussian 09 at Tue Jan 28 02:56:07 2020.
