 Gaussian 09, Revision D.01,
 Gaussian 09:  ES64L-G09RevD.01 24-Apr-2013

 -----------------------------
 # b3lyp 6-31G(2df,p) opt Freq
 -----------------------------

 -----
 titel
 -----
 Symbolic Z-matrix:
 Charge =  0 Multiplicity = 1

 SCF Done:  E(RB3LYP) =  -423.158810866     A.U. after   13 cycles
 Optimization completed.
    -- Stationary point found.
 Normal termination of Gaussian 09 at Tue Jan 28 14:00:18 2020.

 ----------------------------------------------------------------------
 #N Geom=AllCheck Guess=TCheck SCRF=Check GenChk RB3LYP/6-31G(2df,p) Fr
 eq
 ----------------------------------------------------------------------

 Structure from the checkpoint file:  "/scratch/puck/g09_c7e76c2d-9f9d-4436-bb80-cfc24053a711/Gau-9656.chk"
 -----
 titel
 -----
 Charge =  0 Multiplicity = 1

                         Standard orientation:
 ---------------------------------------------------------------------
 Center     Atomic      Atomic             Coordinates (Angstroms)
 Number     Number       Type             X           Y           Z
 ---------------------------------------------------------------------
      1          6           0        2.614003   -0.241470    0.463567
      2          8           0        1.517073   -0.742282   -0.276949
      3          6           0        0.689837    0.267553   -0.747621
      4          6           0       -0.725126   -0.061671   -1.186265
      5          6           0       -1.338461   -1.312151   -0.659070
      6          6           0       -1.444143   -1.298048    0.671236
      7          6           0       -0.921956   -0.012817    1.267792
      8          6           0       -0.450382    0.805680    0.059328
      9          8           0       -0.593718    2.191731    0.081325
     10          1           0        2.286911    0.358525    1.324376
     11          1           0        3.180808   -1.104235    0.821041
     12          1           0        3.270328    0.383119   -0.161436
     13          1           0        1.190266    1.019253   -1.362215
     14          1           0       -1.055381    0.364592   -2.128005
     15          1           0       -1.636167   -2.130427   -1.304382
     16          1           0       -1.825701   -2.109024    1.280499
     17          1           0       -1.696683    0.538946    1.819408
     18          1           0       -0.107834   -0.194517    1.979985
     19          1           0       -1.536026    2.395728    0.081912
 ---------------------------------------------------------------------

 SCF Done:  E(RB3LYP) =  -423.158810866     A.U. after    1 cycles

 The electronic state is 1-A.
 Alpha  occ. eigenvalues --  -19.14491 -19.14253 -10.23349 -10.23011 -10.22272
 Alpha  occ. eigenvalues --  -10.18551 -10.18537 -10.17787 -10.17519  -1.04150
 Alpha  occ. eigenvalues --   -1.02638  -0.86808  -0.76543  -0.70042  -0.68566
 Alpha  occ. eigenvalues --   -0.59563  -0.56865  -0.53760  -0.52896  -0.47710
 Alpha  occ. eigenvalues --   -0.46905  -0.44833  -0.44351  -0.41813  -0.40156
 Alpha  occ. eigenvalues --   -0.38075  -0.37387  -0.35901  -0.34556  -0.31865
 Alpha  occ. eigenvalues --   -0.29618  -0.27449  -0.23559  -0.22281
 Alpha virt. eigenvalues --    0.02207   0.08010   0.09143   0.11262   0.13492
 Alpha virt. eigenvalues --    0.14190   0.15215   0.15627   0.16153   0.16981
 Alpha virt. eigenvalues --    0.17512   0.19023   0.19453   0.21443   0.23918

 Mulliken charges:
               1
     1  C   -0.237921
     2  O   -0.229644
     3  C    0.096417
     4  C   -0.244618
     5  C   -0.050264
     6  C   -0.073916
     7  C   -0.333262
     8  C    0.325621
     9  O   -0.466950
    10  H    0.114064
    11  H    0.126718
    12  H    0.108461
    13  H    0.089712
    14  H    0.089445
    15  H    0.095813
    16  H    0.092955
    17  H    0.097509
    18  H    0.119114
    19  H    0.280747
 Sum of Mulliken charges =   0.00000

 Dipole moment (field-independent basis, Debye):
    X=             -0.7623    Y=              0.3625    Z=              0.4088  Tot=              0.9379
 Quadrupole moment (field-independent basis, Debye-Ang):
   XX=            -47.7685   YY=            -55.3413   ZZ=            -50.8696
   XY=             -1.3065   XZ=              1.0808   YZ=             -1.3317

  Exact polarizability:  77.864   3.584  73.407  -1.166  -0.898  77.652
 Approx polarizability: 104.134   4.226 107.448  -2.795   1.402 127.077

                      1                      2                      3
                      A                      A                      A
 Frequencies --     99.0188               145.1947               162.5922
 Red. masses --      2.9470                 3.3250                 1.3220
 Frc consts  --      0.0170                 0.0413                 0.0206
 IR Inten    --      3.3761                 2.0309                 0.6328

                      4                      5                      6
                      A                      A                      A
 Frequencies --    205.5662               232.6721               307.1062
 Red. masses --      2.3449                 2.6753                 1.2173
 Frc consts  --      0.0584                 0.0853                 0.0676
 IR Inten    --      4.0040                 2.2321                53.0524

                      7                      8                      9
                      A                      A                      A
 Frequencies --    372.1047               386.7157               395.7104
 Red. masses --      4.0724                 2.5250                 2.8726
 Frc consts  --      0.3322                 0.2225                 0.2650
 IR Inten    --     20.1959                 0.4337                21.0186

                     10                     11                     12
                      A                      A                      A
 Frequencies --    544.0517               581.5465               589.5180
 Red. masses --      3.2782                 2.9957                 3.2307
 Frc consts  --      0.5717                 0.5969                 0.6615
 IR Inten    --      1.1870                12.0210                 3.8493

                     13                     14                     15
                      A                      A                      A
 Frequencies --    737.0015               754.1614               765.0162
 Red. masses --      2.5287                 3.8062                 2.2456
 Frc consts  --      0.8093                 1.2755                 0.7743
 IR Inten    --     24.4392                 4.2241                16.4765

                     16                     17                     18
                      A                      A                      A
 Frequencies --    863.6673               902.1644               947.9048
 Red. masses --      2.2115                 3.4639                 1.7709
 Frc consts  --      0.9719                 1.6611                 0.9375
 IR Inten    --      6.2930                 3.6926                 4.8447

                     19                     20                     21
                      A                      A                      A
 Frequencies --    953.2040               982.1649               999.5873
 Red. masses --      1.4169                 2.1217                 1.9337
 Frc consts  --      0.7585                 1.2059                 1.1384
 IR Inten    --      5.4435                 0.5938                 1.6099

                     22                     23                     24
                      A                      A                      A
 Frequencies --   1027.8670              1062.0878              1082.2488
 Red. masses --      2.8762                 1.8009                 1.6652
 Frc consts  --      1.7904                 1.1969                 1.1492
 IR Inten    --     35.8629                20.5615                 5.0587

                     25                     26                     27
                      A                      A                      A
 Frequencies --   1135.4550              1150.8015              1157.0810
 Red. masses --      1.5705                 1.3288                 1.7971
 Frc consts  --      1.1930                 1.0368                 1.4176
 IR Inten    --     49.7433                11.8567                77.5251

                     28                     29                     30
                      A                      A                      A
 Frequencies --   1182.1199              1205.9432              1235.5760
 Red. masses --      1.2909                 1.5207                 2.0815
 Frc consts  --      1.0628                 1.3030                 1.8723
 IR Inten    --      4.4373                51.9632                12.5157

                     31                     32                     33
                      A                      A                      A
 Frequencies --   1259.4363              1296.5431              1316.8605
 Red. masses --      2.1276                 1.6401                 2.0639
 Frc consts  --      1.9884                 1.6244                 2.1088
 IR Inten    --     56.0911                12.0556                54.3829

                     34                     35                     36
                      A                      A                      A
 Frequencies --   1355.9792              1375.9225              1444.0929
 Red. masses --      1.3437                 1.7214                 1.6619
 Frc consts  --      1.4557                 1.9201                 2.0419
 IR Inten    --     48.8690                 4.5180                16.5707

                     37                     38                     39
                      A                      A                      A
 Frequencies --   1469.5917              1484.6587              1492.6898
 Red. masses --      1.1519                 1.0580                 1.3882
 Frc consts  --      1.4658                 1.3741                 1.8225
 IR Inten    --      4.8589                 3.3349                10.0020

                     40                     41                     42
                      A                      A                      A
 Frequencies --   1509.6112              1672.0549              2983.2680
 Red. masses --      1.1067                 6.2051                 1.0368
 Frc consts  --      1.4859                10.2212                 5.4366
 IR Inten    --      4.1992                 2.3927                57.3526

                     43                     44                     45
                      A                      A                      A
 Frequencies --   3008.1221              3034.7443              3049.9701
 Red. masses --      1.0663                 1.1018                 1.0941
 Frc consts  --      5.6849                 5.9784                 5.9963
 IR Inten    --     38.8593                47.6473                20.5345

                     46                     47                     48
                      A                      A                      A
 Frequencies --   3081.9247              3118.8608              3162.9100
 Red. masses --      1.0861                 1.0979                 1.0896
 Frc consts  --      6.0779                 6.2924                 6.4222
 IR Inten    --     22.2098                28.0825                15.0671

                     49                     50                     51
                      A                      A                      A
 Frequencies --   3188.7967              3213.1248              3783.2937
 Red. masses --      1.0850                 1.1039                 1.0660
 Frc consts  --      6.5004                 6.7151                 8.9896
 IR Inten    --      7.5249                23.0930                11.9393

 - Thermochemistry -
 -------------------
 Temperature   298.150 Kelvin.  Pressure   1.00000 Atm.
 Atom     1 has atomic number  6 and mass  12.00000

 Molecular mass:   126.06808 amu.
 Principal axes and moments of inertia in atomic units:
                           1         2         3
     Eigenvalues --   823.760881116.786411391.23758
           X            0.99957   0.02637   0.01308
           Y           -0.02606   0.99940  -0.02280
           Z           -0.01367   0.02245   0.99965
 This molecule is an asymmetric top.
 Rotational symmetry number  1.
 Warning -- assumption of classical behavior for rotation
           may cause significant error
 Rotational temperatures (Kelvin)      0.10514     0.07756     0.06226
 Rotational constants (GHZ):           2.19086     1.61601     1.29722
 Zero-point vibrational energy     415512.7 (Joules/Mol)
                                   99.30993 (Kcal/Mol)
 Warning -- explicit consideration of  12 degrees of freedom as
           vibrations may cause significant error
 Vibrational temperatures:    142.47   208.90   233.93   295.76   334.76
          (Kelvin)            441.86   535.38   556.40   569.34   782.77
                              836.71   848.18  1060.38  1085.07  1100.69
                             1242.62  1298.01  1363.82  1371.45  1413.11
                             1438.18  1478.87  1528.11  1557.11  1633.66
                             1655.74  1664.78  1700.80  1735.08  1777.72
                             1812.05  1865.43  1894.67  1950.95  1979.64
                             2077.73  2114.41  2136.09  2147.64  2171.99
                             2405.71  4292.25  4328.01  4366.31  4388.22
                             4434.20  4487.34  4550.72  4587.96  4622.96
                             5443.31

 Zero-point correction=                           0.158260 (Hartree/Particle)
 Thermal correction to Energy=                    0.166923
 Thermal correction to Enthalpy=                  0.167867
 Thermal correction to Gibbs Free Energy=         0.125186
 Sum of electronic and zero-point Energies=           -423.000550
 Sum of electronic and thermal Energies=              -422.991888
 Sum of electronic and thermal Enthalpies=            -422.990943
 Sum of electronic and thermal Free Energies=         -423.033625

                     E (Thermal)             CV                S
                      KCal/Mol        Cal/Mol-Kelvin    Cal/Mol-Kelvin
 Total                  104.746             33.092             89.831
 Electronic               0.000              0.000              0.000
 Translational            0.889              2.981             40.409
 Rotational               0.889              2.981             28.639
 Vibrational            102.968             27.130             20.784
 Vibration     1          0.604              1.950              3.474
 Vibration     2          0.617              1.908              2.734
 Vibration     3          0.623              1.888              2.519
 Vibration     4          0.640              1.832              2.083
 Vibration     5          0.653              1.791              1.858
 Vibration     6          0.697              1.660              1.378
 Vibration     7          0.744              1.529              1.071
 Vibration     8          0.755              1.499              1.013
 Vibration     9          0.762              1.479              0.979
 Vibration    10          0.899              1.153              0.557
 Vibration    11          0.938              1.071              0.483
 Vibration    12          0.947              1.054              0.468

 Optimization completed.
    -- Stationary point found.
 Normal termination of Gaussian 09 at Tue Jan 28 14:49:50 2020.
