 Gaussian 09, Revision D.01,
 Gaussian 09:  ES64L-G09RevD.01 24-Apr-2013

 -----------------------------
 # b3lyp 6-31G(2df,p) opt Freq
 -----------------------------

 -----
 titel
 -----
 Symbolic Z-matrix:
 Charge =  0 Multiplicity = 1

 SCF Done:  E(RB3LYP) =  -423.174676585     A.U. after   14 cycles
 Optimization completed.
    -- Stationary point found.
 Normal termination of Gaussian 09 at Tue Jan 28 02:52:54 2020.

 ----------------------------------------------------------------------
 #N Geom=AllCheck Guess=TCheck SCRF=Check GenChk RB3LYP/6-31G(2df,p) Fr
 eq
 ----------------------------------------------------------------------

 Structure from the checkpoint file:  "/scratch/puck/g09_e8dc5eb6-eb7d-43d9-b5e9-11364e074f4b/Gau-196306.chk"
 -----
 titel
 -----
 Charge =  0 Multiplicity = 1

                         Standard orientation:
 ---------------------------------------------------------------------
 Center     Atomic      Atomic             Coordinates (Angstroms)
 Number     Number       Type             X           Y           Z
 ---------------------------------------------------------------------
      1          6           0       -2.692455   -0.833787    0.078528
      2          6           0       -1.280483   -0.478525   -0.380310
      3          6           0       -0.081651   -1.002725    0.479847
      4          6           0        1.199996   -1.377772   -0.297363
      5          6           0        1.597084    0.124671   -0.372246
      6          8           0        2.901766    0.483310   -0.012398
      7          6           0        0.438243    0.476154    0.648858
      8          6           0       -0.833481    0.961772   -0.034279
      9          8           0       -1.363041    2.029674   -0.157469
     10          1           0       -2.820227   -0.642173    1.149189
     11          1           0       -3.428979   -0.228437   -0.457523
     12          1           0       -2.912231   -1.890041   -0.105515
     13          1           0       -1.167889   -0.700262   -1.448888
     14          1           0       -0.371424   -1.620501    1.329792
     15          1           0        1.911727   -1.924487    0.331212
     16          1           0        1.088748   -1.922030   -1.239786
     17          1           0        1.438708    0.574157   -1.355956
     18          1           0        3.102827    0.083980    0.841153
     19          1           0        0.765425    0.947193    1.577051
 ---------------------------------------------------------------------

 SCF Done:  E(RB3LYP) =  -423.174676585     A.U. after    1 cycles

 The electronic state is 1-A.
 Alpha  occ. eigenvalues --  -19.15048 -19.13391 -10.26417 -10.24903 -10.20131
 Alpha  occ. eigenvalues --  -10.19818 -10.19280 -10.19249 -10.18660  -1.04230
 Alpha  occ. eigenvalues --   -1.03458  -0.87870  -0.77065  -0.70832  -0.66620
 Alpha  occ. eigenvalues --   -0.62050  -0.57728  -0.53059  -0.50837  -0.48382
 Alpha  occ. eigenvalues --   -0.45661  -0.44229  -0.43105  -0.41419  -0.40823
 Alpha  occ. eigenvalues --   -0.38823  -0.38585  -0.37717  -0.35672  -0.32432
 Alpha  occ. eigenvalues --   -0.31680  -0.29275  -0.27814  -0.23387
 Alpha virt. eigenvalues --   -0.02056   0.06769   0.08428   0.09122   0.10758
 Alpha virt. eigenvalues --    0.11940   0.13783   0.14994   0.16073   0.16370
 Alpha virt. eigenvalues --    0.17299   0.17998   0.18899   0.20287   0.21540

 Mulliken charges:
               1
     1  C   -0.407465
     2  C   -0.112379
     3  C   -0.039437
     4  C   -0.282491
     5  C    0.159737
     6  O   -0.424146
     7  C   -0.220920
     8  C    0.411292
     9  O   -0.311979
    10  H    0.121308
    11  H    0.137891
    12  H    0.119787
    13  H    0.096882
    14  H    0.076842
    15  H    0.097740
    16  H    0.105320
    17  H    0.105780
    18  H    0.280729
    19  H    0.085508
 Sum of Mulliken charges =   0.00000

 Dipole moment (field-independent basis, Debye):
    X=              0.4886    Y=             -3.3780    Z=              1.0886  Tot=              3.5826
 Quadrupole moment (field-independent basis, Debye-Ang):
   XX=            -56.1583   YY=            -59.6020   ZZ=            -49.6762
   XY=              1.5969   XZ=              3.5269   YZ=              0.5224

  Exact polarizability:  89.909  -1.767  75.700   3.022   0.494  63.830
 Approx polarizability: 118.165  -6.625 117.408   5.095  -1.024 100.270

                      1                      2                      3
                      A                      A                      A
 Frequencies --     56.5478               128.4026               182.7755
 Red. masses --      3.5324                 5.5364                 2.9939
 Frc consts  --      0.0067                 0.0538                 0.0589
 IR Inten    --      1.3061                 1.8091                 1.7261

                      4                      5                      6
                      A                      A                      A
 Frequencies --    212.3407               239.2423               290.3865
 Red. masses --      1.0898                 2.4876                 1.8625
 Frc consts  --      0.0290                 0.0839                 0.0925
 IR Inten    --      0.1225                 0.6092                20.5358

                      7                      8                      9
                      A                      A                      A
 Frequencies --    335.3671               366.6102               442.3173
 Red. masses --      3.5221                 1.7341                 3.7335
 Frc consts  --      0.2334                 0.1373                 0.4304
 IR Inten    --      2.1745                78.6788                 9.8146

                     10                     11                     12
                      A                      A                      A
 Frequencies --    458.5512               613.2418               702.4029
 Red. masses --      2.4880                 3.9432                 4.1411
 Frc consts  --      0.3082                 0.8737                 1.2037
 IR Inten    --      1.4645                 0.3664                 1.4830

                     13                     14                     15
                      A                      A                      A
 Frequencies --    747.3176               786.7513               813.5514
 Red. masses --      2.7802                 2.4312                 2.7870
 Frc consts  --      0.9148                 0.8866                 1.0868
 IR Inten    --      1.3954                 1.7348                 6.8062

                     16                     17                     18
                      A                      A                      A
 Frequencies --    836.9060               881.9297               919.0809
 Red. masses --      1.9810                 2.3686                 2.2944
 Frc consts  --      0.8175                 1.0855                 1.1419
 IR Inten    --      1.7698                 2.0833                25.2076

                     19                     20                     21
                      A                      A                      A
 Frequencies --    966.5113              1001.5969              1024.4991
 Red. masses --      1.7353                 2.2357                 1.7036
 Frc consts  --      0.9551                 1.3214                 1.0535
 IR Inten    --     12.7085                 1.3070                28.4066

                     22                     23                     24
                      A                      A                      A
 Frequencies --   1055.6063              1080.0118              1100.6264
 Red. masses --      1.7267                 2.2525                 2.3692
 Frc consts  --      1.1336                 1.5480                 1.6910
 IR Inten    --      7.1567                39.1825                29.8266

                     25                     26                     27
                      A                      A                      A
 Frequencies --   1114.5227              1135.1733              1164.5040
 Red. masses --      1.7078                 2.2273                 1.6164
 Frc consts  --      1.2499                 1.6910                 1.2915
 IR Inten    --     11.4750               132.7326                32.1765

                     28                     29                     30
                      A                      A                      A
 Frequencies --   1178.0584              1212.6411              1242.5033
 Red. masses --      1.6606                 1.6627                 1.7339
 Frc consts  --      1.3579                 1.4405                 1.5771
 IR Inten    --     21.4503                 4.3439                 6.9019

                     31                     32                     33
                      A                      A                      A
 Frequencies --   1253.4158              1262.0933              1282.7435
 Red. masses --      1.4582                 1.4121                 1.3755
 Frc consts  --      1.3498                 1.3252                 1.3335
 IR Inten    --     10.3616                 2.4075                 4.3586

                     34                     35                     36
                      A                      A                      A
 Frequencies --   1327.9593              1341.8335              1405.7202
 Red. masses --      1.5884                 1.6614                 1.2099
 Frc consts  --      1.6504                 1.7625                 1.4086
 IR Inten    --      0.5337                 1.7598                 1.2734

                     37                     38                     39
                      A                      A                      A
 Frequencies --   1443.7081              1480.1869              1494.3984
 Red. masses --      1.2024                 1.1066                 1.0450
 Frc consts  --      1.4765                 1.4285                 1.3750
 IR Inten    --     66.6327                 2.1227                 6.7629

                     40                     41                     42
                      A                      A                      A
 Frequencies --   1495.9840              1876.2020              3031.7231
 Red. masses --      1.0489                12.5360                 1.0830
 Frc consts  --      1.3831                25.9998                 5.8648
 IR Inten    --      1.9971               273.7670                 7.7395

                     43                     44                     45
                      A                      A                      A
 Frequencies --   3035.2972              3040.8217              3074.6249
 Red. masses --      1.0347                 1.0599                 1.0890
 Frc consts  --      5.6168                 5.7740                 6.0655
 IR Inten    --     24.9639                34.1552                12.5099

                     46                     47                     48
                      A                      A                      A
 Frequencies --   3096.5065              3102.9098              3104.9369
 Red. masses --      1.1031                 1.0990                 1.0910
 Frc consts  --      6.2315                 6.2343                 6.1967
 IR Inten    --     27.6554                26.5445                10.5343

                     49                     50                     51
                      A                      A                      A
 Frequencies --   3113.0099              3116.2226              3800.9349
 Red. masses --      1.0926                 1.0996                 1.0659
 Frc consts  --      6.2385                 6.2914                 9.0726
 IR Inten    --     18.1168                28.1892                18.5011

 - Thermochemistry -
 -------------------
 Temperature   298.150 Kelvin.  Pressure   1.00000 Atm.
 Atom     1 has atomic number  6 and mass  12.00000

 Molecular mass:   126.06808 amu.
 Principal axes and moments of inertia in atomic units:
                           1         2         3
     Eigenvalues --   606.596001435.162571863.68774
           X            0.99970   0.02430   0.00287
           Y           -0.02432   0.99967   0.00773
           Z           -0.00268  -0.00780   0.99997
 This molecule is an asymmetric top.
 Rotational symmetry number  1.
 Warning -- assumption of classical behavior for rotation
           may cause significant error
 Rotational temperatures (Kelvin)      0.14279     0.06035     0.04647
 Rotational constants (GHZ):           2.97519     1.25752     0.96837
 Zero-point vibrational energy     415530.1 (Joules/Mol)
                                   99.31408 (Kcal/Mol)
 Warning -- explicit consideration of  11 degrees of freedom as
           vibrations may cause significant error
 Vibrational temperatures:     81.36   184.74   262.97   305.51   344.22
          (Kelvin)            417.80   482.52   527.47   636.40   659.75
                              882.32  1010.60  1075.22  1131.96  1170.52
                             1204.12  1268.90  1322.35  1390.59  1441.07
                             1474.02  1518.78  1553.89  1583.55  1603.55
                             1633.26  1675.46  1694.96  1744.72  1787.68
                             1803.38  1815.87  1845.58  1910.63  1930.60
                             2022.52  2077.17  2129.66  2150.10  2152.38
                             2699.43  4361.97  4367.11  4375.06  4423.69
                             4455.18  4464.39  4467.31  4478.92  4483.54
                             5468.69

 Zero-point correction=                           0.158267 (Hartree/Particle)
 Thermal correction to Energy=                    0.167002
 Thermal correction to Enthalpy=                  0.167946
 Thermal correction to Gibbs Free Energy=         0.124619
 Sum of electronic and zero-point Energies=           -423.016410
 Sum of electronic and thermal Energies=              -423.007675
 Sum of electronic and thermal Enthalpies=            -423.006731
 Sum of electronic and thermal Free Energies=         -423.050058

                     E (Thermal)             CV                S
                      KCal/Mol        Cal/Mol-Kelvin    Cal/Mol-Kelvin
 Total                  104.795             32.938             91.190
 Electronic               0.000              0.000              0.000
 Translational            0.889              2.981             40.409
 Rotational               0.889              2.981             28.874
 Vibrational            103.018             26.977             21.907
 Vibration     1          0.596              1.975              4.574
 Vibration     2          0.611              1.925              2.970
 Vibration     3          0.630              1.863              2.300
 Vibration     4          0.643              1.822              2.023
 Vibration     5          0.657              1.780              1.809
 Vibration     6          0.686              1.692              1.472
 Vibration     7          0.716              1.605              1.234
 Vibration     8          0.740              1.541              1.094
 Vibration     9          0.802              1.378              0.819
 Vibration    10          0.817              1.342              0.770
 Vibration    11          0.973              1.004              0.427

 Optimization completed.
    -- Stationary point found.
 Normal termination of Gaussian 09 at Tue Jan 28 03:38:30 2020.
