 Gaussian 09, Revision D.01,
 Gaussian 09:  ES64L-G09RevD.01 24-Apr-2013

 -----------------------------
 # b3lyp 6-31G(2df,p) opt Freq
 -----------------------------

 -----
 titel
 -----
 Symbolic Z-matrix:
 Charge =  0 Multiplicity = 1

 SCF Done:  E(RB3LYP) =  -423.126924559     A.U. after   13 cycles
 Optimization completed.
    -- Stationary point found.
 Normal termination of Gaussian 09 at Mon Jan 27 17:25:05 2020.

 ----------------------------------------------------------------------
 #N Geom=AllCheck Guess=TCheck SCRF=Check GenChk RB3LYP/6-31G(2df,p) Fr
 eq
 ----------------------------------------------------------------------

 Structure from the checkpoint file:  "/scratch/puck/g09_4cd7b81b-2631-45fa-9702-768d881d46b8/Gau-166163.chk"
 -----
 titel
 -----
 Charge =  0 Multiplicity = 1

                         Standard orientation:
 ---------------------------------------------------------------------
 Center     Atomic      Atomic             Coordinates (Angstroms)
 Number     Number       Type             X           Y           Z
 ---------------------------------------------------------------------
      1          6           0       -3.184489    0.210937   -0.146713
      2          6           0       -1.705074    0.099176    0.020628
      3          6           0       -0.665683    1.228469    0.153422
      4          6           0        0.407760    0.258676   -0.470284
      5          6           0        1.615873   -0.082259    0.354038
      6          6           0        2.905826    0.593172    0.167033
      7          8           0        2.695442   -0.726373   -0.335547
      8          6           0       -0.696553   -0.814304   -0.546484
      9          8           0       -1.188052   -1.001264    0.789218
     10          1           0       -3.432419    0.892265   -0.967004
     11          1           0       -3.619726   -0.769095   -0.359008
     12          1           0       -3.650301    0.600339    0.765770
     13          1           0       -0.865088    2.091394   -0.486313
     14          1           0       -0.486341    1.567324    1.177278
     15          1           0        0.719627    0.590553   -1.464497
     16          1           0        1.394348   -0.507896    1.332490
     17          1           0        3.000428    1.371750   -0.589851
     18          1           0        3.602137    0.673326    1.000877
     19          1           0       -0.787750   -1.652065   -1.228949
 ---------------------------------------------------------------------

 SCF Done:  E(RB3LYP) =  -423.126924559     A.U. after    1 cycles

 The electronic state is 1-A.
 Alpha  occ. eigenvalues --  -19.14865 -19.14545 -10.24299 -10.23361 -10.23246
 Alpha  occ. eigenvalues --  -10.23034 -10.19887 -10.19239 -10.18930  -1.07574
 Alpha  occ. eigenvalues --   -1.06438  -0.81070  -0.74942  -0.68319  -0.66023
 Alpha  occ. eigenvalues --   -0.63731  -0.57680  -0.54802  -0.51679  -0.47727
 Alpha  occ. eigenvalues --   -0.47561  -0.45746  -0.44018  -0.41046  -0.40258
 Alpha  occ. eigenvalues --   -0.39563  -0.38052  -0.35810  -0.34660  -0.33237
 Alpha  occ. eigenvalues --   -0.30008  -0.29317  -0.26237  -0.24889
 Alpha virt. eigenvalues --    0.08078   0.09406   0.10664   0.11064   0.11899
 Alpha virt. eigenvalues --    0.12219   0.13458   0.14268   0.15040   0.15432
 Alpha virt. eigenvalues --    0.16891   0.17124   0.18348   0.19220   0.20084

 Mulliken charges:
               1
     1  C   -0.501400
     2  C    0.427128
     3  C   -0.325648
     4  C   -0.033853
     5  C    0.086080
     6  C   -0.184892
     7  O   -0.241376
     8  C   -0.061391
     9  O   -0.286548
    10  H    0.124550
    11  H    0.136436
    12  H    0.131817
    13  H    0.107247
    14  H    0.107572
    15  H    0.082816
    16  H    0.107062
    17  H    0.107985
    18  H    0.113933
    19  H    0.102482
 Sum of Mulliken charges =   0.00000

 Dipole moment (field-independent basis, Debye):
    X=             -1.2520    Y=              2.3667    Z=             -0.7154  Tot=              2.7714
 Quadrupole moment (field-independent basis, Debye-Ang):
   XX=            -52.7823   YY=            -53.7716   ZZ=            -52.6698
   XY=              2.9489   XZ=              3.9110   YZ=              1.0595

  Exact polarizability:  96.102   1.909  69.468  -0.473   0.921  63.252
 Approx polarizability: 116.625  -0.487 109.534  -5.491   0.479 101.882

                      1                      2                      3
                      A                      A                      A
 Frequencies --     71.3981               102.6686               154.1391
 Red. masses --      3.8031                 3.6782                 3.1645
 Frc consts  --      0.0114                 0.0228                 0.0443
 IR Inten    --      2.2805                 1.1672                 2.3820

                      4                      5                      6
                      A                      A                      A
 Frequencies --    199.2527               297.6271               300.9830
 Red. masses --      1.0698                 2.9621                 3.4242
 Frc consts  --      0.0250                 0.1546                 0.1828
 IR Inten    --      0.2642                 4.5142                 0.0699

                      7                      8                      9
                      A                      A                      A
 Frequencies --    324.4447               402.9345               446.4210
 Red. masses --      2.8789                 2.0580                 3.9215
 Frc consts  --      0.1786                 0.1969                 0.4605
 IR Inten    --      2.4922                 2.0271                10.9551

                     10                     11                     12
                      A                      A                      A
 Frequencies --    576.5663               660.7406               731.6157
 Red. masses --      4.0923                 3.5694                 4.5807
 Frc consts  --      0.8015                 0.9181                 1.4446
 IR Inten    --      4.0336                 1.9647                 7.5154

                     13                     14                     15
                      A                      A                      A
 Frequencies --    793.0475               850.9652               869.9277
 Red. masses --      2.0664                 5.3598                 2.2934
 Frc consts  --      0.7657                 2.2868                 1.0226
 IR Inten    --      1.3134                22.7132                21.3415

                     16                     17                     18
                      A                      A                      A
 Frequencies --    894.1355               914.5011               931.1936
 Red. masses --      2.5984                 2.0005                 2.8322
 Frc consts  --      1.2239                 0.9857                 1.4470
 IR Inten    --     12.0567                15.0907                 6.9102

                     19                     20                     21
                      A                      A                      A
 Frequencies --    967.4008               982.5828              1013.2979
 Red. masses --      2.3077                 1.7295                 1.9050
 Frc consts  --      1.2724                 0.9838                 1.1525
 IR Inten    --      1.0680                10.1683                 3.9173

                     22                     23                     24
                      A                      A                      A
 Frequencies --   1049.2619              1060.7476              1103.9517
 Red. masses --      1.5466                 1.6842                 1.2639
 Frc consts  --      1.0032                 1.1165                 0.9075
 IR Inten    --      1.9437                12.6916                 1.4105

                     25                     26                     27
                      A                      A                      A
 Frequencies --   1146.7018              1156.1870              1175.6160
 Red. masses --      1.7526                 1.4001                 1.3685
 Frc consts  --      1.3578                 1.1027                 1.1143
 IR Inten    --      2.7955                 0.8029                 3.7359

                     28                     29                     30
                      A                      A                      A
 Frequencies --   1191.4114              1204.2009              1224.1873
 Red. masses --      1.7171                 1.7353                 1.5507
 Frc consts  --      1.4360                 1.4826                 1.3692
 IR Inten    --      4.4271                 8.7676                 2.8767

                     31                     32                     33
                      A                      A                      A
 Frequencies --   1252.4713              1275.2304              1289.6069
 Red. masses --      1.4154                 1.8839                 1.5193
 Frc consts  --      1.3082                 1.8050                 1.4887
 IR Inten    --      7.3824                18.9227                 4.8649

                     34                     35                     36
                      A                      A                      A
 Frequencies --   1299.7306              1404.0786              1442.3468
 Red. masses --      1.7152                 1.3162                 2.1371
 Frc consts  --      1.7071                 1.5289                 2.6195
 IR Inten    --      7.1808                 2.1811                 1.5421

                     37                     38                     39
                      A                      A                      A
 Frequencies --   1461.2549              1478.1296              1487.2958
 Red. masses --      1.4465                 1.1298                 1.1913
 Frc consts  --      1.8197                 1.4544                 1.5526
 IR Inten    --     12.0354                 2.1008                 9.5682

                     40                     41                     42
                      A                      A                      A
 Frequencies --   1498.9013              1529.4214              3033.9965
 Red. masses --      1.4578                 1.4007                 1.0366
 Frc consts  --      1.9297                 1.9304                 5.6218
 IR Inten    --      7.4561                 3.2372                23.4311

                     43                     44                     45
                      A                      A                      A
 Frequencies --   3061.4730              3074.6329              3077.3920
 Red. masses --      1.0586                 1.0780                 1.0572
 Frc consts  --      5.8459                 6.0040                 5.8987
 IR Inten    --     26.2540                 3.7992                36.4649

                     46                     47                     48
                      A                      A                      A
 Frequencies --   3095.8374              3118.5484              3121.8800
 Red. masses --      1.0997                 1.1012                 1.0980
 Frc consts  --      6.2097                 6.3099                 6.3049
 IR Inten    --     14.0497                 4.3023                11.1305

                     49                     50                     51
                      A                      A                      A
 Frequencies --   3122.9142              3162.7721              3182.0245
 Red. masses --      1.0976                 1.1187                 1.0941
 Frc consts  --      6.3071                 6.5930                 6.5267
 IR Inten    --     26.3043                32.2728                17.0818

 - Thermochemistry -
 -------------------
 Temperature   298.150 Kelvin.  Pressure   1.00000 Atm.
 Atom     1 has atomic number  6 and mass  12.00000

 Molecular mass:   126.06808 amu.
 Principal axes and moments of inertia in atomic units:
                           1         2         3
     Eigenvalues --   360.389341915.094572058.16548
           X            0.99992   0.00506   0.01118
           Y           -0.00534   0.99965   0.02593
           Z           -0.01104  -0.02598   0.99960
 This molecule is an asymmetric top.
 Rotational symmetry number  1.
 Rotational temperatures (Kelvin)      0.24033     0.04523     0.04208
 Rotational constants (GHZ):           5.00775     0.94238     0.87687
 Zero-point vibrational energy     414314.9 (Joules/Mol)
                                   99.02364 (Kcal/Mol)
 Warning -- explicit consideration of  10 degrees of freedom as
           vibrations may cause significant error
 Vibrational temperatures:    102.73   147.72   221.77   286.68   428.22
          (Kelvin)            433.05   466.80   579.73   642.30   829.55
                              950.66  1052.63  1141.02  1224.35  1251.63
                             1286.46  1315.76  1339.78  1391.87  1413.72
                             1457.91  1509.65  1526.18  1588.34  1649.85
                             1663.49  1691.45  1714.17  1732.57  1761.33
                             1802.02  1834.77  1855.45  1870.02  2020.15
                             2075.21  2102.42  2126.70  2139.88  2156.58
                             2200.49  4365.24  4404.77  4423.71  4427.68
                             4454.21  4486.89  4491.68  4493.17  4550.52
                             4578.22

 Zero-point correction=                           0.157804 (Hartree/Particle)
 Thermal correction to Energy=                    0.166321
 Thermal correction to Enthalpy=                  0.167265
 Thermal correction to Gibbs Free Energy=         0.124332
 Sum of electronic and zero-point Energies=           -422.969120
 Sum of electronic and thermal Energies=              -422.960603
 Sum of electronic and thermal Enthalpies=            -422.959659
 Sum of electronic and thermal Free Energies=         -423.002593

                     E (Thermal)             CV                S
                      KCal/Mol        Cal/Mol-Kelvin    Cal/Mol-Kelvin
 Total                  104.368             32.018             90.362
 Electronic               0.000              0.000              0.000
 Translational            0.889              2.981             40.409
 Rotational               0.889              2.981             28.742
 Vibrational            102.591             26.057             21.211
 Vibration     1          0.598              1.968              4.114
 Vibration     2          0.605              1.947              3.403
 Vibration     3          0.620              1.898              2.621
 Vibration     4          0.637              1.841              2.140
 Vibration     5          0.691              1.678              1.430
 Vibration     6          0.693              1.672              1.411
 Vibration     7          0.709              1.627              1.288
 Vibration     8          0.768              1.464              0.952
 Vibration     9          0.806              1.369              0.807
 Vibration    10          0.933              1.082              0.492

 Optimization completed.
    -- Stationary point found.
 Normal termination of Gaussian 09 at Mon Jan 27 18:07:12 2020.
