 Gaussian 09, Revision D.01,
 Gaussian 09:  ES64L-G09RevD.01 24-Apr-2013

 -----------------------------
 # b3lyp 6-31G(2df,p) opt Freq
 -----------------------------

 -----
 titel
 -----
 Symbolic Z-matrix:
 Charge =  0 Multiplicity = 1

 SCF Done:  E(RB3LYP) =  -423.126696116     A.U. after   14 cycles
 Optimization completed.
    -- Stationary point found.
 Normal termination of Gaussian 09 at Tue Jan 28 09:19:19 2020.

 ----------------------------------------------------------------------
 #N Geom=AllCheck Guess=TCheck SCRF=Check GenChk RB3LYP/6-31G(2df,p) Fr
 eq
 ----------------------------------------------------------------------

 Structure from the checkpoint file:  "/scratch/puck/g09_df39ae18-74c8-4140-97c3-c1666559244a/Gau-84013.chk"
 -----
 titel
 -----
 Charge =  0 Multiplicity = 1

                         Standard orientation:
 ---------------------------------------------------------------------
 Center     Atomic      Atomic             Coordinates (Angstroms)
 Number     Number       Type             X           Y           Z
 ---------------------------------------------------------------------
      1          6           0        2.567640    0.506526    0.210836
      2          8           0        1.769954   -0.460706   -0.446630
      3          6           0        0.416911   -0.351485   -0.173222
      4          6           0       -0.542615   -1.473238   -0.681532
      5          6           0       -1.494301   -0.822057    0.382054
      6          6           0       -0.216508   -0.580928    1.234805
      7          6           0       -1.717697    0.554808   -0.285805
      8          8           0       -1.040059    1.666007    0.322517
      9          6           0       -0.355524    0.900812   -0.683368
     10          1           0        2.494443    0.416709    1.303579
     11          1           0        3.601293    0.327533   -0.092561
     12          1           0        2.283646    1.530348   -0.071752
     13          1           0       -0.849137   -1.441761   -1.731156
     14          1           0       -0.200557   -2.474290   -0.409152
     15          1           0       -2.359197   -1.347879    0.780838
     16          1           0       -0.225805    0.237938    1.950907
     17          1           0        0.148254   -1.507431    1.680953
     18          1           0       -2.613705    0.789785   -0.850259
     19          1           0       -0.065831    1.420015   -1.591100
 ---------------------------------------------------------------------

 SCF Done:  E(RB3LYP) =  -423.126696116     A.U. after    1 cycles

 The electronic state is 1-A.
 Alpha  occ. eigenvalues --  -19.14997 -19.14621 -10.24459 -10.23442 -10.23026
 Alpha  occ. eigenvalues --  -10.22555 -10.20080 -10.18856 -10.18080  -1.07297
 Alpha  occ. eigenvalues --   -1.04035  -0.87072  -0.71084  -0.68442  -0.66285
 Alpha  occ. eigenvalues --   -0.65258  -0.56166  -0.55146  -0.52986  -0.48904
 Alpha  occ. eigenvalues --   -0.47120  -0.45408  -0.44229  -0.40721  -0.40067
 Alpha  occ. eigenvalues --   -0.39313  -0.36501  -0.35315  -0.33564  -0.32909
 Alpha  occ. eigenvalues --   -0.30720  -0.28600  -0.27262  -0.24001
 Alpha virt. eigenvalues --    0.08044   0.09569   0.10195   0.11267   0.13191
 Alpha virt. eigenvalues --    0.14182   0.14887   0.15366   0.16027   0.16231
 Alpha virt. eigenvalues --    0.17232   0.17834   0.20359   0.20929   0.21377

 Mulliken charges:
               1
     1  C   -0.265760
     2  O   -0.299976
     3  C    0.417330
     4  C   -0.279442
     5  C   -0.091162
     6  C   -0.290734
     7  C    0.047808
     8  O   -0.256100
     9  C   -0.043618
    10  H    0.116740
    11  H    0.128238
    12  H    0.117181
    13  H    0.095403
    14  H    0.105620
    15  H    0.072594
    16  H    0.118492
    17  H    0.100243
    18  H    0.102882
    19  H    0.104261
 Sum of Mulliken charges =   0.00000

 Dipole moment (field-independent basis, Debye):
    X=             -0.1559    Y=             -0.6795    Z=             -0.3280  Tot=              0.7705
 Quadrupole moment (field-independent basis, Debye-Ang):
   XX=            -50.0098   YY=            -55.8318   ZZ=            -52.4790
   XY=              4.1282   XZ=              2.8261   YZ=             -2.7518

  Exact polarizability:  82.578   2.759  71.959   1.189  -1.637  66.767
 Approx polarizability: 114.214   2.197 109.560  -1.820   2.281 103.054

                      1                      2                      3
                      A                      A                      A
 Frequencies --    100.7243               177.1371               182.9972
 Red. masses --      2.6085                 2.6290                 1.2022
 Frc consts  --      0.0156                 0.0486                 0.0237
 IR Inten    --      3.6555                 2.9993                 0.9754

                      4                      5                      6
                      A                      A                      A
 Frequencies --    354.8307               367.1120               406.4002
 Red. masses --      3.5236                 3.8484                 3.3648
 Frc consts  --      0.2614                 0.3056                 0.3274
 IR Inten    --      1.5492                 0.9856                10.1014

                      7                      8                      9
                      A                      A                      A
 Frequencies --    453.5085               522.1042               579.1357
 Red. masses --      3.6886                 2.2253                 3.7278
 Frc consts  --      0.4470                 0.3574                 0.7367
 IR Inten    --      1.2491                 3.0038                 5.3535

                     10                     11                     12
                      A                      A                      A
 Frequencies --    622.1149               683.9637               793.3978
 Red. masses --      3.3418                 3.6944                 2.6698
 Frc consts  --      0.7620                 1.0183                 0.9902
 IR Inten    --      7.8831                 1.6236                 1.8476

                     13                     14                     15
                      A                      A                      A
 Frequencies --    815.5863               856.9701               882.7960
 Red. masses --      3.5553                 2.3603                 2.6384
 Frc consts  --      1.3934                 1.0213                 1.2114
 IR Inten    --     10.0490                 1.0832                13.2988

                     16                     17                     18
                      A                      A                      A
 Frequencies --    901.7174               945.0200               961.1338
 Red. masses --      2.3331                 2.0412                 2.0153
 Frc consts  --      1.1177                 1.0740                 1.0969
 IR Inten    --     16.4469                 0.8263                 5.1710

                     19                     20                     21
                      A                      A                      A
 Frequencies --    972.1566               996.8059              1035.7743
 Red. masses --      3.5336                 1.9625                 1.7651
 Frc consts  --      1.9676                 1.1489                 1.1157
 IR Inten    --     13.3605                 0.4466                 5.0362

                     22                     23                     24
                      A                      A                      A
 Frequencies --   1047.7750              1070.1603              1088.7375
 Red. masses --      1.1205                 4.4272                 1.6098
 Frc consts  --      0.7248                 2.9873                 1.1243
 IR Inten    --      0.7908                43.7579                15.2067

                     25                     26                     27
                      A                      A                      A
 Frequencies --   1101.0667              1161.4673              1182.8884
 Red. masses --      1.4699                 1.5758                 1.2861
 Frc consts  --      1.0499                 1.2524                 1.0603
 IR Inten    --      3.4133                 5.7232                 2.1934

                     28                     29                     30
                      A                      A                      A
 Frequencies --   1194.3208              1210.6559              1232.2543
 Red. masses --      1.9108                 1.6571                 1.5661
 Frc consts  --      1.6058                 1.4310                 1.4011
 IR Inten    --      3.4619                33.1455                 0.4873

                     31                     32                     33
                      A                      A                      A
 Frequencies --   1232.6949              1244.6742              1263.5478
 Red. masses --      1.5160                 1.7151                 1.6305
 Frc consts  --      1.3573                 1.5655                 1.5338
 IR Inten    --     37.4467                13.5030                 9.7034

                     34                     35                     36
                      A                      A                      A
 Frequencies --   1288.9780              1323.2249              1400.4844
 Red. masses --      1.8034                 2.1671                 3.3182
 Frc consts  --      1.7654                 2.2356                 3.8346
 IR Inten    --     20.5396               148.1880                28.1273

                     37                     38                     39
                      A                      A                      A
 Frequencies --   1476.1979              1484.5071              1488.0202
 Red. masses --      1.1003                 1.1653                 1.0481
 Frc consts  --      1.4127                 1.5131                 1.3673
 IR Inten    --      3.2653                 2.2276                 4.8039

                     40                     41                     42
                      A                      A                      A
 Frequencies --   1507.1206              1518.0425              2993.0096
 Red. masses --      1.0537                 1.1848                 1.0352
 Frc consts  --      1.4101                 1.6086                 5.4639
 IR Inten    --      9.7688                 8.2879                43.1842

                     43                     44                     45
                      A                      A                      A
 Frequencies --   3045.1728              3055.6975              3091.6717
 Red. masses --      1.1034                 1.0576                 1.0593
 Frc consts  --      6.0285                 5.8181                 5.9656
 IR Inten    --     38.6245                37.1512                16.0206

                     46                     47                     48
                      A                      A                      A
 Frequencies --   3122.6732              3123.1784              3137.7739
 Red. masses --      1.1075                 1.0984                 1.0904
 Frc consts  --      6.3625                 6.3125                 6.3251
 IR Inten    --     30.4632                27.0940                33.7294

                     49                     50                     51
                      A                      A                      A
 Frequencies --   3166.5409              3166.9219              3179.2385
 Red. masses --      1.0996                 1.0953                 1.0979
 Frc consts  --      6.4964                 6.4722                 6.5385
 IR Inten    --     13.0800                15.6608                18.6514

 - Thermochemistry -
 -------------------
 Temperature   298.150 Kelvin.  Pressure   1.00000 Atm.
 Atom     1 has atomic number  6 and mass  12.00000

 Molecular mass:   126.06808 amu.
 Principal axes and moments of inertia in atomic units:
                           1         2         3
     Eigenvalues --   623.307481100.601341343.37355
           X            0.99788   0.06143   0.02159
           Y           -0.06080   0.99774  -0.02866
           Z           -0.02330   0.02729   0.99936
 This molecule is an asymmetric top.
 Rotational symmetry number  1.
 Warning -- assumption of classical behavior for rotation
           may cause significant error
 Rotational temperatures (Kelvin)      0.13896     0.07870     0.06447
 Rotational constants (GHZ):           2.89543     1.63978     1.34344
 Zero-point vibrational energy     419949.6 (Joules/Mol)
                                  100.37035 (Kcal/Mol)
 Warning -- explicit consideration of   9 degrees of freedom as
           vibrations may cause significant error
 Vibrational temperatures:    144.92   254.86   263.29   510.52   528.19
          (Kelvin)            584.72   652.50   751.19   833.25   895.08
                              984.07  1141.52  1173.45  1232.99  1270.14
                             1297.37  1359.67  1382.86  1398.71  1434.18
                             1490.25  1507.51  1539.72  1566.45  1584.19
                             1671.09  1701.91  1718.36  1741.86  1772.94
                             1773.57  1790.81  1817.96  1854.55  1903.82
                             2014.98  2123.92  2135.87  2140.93  2168.41
                             2184.12  4306.27  4381.32  4396.46  4448.22
                             4492.82  4493.55  4514.55  4555.94  4556.49
                             4574.21

 Zero-point correction=                           0.159950 (Hartree/Particle)
 Thermal correction to Energy=                    0.167431
 Thermal correction to Enthalpy=                  0.168375
 Thermal correction to Gibbs Free Energy=         0.128133
 Sum of electronic and zero-point Energies=           -422.966746
 Sum of electronic and thermal Energies=              -422.959265
 Sum of electronic and thermal Enthalpies=            -422.958321
 Sum of electronic and thermal Free Energies=         -422.998564

                     E (Thermal)             CV                S
                      KCal/Mol        Cal/Mol-Kelvin    Cal/Mol-Kelvin
 Total                  105.064             30.094             84.697
 Electronic               0.000              0.000              0.000
 Translational            0.889              2.981             40.409
 Rotational               0.889              2.981             28.312
 Vibrational            103.287             24.133             15.976
 Vibration     1          0.604              1.949              3.440
 Vibration     2          0.628              1.870              2.358
 Vibration     3          0.630              1.863              2.298
 Vibration     4          0.731              1.565              1.145
 Vibration     5          0.740              1.540              1.092
 Vibration     6          0.771              1.456              0.939
 Vibration     7          0.812              1.353              0.785
 Vibration     8          0.877              1.201              0.605
 Vibration     9          0.936              1.076              0.487

 Optimization completed.
    -- Stationary point found.
 Normal termination of Gaussian 09 at Tue Jan 28 10:10:56 2020.
