 Gaussian 09, Revision D.01,
 Gaussian 09:  ES64L-G09RevD.01 24-Apr-2013

 -----------------------------
 # b3lyp 6-31G(2df,p) opt Freq
 -----------------------------

 -----
 titel
 -----
 Symbolic Z-matrix:
 Charge =  0 Multiplicity = 1

 SCF Done:  E(RB3LYP) =  -423.126103901     A.U. after   13 cycles
 Optimization completed.
    -- Stationary point found.
 Normal termination of Gaussian 09 at Mon Jan 27 18:09:56 2020.

 ----------------------------------------------------------------------
 #N Geom=AllCheck Guess=TCheck SCRF=Check GenChk RB3LYP/6-31G(2df,p) Fr
 eq
 ----------------------------------------------------------------------

 Structure from the checkpoint file:  "/scratch/puck/g09_8ed3e8f8-d03b-4bba-bab7-1192a6298e12/Gau-181782.chk"
 -----
 titel
 -----
 Charge =  0 Multiplicity = 1

                         Standard orientation:
 ---------------------------------------------------------------------
 Center     Atomic      Atomic             Coordinates (Angstroms)
 Number     Number       Type             X           Y           Z
 ---------------------------------------------------------------------
      1          6           0        1.746889    1.320392   -0.589601
      2          6           0        1.123478    0.012491   -0.122100
      3          8           0        2.136119   -0.979156    0.031912
      4          6           0       -0.119723   -0.542447   -0.822272
      5          6           0       -0.639596   -1.136571    0.471712
      6          6           0        0.268704   -0.051771    1.179551
      7          6           0       -0.882249    0.976307    0.996274
      8          6           0       -1.365398    0.037837   -0.108062
      9          8           0       -2.613989    0.000293   -0.693155
     10          1           0        2.230970    1.178217   -1.564126
     11          1           0        1.007160    2.116136   -0.707257
     12          1           0        2.513514    1.651828    0.117849
     13          1           0        2.499775   -1.168520   -0.839577
     14          1           0       -0.213230   -0.955755   -1.820579
     15          1           0       -0.952023   -2.135418    0.733405
     16          1           0        0.777248   -0.170903    2.133185
     17          1           0       -1.572817    0.952020    1.844331
     18          1           0       -0.623542    2.015356    0.763758
     19          1           0       -2.636724    0.650518   -1.404048
 ---------------------------------------------------------------------

 SCF Done:  E(RB3LYP) =  -423.126103901     A.U. after    1 cycles

 The electronic state is 1-A.
 Alpha  occ. eigenvalues --  -19.14901 -19.12943 -10.23891 -10.23577 -10.19143
 Alpha  occ. eigenvalues --  -10.18442 -10.18378 -10.18079 -10.17287  -1.03619
 Alpha  occ. eigenvalues --   -1.01554  -0.91495  -0.73896  -0.71655  -0.66697
 Alpha  occ. eigenvalues --   -0.60654  -0.56605  -0.53052  -0.52030  -0.48576
 Alpha  occ. eigenvalues --   -0.46002  -0.44967  -0.43252  -0.40747  -0.39719
 Alpha  occ. eigenvalues --   -0.38323  -0.35858  -0.35516  -0.31957  -0.31011
 Alpha  occ. eigenvalues --   -0.29350  -0.27714  -0.24524  -0.24129
 Alpha virt. eigenvalues --    0.07538   0.07828   0.11271   0.11458   0.12280
 Alpha virt. eigenvalues --    0.13172   0.14466   0.15373   0.16831   0.17404
 Alpha virt. eigenvalues --    0.18779   0.19255   0.20670   0.21528   0.22794

 Mulliken charges:
               1
     1  C   -0.458941
     2  C    0.432559
     3  O   -0.482139
     4  C   -0.217423
     5  C   -0.118539
     6  C   -0.099615
     7  C   -0.318393
     8  C    0.384035
     9  O   -0.463368
    10  H    0.102582
    11  H    0.114269
    12  H    0.124350
    13  H    0.272624
    14  H    0.076332
    15  H    0.098015
    16  H    0.079360
    17  H    0.105337
    18  H    0.084489
    19  H    0.284467
 Sum of Mulliken charges =   0.00000

 Dipole moment (field-independent basis, Debye):
    X=              0.3760    Y=              1.1915    Z=             -1.7189  Tot=              2.1250
 Quadrupole moment (field-independent basis, Debye-Ang):
   XX=            -56.9687   YY=            -52.4006   ZZ=            -48.5302
   XY=             -1.6110   XZ=             -1.6749   YZ=              0.1273

  Exact polarizability:  81.290  -0.619  70.714  -1.847   0.407  71.778
 Approx polarizability: 112.806  -3.831 106.140  -0.705  -1.596 110.811

                      1                      2                      3
                      A                      A                      A
 Frequencies --    159.6829               210.9089               239.9417
 Red. masses --      3.5241                 1.1507                 1.9794
 Frc consts  --      0.0529                 0.0302                 0.0671
 IR Inten    --      1.5339                 0.3042                21.7624

                      4                      5                      6
                      A                      A                      A
 Frequencies --    261.1965               286.9289               331.2188
 Red. masses --      1.2617                 1.5449                 2.0005
 Frc consts  --      0.0507                 0.0749                 0.1293
 IR Inten    --     46.0646                36.2068                97.3345

                      7                      8                      9
                      A                      A                      A
 Frequencies --    360.5573               389.6243               438.5993
 Red. masses --      3.2290                 3.6642                 2.9271
 Frc consts  --      0.2473                 0.3277                 0.3318
 IR Inten    --      2.3358                13.2606                 3.0839

                     10                     11                     12
                      A                      A                      A
 Frequencies --    465.8227               521.3006               603.9405
 Red. masses --      2.0229                 3.7815                 3.7816
 Frc consts  --      0.2586                 0.6055                 0.8127
 IR Inten    --      2.8884                 1.4857                 6.4750

                     13                     14                     15
                      A                      A                      A
 Frequencies --    654.7373               756.6265               792.3100
 Red. masses --      3.5157                 4.1183                 2.1212
 Frc consts  --      0.8880                 1.3891                 0.7846
 IR Inten    --      2.3064                 2.6746                 6.8429

                     16                     17                     18
                      A                      A                      A
 Frequencies --    839.6011               874.4068               893.7674
 Red. masses --      1.3620                 1.9588                 2.2817
 Frc consts  --      0.5657                 0.8824                 1.0739
 IR Inten    --      4.9182                 7.0005                 5.1042

                     19                     20                     21
                      A                      A                      A
 Frequencies --    920.1786               930.5402               947.3160
 Red. masses --      1.6152                 3.2191                 1.8571
 Frc consts  --      0.8058                 1.6423                 0.9819
 IR Inten    --     10.7532                 9.6030                18.9186

                     22                     23                     24
                      A                      A                      A
 Frequencies --    981.6878              1021.6030              1028.1817
 Red. masses --      2.0308                 2.2880                 1.6105
 Frc consts  --      1.1531                 1.4069                 1.0031
 IR Inten    --      3.0296                 1.1900                16.0336

                     25                     26                     27
                      A                      A                      A
 Frequencies --   1088.2695              1102.1404              1127.5975
 Red. masses --      1.6241                 1.5987                 1.5103
 Frc consts  --      1.1333                 1.1442                 1.1314
 IR Inten    --     49.3568                14.8382                 1.7256

                     28                     29                     30
                      A                      A                      A
 Frequencies --   1134.2194              1153.0176              1191.0542
 Red. masses --      1.8906                 1.6472                 1.8794
 Frc consts  --      1.4330                 1.2902                 1.5708
 IR Inten    --     31.0725                20.5707                15.4938

                     31                     32                     33
                      A                      A                      A
 Frequencies --   1201.7223              1231.0934              1273.6532
 Red. masses --      3.2409                 1.7999                 1.8004
 Frc consts  --      2.7575                 1.6072                 1.7208
 IR Inten    --     25.3223                11.5362                69.2611

                     34                     35                     36
                      A                      A                      A
 Frequencies --   1288.2254              1311.6599              1365.2937
 Red. masses --      2.3333                 2.3714                 1.7512
 Frc consts  --      2.2814                 2.4038                 1.9233
 IR Inten    --     23.1178               122.2177                25.7398

                     37                     38                     39
                      A                      A                      A
 Frequencies --   1405.6709              1439.5061              1485.9907
 Red. masses --      1.3076                 2.7169                 1.0748
 Frc consts  --      1.5222                 3.3171                 1.3984
 IR Inten    --     12.7060                35.6578                 5.4383

                     40                     41                     42
                      A                      A                      A
 Frequencies --   1490.9992              1516.3873              3026.2221
 Red. masses --      1.0885                 1.1701                 1.0407
 Frc consts  --      1.4257                 1.5852                 5.6154
 IR Inten    --      5.9416                 2.5223                21.5275

                     43                     44                     45
                      A                      A                      A
 Frequencies --   3037.5917              3090.4747              3096.1166
 Red. masses --      1.0591                 1.0956                 1.1039
 Frc consts  --      5.7576                 6.1651                 6.2347
 IR Inten    --     51.3511                26.9807                25.3449

                     46                     47                     48
                      A                      A                      A
 Frequencies --   3123.0568              3148.9791              3175.4321
 Red. masses --      1.1006                 1.0913                 1.0916
 Frc consts  --      6.3246                 6.3759                 6.4850
 IR Inten    --     22.2805                21.5800                16.0794

                     49                     50                     51
                      A                      A                      A
 Frequencies --   3241.5287              3791.6177              3804.2406
 Red. masses --      1.0983                 1.0660                 1.0661
 Frc consts  --      6.7996                 9.0295                 9.0900
 IR Inten    --      3.8934                20.1601                13.4495

 - Thermochemistry -
 -------------------
 Temperature   298.150 Kelvin.  Pressure   1.00000 Atm.
 Atom     1 has atomic number  6 and mass  12.00000

 Molecular mass:   126.06808 amu.
 Principal axes and moments of inertia in atomic units:
                           1         2         3
     Eigenvalues --   561.595621327.010931391.06019
           X            0.99968   0.01712  -0.01860
           Y           -0.01719   0.99985  -0.00365
           Z            0.01854   0.00397   0.99982
 This molecule is an asymmetric top.
 Rotational symmetry number  1.
 Warning -- assumption of classical behavior for rotation
           may cause significant error
 Rotational temperatures (Kelvin)      0.15423     0.06527     0.06226
 Rotational constants (GHZ):           3.21360     1.36000     1.29739
 Zero-point vibrational energy     414221.6 (Joules/Mol)
                                   99.00133 (Kcal/Mol)
 Warning -- explicit consideration of  12 degrees of freedom as
           vibrations may cause significant error
 Vibrational temperatures:    229.75   303.45   345.22   375.80   412.83
          (Kelvin)            476.55   518.76   560.58   631.05   670.21
                              750.03   868.93   942.02  1088.62  1139.96
                             1208.00  1258.07  1285.93  1323.93  1338.84
                             1362.97  1412.43  1469.86  1479.32  1565.78
                             1585.73  1622.36  1631.89  1658.93  1713.66
                             1729.01  1771.27  1832.50  1853.47  1887.18
                             1964.35  2022.44  2071.13  2138.01  2145.21
                             2181.74  4354.05  4370.41  4446.50  4454.62
                             4493.38  4530.67  4568.73  4663.83  5455.29
                             5473.45

 Zero-point correction=                           0.157769 (Hartree/Particle)
 Thermal correction to Energy=                    0.166096
 Thermal correction to Enthalpy=                  0.167040
 Thermal correction to Gibbs Free Energy=         0.125751
 Sum of electronic and zero-point Energies=           -422.968335
 Sum of electronic and thermal Energies=              -422.960008
 Sum of electronic and thermal Enthalpies=            -422.959064
 Sum of electronic and thermal Free Energies=         -423.000353

                     E (Thermal)             CV                S
                      KCal/Mol        Cal/Mol-Kelvin    Cal/Mol-Kelvin
 Total                  104.227             33.821             86.901
 Electronic               0.000              0.000              0.000
 Translational            0.889              2.981             40.409
 Rotational               0.889              2.981             28.429
 Vibrational            102.449             27.859             18.063
 Vibration     1          0.622              1.892              2.554
 Vibration     2          0.643              1.824              2.036
 Vibration     3          0.657              1.779              1.803
 Vibration     4          0.669              1.744              1.654
 Vibration     5          0.684              1.698              1.492
 Vibration     6          0.714              1.613              1.254
 Vibration     7          0.735              1.554              1.120
 Vibration     8          0.758              1.492              1.002
 Vibration     9          0.799              1.386              0.831
 Vibration    10          0.823              1.326              0.749
 Vibration    11          0.876              1.203              0.607
 Vibration    12          0.962              1.023              0.443

 Optimization completed.
    -- Stationary point found.
 Normal termination of Gaussian 09 at Mon Jan 27 18:55:53 2020.
