 Gaussian 09, Revision D.01,
 Gaussian 09:  ES64L-G09RevD.01 24-Apr-2013

 -----------------------------
 # b3lyp 6-31G(2df,p) opt Freq
 -----------------------------

 -----
 titel
 -----
 Symbolic Z-matrix:
 Charge =  0 Multiplicity = 1

 SCF Done:  E(RB3LYP) =  -423.173338709     A.U. after   14 cycles
 SCF Done:  E(RB3LYP) =  -423.173338453     A.U. after    7 cycles
 SCF Done:  E(RB3LYP) =  -423.173338744     A.U. after    8 cycles
 SCF Done:  E(RB3LYP) =  -423.173338753     A.U. after    7 cycles
 Optimization completed.
    -- Stationary point found.
 Normal termination of Gaussian 09 at Mon Jan 27 14:14:11 2020.

 ----------------------------------------------------------------------
 #N Geom=AllCheck Guess=TCheck SCRF=Check GenChk RB3LYP/6-31G(2df,p) Fr
 eq
 ----------------------------------------------------------------------

 Structure from the checkpoint file:  "/scratch/puck/g09_3981ea95-d18f-40e6-9b80-1ef1b9cd2793/Gau-50360.chk"
 -----
 titel
 -----
 Charge =  0 Multiplicity = 1

                         Standard orientation:
 ---------------------------------------------------------------------
 Center     Atomic      Atomic             Coordinates (Angstroms)
 Number     Number       Type             X           Y           Z
 ---------------------------------------------------------------------
      1          6           0       -3.701924    0.192136    0.086565
      2          6           0       -2.354281   -0.335172   -0.071574
      3          6           0       -1.242046   -0.778597   -0.196868
      4          6           0        0.118201   -1.277155   -0.354936
      5          6           0        1.205144   -0.248872    0.080401
      6          6           0        2.606450   -0.806838   -0.220924
      7          8           0        1.090985    0.028113    1.451603
      8          6           0        1.002806    1.036729   -0.710935
      9          8           0        0.793659    2.095178   -0.172749
     10          1           0       -4.280316    0.095029   -0.838830
     11          1           0       -4.246148   -0.338191    0.875745
     12          1           0       -3.681433    1.254127    0.354614
     13          1           0        0.273049   -2.173611    0.257232
     14          1           0        0.296289   -1.573521   -1.397058
     15          1           0        2.743941   -1.008674   -1.288140
     16          1           0        3.370982   -0.098458    0.108173
     17          1           0        2.748325   -1.741111    0.329625
     18          1           0        0.826564    0.959559    1.512658
     19          1           0        1.065498    0.945139   -1.815218
 ---------------------------------------------------------------------

 SCF Done:  E(RB3LYP) =  -423.173338753     A.U. after    1 cycles

 The electronic state is 1-A.
 Alpha  occ. eigenvalues --  -19.15949 -19.13268 -10.28070 -10.25384 -10.21256
 Alpha  occ. eigenvalues --  -10.20260 -10.18997 -10.17448 -10.16930  -1.07111
 Alpha  occ. eigenvalues --   -1.01820  -0.81078  -0.77172  -0.73245  -0.67277
 Alpha  occ. eigenvalues --   -0.65219  -0.57359  -0.52685  -0.49809  -0.46845
 Alpha  occ. eigenvalues --   -0.46025  -0.44591  -0.43157  -0.42426  -0.41962
 Alpha  occ. eigenvalues --   -0.40767  -0.39958  -0.38604  -0.37478  -0.35026
 Alpha  occ. eigenvalues --   -0.27831  -0.27136  -0.25002  -0.24717
 Alpha virt. eigenvalues --   -0.03448   0.05088   0.06002   0.09127   0.11087
 Alpha virt. eigenvalues --    0.11947   0.12443   0.14918   0.15810   0.16535
 Alpha virt. eigenvalues --    0.17846   0.18145   0.20113   0.21113   0.21569

 Mulliken charges:
               1
     1  C   -0.498575
     2  C    0.118910
     3  C    0.019339
     4  C   -0.385219
     5  C    0.266027
     6  C   -0.420831
     7  O   -0.460116
     8  C    0.146301
     9  O   -0.269377
    10  H    0.146840
    11  H    0.149553
    12  H    0.152571
    13  H    0.141280
    14  H    0.121792
    15  H    0.114874
    16  H    0.132334
    17  H    0.136475
    18  H    0.293721
    19  H    0.094100
 Sum of Mulliken charges =   0.00000

 Dipole moment (field-independent basis, Debye):
    X=             -0.1271    Y=             -1.0983    Z=             -1.6892  Tot=              2.0189
 Quadrupole moment (field-independent basis, Debye-Ang):
   XX=            -45.4924   YY=            -56.2921   ZZ=            -53.6468
   XY=             -2.9815   XZ=             -3.1848   YZ=              1.4277

  Exact polarizability: 103.451 -10.959  73.005  -3.780   2.549  64.827
 Approx polarizability: 137.964 -22.027 114.120  -6.819   7.453  99.285

                      1                      2                      3
                      A                      A                      A
 Frequencies --     25.9401                53.8535                64.6655
 Red. masses --      1.0223                 3.9462                 4.0029
 Frc consts  --      0.0004                 0.0067                 0.0099
 IR Inten    --      0.0285                 0.5693                 1.3274

                      4                      5                      6
                      A                      A                      A
 Frequencies --    115.6796               207.4940               215.0748
 Red. masses --      4.3752                 1.9083                 1.2982
 Frc consts  --      0.0345                 0.0484                 0.0354
 IR Inten    --      0.8988                 5.0785                 1.4419

                      7                      8                      9
                      A                      A                      A
 Frequencies --    241.8511               292.1515               309.5447
 Red. masses --      3.8118                 3.7111                 2.1464
 Frc consts  --      0.1314                 0.1866                 0.1212
 IR Inten    --      2.4464                 7.8372                 3.2096

                     10                     11                     12
                      A                      A                      A
 Frequencies --    329.2287               374.0455               382.9360
 Red. masses --      3.2319                 2.1051                 2.9965
 Frc consts  --      0.2064                 0.1735                 0.2589
 IR Inten    --      9.3976                41.2265                 7.8435

                     13                     14                     15
                      A                      A                      A
 Frequencies --    388.9090               440.0864               543.8353
 Red. masses --      4.1442                 1.8218                 3.1705
 Frc consts  --      0.3693                 0.2079                 0.5525
 IR Inten    --      5.0694                32.3670                 0.4479

                     16                     17                     18
                      A                      A                      A
 Frequencies --    642.5681               777.7353               827.6581
 Red. masses --      4.2236                 3.7037                 3.5071
 Frc consts  --      1.0275                 1.3199                 1.4155
 IR Inten    --      6.6316                 0.2073                37.9910

                     19                     20                     21
                      A                      A                      A
 Frequencies --    863.0935               916.8719               951.0065
 Red. masses --      2.4881                 1.7061                 1.9823
 Frc consts  --      1.0920                 0.8450                 1.0563
 IR Inten    --      2.8478                 7.4326                13.5455

                     22                     23                     24
                      A                      A                      A
 Frequencies --   1020.0361              1052.5874              1054.4101
 Red. masses --      1.7262                 1.4032                 1.3993
 Frc consts  --      1.0582                 0.9160                 0.9166
 IR Inten    --      2.7371                 1.0431                 0.5013

                     25                     26                     27
                      A                      A                      A
 Frequencies --   1110.0737              1156.0630              1171.3687
 Red. masses --      2.6062                 1.8572                 3.3406
 Frc consts  --      1.8922                 1.4624                 2.7006
 IR Inten    --     45.2503                 8.2557                 0.1375

                     28                     29                     30
                      A                      A                      A
 Frequencies --   1192.9198              1290.6863              1325.3140
 Red. masses --      1.9649                 1.8218                 1.5438
 Frc consts  --      1.6474                 1.7881                 1.5977
 IR Inten    --     38.0293                 6.0266                 9.5801

                     31                     32                     33
                      A                      A                      A
 Frequencies --   1384.0720              1401.3327              1415.1288
 Red. masses --      1.1897                 1.2370                 1.2509
 Frc consts  --      1.3428                 1.4312                 1.4759
 IR Inten    --     58.1253                10.2392                 5.9775

                     34                     35                     36
                      A                      A                      A
 Frequencies --   1432.7447              1459.9084              1478.3051
 Red. masses --      1.3624                 1.0928                 1.0396
 Frc consts  --      1.6478                 1.3723                 1.3385
 IR Inten    --     38.3715                 3.1300                 5.5900

                     37                     38                     39
                      A                      A                      A
 Frequencies --   1478.5152              1489.0999              1494.4399
 Red. masses --      1.0397                 1.0992                 1.0558
 Frc consts  --      1.3390                 1.4360                 1.3893
 IR Inten    --      5.5683                 9.0088                 1.5099

                     40                     41                     42
                      A                      A                      A
 Frequencies --   1820.2373              2374.7571              2922.4324
 Red. masses --     10.5353                11.8216                 1.0858
 Frc consts  --     20.5661                39.2793                 5.4639
 IR Inten    --    121.7881                 3.2734                69.3360

                     43                     44                     45
                      A                      A                      A
 Frequencies --   3019.5961              3027.8462              3040.3863
 Red. masses --      1.0594                 1.0348                 1.0349
 Frc consts  --      5.6915                 5.5894                 5.6365
 IR Inten    --     22.2866                30.9014                19.8091

                     46                     47                     48
                      A                      A                      A
 Frequencies --   3059.7471              3088.4180              3089.9765
 Red. masses --      1.1001                 1.1002                 1.1001
 Frc consts  --      6.0684                 6.1832                 6.1887
 IR Inten    --      7.7847                10.2404                 8.9481

                     49                     50                     51
                      A                      A                      A
 Frequencies --   3114.9327              3125.5729              3694.2777
 Red. masses --      1.1014                 1.1027                 1.0648
 Frc consts  --      6.2963                 6.3467                 8.5617
 IR Inten    --     17.2354                14.1706                65.9183

 - Thermochemistry -
 -------------------
 Temperature   298.150 Kelvin.  Pressure   1.00000 Atm.
 Atom     1 has atomic number  6 and mass  12.00000

 Molecular mass:   126.06808 amu.
 Principal axes and moments of inertia in atomic units:
                           1         2         3
     Eigenvalues --   674.155721867.859972156.67017
           X            0.99944  -0.03136  -0.01198
           Y            0.03169   0.99909   0.02860
           Z            0.01107  -0.02896   0.99952
 This molecule is an asymmetric top.
 Rotational symmetry number  1.
 Warning -- assumption of classical behavior for rotation
           may cause significant error
 Rotational temperatures (Kelvin)      0.12848     0.04637     0.04016
 Rotational constants (GHZ):           2.67704     0.96621     0.83682
 Zero-point vibrational energy     405231.5 (Joules/Mol)
                                   96.85265 (Kcal/Mol)
 Warning -- explicit consideration of  15 degrees of freedom as
           vibrations may cause significant error
 Vibrational temperatures:     37.32    77.48    93.04   166.44   298.54
          (Kelvin)            309.44   347.97   420.34   445.37   473.69
                              538.17   550.96   559.55   633.19   782.46
                              924.51  1118.99  1190.81  1241.80  1319.17
                             1368.28  1467.60  1514.44  1517.06  1597.15
                             1663.31  1685.34  1716.34  1857.01  1906.83
                             1991.37  2016.20  2036.05  2061.40  2100.48
                             2126.95  2127.25  2142.48  2150.16  2618.91
                             3416.74  4204.72  4344.52  4356.39  4374.43
                             4402.29  4443.54  4445.78  4481.69  4497.00
                             5315.23

 Zero-point correction=                           0.154345 (Hartree/Particle)
 Thermal correction to Energy=                    0.165359
 Thermal correction to Enthalpy=                  0.166304
 Thermal correction to Gibbs Free Energy=         0.116741
 Sum of electronic and zero-point Energies=           -423.018994
 Sum of electronic and thermal Energies=              -423.007979
 Sum of electronic and thermal Enthalpies=            -423.007035
 Sum of electronic and thermal Free Energies=         -423.056598

                     E (Thermal)             CV                S
                      KCal/Mol        Cal/Mol-Kelvin    Cal/Mol-Kelvin
 Total                  103.765             38.049            104.313
 Electronic               0.000              0.000              0.000
 Translational            0.889              2.981             40.409
 Rotational               0.889              2.981             29.386
 Vibrational            101.987             32.087             34.519
 Vibration     1          0.593              1.985              6.118
 Vibration     2          0.596              1.976              4.671
 Vibration     3          0.597              1.971              4.310
 Vibration     4          0.608              1.936              3.171
 Vibration     5          0.641              1.829              2.066
 Vibration     6          0.645              1.818              2.000
 Vibration     7          0.658              1.776              1.789
 Vibration     8          0.688              1.688              1.461
 Vibration     9          0.699              1.656              1.365
 Vibration    10          0.712              1.617              1.264
 Vibration    11          0.745              1.525              1.063
 Vibration    12          0.752              1.507              1.028
 Vibration    13          0.757              1.494              1.004
 Vibration    14          0.800              1.383              0.826
 Vibration    15          0.899              1.153              0.557

 Normal termination of Gaussian 09 at Mon Jan 27 14:50:12 2020.
