 Gaussian 09, Revision D.01,
 Gaussian 09:  ES64L-G09RevD.01 24-Apr-2013

 -----------------------------
 # b3lyp 6-31G(2df,p) opt Freq
 -----------------------------

 -----
 titel
 -----
 Symbolic Z-matrix:
 Charge =  0 Multiplicity = 1

 SCF Done:  E(RB3LYP) =  -423.154389412     A.U. after   15 cycles
 Optimization completed.
    -- Stationary point found.
 Normal termination of Gaussian 09 at Mon Jan 27 15:37:08 2020.

 ----------------------------------------------------------------------
 #N Geom=AllCheck Guess=TCheck SCRF=Check GenChk RB3LYP/6-31G(2df,p) Fr
 eq
 ----------------------------------------------------------------------

 Structure from the checkpoint file:  "/scratch/puck/g09_b5e040b7-ced4-495e-b666-52a2844a5531/Gau-164775.chk"
 -----
 titel
 -----
 Charge =  0 Multiplicity = 1

                         Standard orientation:
 ---------------------------------------------------------------------
 Center     Atomic      Atomic             Coordinates (Angstroms)
 Number     Number       Type             X           Y           Z
 ---------------------------------------------------------------------
      1          6           0        0.435307    1.966112    0.148564
      2          6           0        0.593421    0.519050   -0.347521
      3          6           0        1.940923   -0.011428    0.119690
      4          8           0        2.840394   -0.322318   -0.619457
      5          6           0       -0.556709   -0.407840    0.147108
      6          6           0       -0.367556   -1.848030   -0.365944
      7          8           0       -0.489497   -0.377655    1.577543
      8          6           0       -1.857767    0.103269   -0.312315
      9          6           0       -2.939729    0.482567   -0.674931
     10          1           0        0.459061    2.006636    1.240372
     11          1           0        1.239459    2.594925   -0.244007
     12          1           0       -0.519659    2.378567   -0.186226
     13          1           0        0.599243    0.491733   -1.440902
     14          1           0        2.054174   -0.066758    1.223444
     15          1           0       -1.185745   -2.482956   -0.013331
     16          1           0       -0.362427   -1.876801   -1.458887
     17          1           0        0.576870   -2.256945    0.002197
     18          1           0       -1.263092   -0.838042    1.919806
     19          1           0       -3.892399    0.827223   -0.995054
 ---------------------------------------------------------------------

 SCF Done:  E(RB3LYP) =  -423.154389412     A.U. after    1 cycles

 The electronic state is 1-A.
 Alpha  occ. eigenvalues --  -19.15450 -19.13690 -10.27723 -10.26581 -10.20219
 Alpha  occ. eigenvalues --  -10.19268 -10.18963 -10.18931 -10.18232  -1.04446
 Alpha  occ. eigenvalues --   -1.03834  -0.82340  -0.76466  -0.73585  -0.65878
 Alpha  occ. eigenvalues --   -0.64198  -0.57065  -0.55813  -0.51471  -0.47978
 Alpha  occ. eigenvalues --   -0.46102  -0.44363  -0.43546  -0.41823  -0.40363
 Alpha  occ. eigenvalues --   -0.39168  -0.37785  -0.36830  -0.35661  -0.34409
 Alpha  occ. eigenvalues --   -0.30330  -0.28226  -0.27773  -0.24463
 Alpha virt. eigenvalues --   -0.02299   0.02818   0.04441   0.07421   0.11613
 Alpha virt. eigenvalues --    0.12073   0.12787   0.13646   0.15212   0.15567
 Alpha virt. eigenvalues --    0.16972   0.17401   0.19228   0.20498   0.21676

 Mulliken charges:
               1
     1  C   -0.424941
     2  C   -0.056197
     3  C    0.141924
     4  O   -0.257436
     5  C    0.130601
     6  C   -0.422711
     7  O   -0.450744
     8  C    0.319640
     9  C   -0.461241
    10  H    0.139943
    11  H    0.125015
    12  H    0.137160
    13  H    0.100466
    14  H    0.097153
    15  H    0.117638
    16  H    0.135907
    17  H    0.137761
    18  H    0.287482
    19  H    0.202582
 Sum of Mulliken charges =   0.00000

 Dipole moment (field-independent basis, Debye):
    X=             -3.1798    Y=             -0.0552    Z=              0.6173  Tot=              3.2396
 Quadrupole moment (field-independent basis, Debye-Ang):
   XX=            -56.4480   YY=            -50.9603   ZZ=            -53.4793
   XY=              2.1542   XZ=              2.8261   YZ=             -2.1947

  Exact polarizability:  96.970  -6.554  70.918   4.180  -1.382  66.392
 Approx polarizability: 144.151 -15.517  96.917   6.035  -2.990 106.164

                      1                      2                      3
                      A                      A                      A
 Frequencies --     26.3467                64.1042               138.2961
 Red. masses --      4.1739                 4.5653                 3.7811
 Frc consts  --      0.0017                 0.0111                 0.0426
 IR Inten    --      6.2932                 2.3184                 0.2011

                      4                      5                      6
                      A                      A                      A
 Frequencies --    185.0396               200.2788               233.2199
 Red. masses --      2.6441                 1.0590                 1.6406
 Frc consts  --      0.0533                 0.0250                 0.0526
 IR Inten    --      1.6153                 0.4512                 0.9648

                      7                      8                      9
                      A                      A                      A
 Frequencies --    244.9017               252.6931               275.0565
 Red. masses --      1.8381                 1.5071                 1.5531
 Frc consts  --      0.0650                 0.0567                 0.0692
 IR Inten    --     18.6136                21.8400                54.4485

                     10                     11                     12
                      A                      A                      A
 Frequencies --    318.5140               369.8811               405.1137
 Red. masses --      2.4533                 3.0879                 4.2424
 Frc consts  --      0.1466                 0.2489                 0.4102
 IR Inten    --      9.4513                 0.7492                 9.0822

                     13                     14                     15
                      A                      A                      A
 Frequencies --    451.7719               469.7016               574.0752
 Red. masses --      4.0459                 5.0606                 5.8846
 Frc consts  --      0.4865                 0.6578                 1.1426
 IR Inten    --      9.5611                 3.0026                12.0484

                     16                     17                     18
                      A                      A                      A
 Frequencies --    616.9224               636.0169               669.9233
 Red. masses --      4.0028                 1.2268                 1.2544
 Frc consts  --      0.8976                 0.2924                 0.3317
 IR Inten    --      3.5358                44.8271                34.9497

                     19                     20                     21
                      A                      A                      A
 Frequencies --    743.8730               876.7809               918.3885
 Red. masses --      3.3821                 1.9394                 1.7925
 Frc consts  --      1.1026                 0.8784                 0.8907
 IR Inten    --      2.8434                15.7777                30.6229

                     22                     23                     24
                      A                      A                      A
 Frequencies --    935.5728               959.0687              1031.7443
 Red. masses --      2.1192                 1.9661                 1.7948
 Frc consts  --      1.0929                 1.0655                 1.1257
 IR Inten    --     23.7671                 0.6977                37.8928

                     25                     26                     27
                      A                      A                      A
 Frequencies --   1071.9039              1107.3274              1156.4837
 Red. masses --      2.5671                 1.9639                 2.1966
 Frc consts  --      1.7378                 1.4188                 1.7310
 IR Inten    --      6.6401                12.2098                 1.6259

                     28                     29                     30
                      A                      A                      A
 Frequencies --   1168.5406              1193.1445              1285.4277
 Red. masses --      2.4781                 2.5207                 1.5068
 Frc consts  --      1.9937                 2.1143                 1.4669
 IR Inten    --     61.5528                47.6561                 1.9198

                     31                     32                     33
                      A                      A                      A
 Frequencies --   1329.0337              1365.9199              1400.6114
 Red. masses --      1.3488                 1.5543                 1.2130
 Frc consts  --      1.4037                 1.7085                 1.4019
 IR Inten    --     13.0062                57.4577                10.6144

                     34                     35                     36
                      A                      A                      A
 Frequencies --   1409.2633              1422.7332              1482.5003
 Red. masses --      1.2203                 1.1966                 1.0582
 Frc consts  --      1.4279                 1.4271                 1.3702
 IR Inten    --      4.5466                 4.6890                 4.5101

                     37                     38                     39
                      A                      A                      A
 Frequencies --   1489.9750              1493.7812              1503.3030
 Red. masses --      1.0530                 1.0448                 1.0525
 Frc consts  --      1.3773                 1.3736                 1.4014
 IR Inten    --      0.2542                 6.8739                 4.4320

                     40                     41                     42
                      A                      A                      A
 Frequencies --   1825.0871              2226.9244              2908.5476
 Red. masses --     10.0431                 5.9008                 1.0833
 Frc consts  --     19.7099                17.2415                 5.3993
 IR Inten    --    173.0501                 1.5690                68.6068

                     43                     44                     45
                      A                      A                      A
 Frequencies --   3043.7826              3049.4697              3078.3043
 Red. masses --      1.0345                 1.0344                 1.0849
 Frc consts  --      5.6469                 5.6675                 6.0570
 IR Inten    --     10.1085                16.3528                 7.0801

                     46                     47                     48
                      A                      A                      A
 Frequencies --   3119.0143              3122.3545              3130.2081
 Red. masses --      1.1020                 1.1018                 1.1028
 Frc consts  --      6.3166                 6.3286                 6.3661
 IR Inten    --     13.7401                18.8468                 9.4166

                     49                     50                     51
                      A                      A                      A
 Frequencies --   3132.9013              3497.6982              3816.0307
 Red. masses --      1.1015                 1.1623                 1.0664
 Frc consts  --      6.3701                 8.3778                 9.1495
 IR Inten    --     15.7654                67.1153                26.6730

 - Thermochemistry -
 -------------------
 Temperature   298.150 Kelvin.  Pressure   1.00000 Atm.
 Atom     1 has atomic number  6 and mass  12.00000

 Molecular mass:   126.06808 amu.
 Principal axes and moments of inertia in atomic units:
                           1         2         3
     Eigenvalues --   717.387541531.547181760.64280
           X            0.99981   0.01367   0.01373
           Y           -0.01388   0.99978   0.01544
           Z           -0.01352  -0.01563   0.99979
 This molecule is an asymmetric top.
 Rotational symmetry number  1.
 Warning -- assumption of classical behavior for rotation
           may cause significant error
 Rotational temperatures (Kelvin)      0.12074     0.05655     0.04919
 Rotational constants (GHZ):           2.51571     1.17838     1.02505
 Zero-point vibrational energy     403306.3 (Joules/Mol)
                                   96.39253 (Kcal/Mol)
 Warning -- explicit consideration of  16 degrees of freedom as
           vibrations may cause significant error
 Vibrational temperatures:     37.91    92.23   198.98   266.23   288.16
          (Kelvin)            335.55   352.36   363.57   395.74   458.27
                              532.18   582.87   650.00   675.79   825.97
                              887.61   915.09   963.87  1070.27  1261.49
                             1321.35  1346.08  1379.88  1484.45  1542.23
                             1593.20  1663.92  1681.27  1716.67  1849.44
                             1912.18  1965.25  2015.16  2027.61  2046.99
                             2132.98  2143.74  2149.22  2162.92  2625.89
                             3204.04  4184.75  4379.32  4387.50  4428.99
                             4487.56  4492.37  4503.67  4507.54  5032.40
                             5490.41

 Zero-point correction=                           0.153611 (Hartree/Particle)
 Thermal correction to Energy=                    0.164537
 Thermal correction to Enthalpy=                  0.165481
 Thermal correction to Gibbs Free Energy=         0.117098
 Sum of electronic and zero-point Energies=           -423.000778
 Sum of electronic and thermal Energies=              -422.989853
 Sum of electronic and thermal Enthalpies=            -422.988908
 Sum of electronic and thermal Free Energies=         -423.037291

                     E (Thermal)             CV                S
                      KCal/Mol        Cal/Mol-Kelvin    Cal/Mol-Kelvin
 Total                  103.248             39.083            101.829
 Electronic               0.000              0.000              0.000
 Translational            0.889              2.981             40.409
 Rotational               0.889              2.981             29.049
 Vibrational            101.471             33.121             32.372
 Vibration     1          0.593              1.985              6.087
 Vibration     2          0.597              1.971              4.327
 Vibration     3          0.614              1.915              2.827
 Vibration     4          0.631              1.860              2.277
 Vibration     5          0.638              1.839              2.131
 Vibration     6          0.654              1.790              1.854
 Vibration     7          0.660              1.771              1.767
 Vibration     8          0.664              1.758              1.712
 Vibration     9          0.677              1.719              1.564
 Vibration    10          0.705              1.638              1.318
 Vibration    11          0.742              1.534              1.080
 Vibration    12          0.770              1.459              0.944
 Vibration    13          0.810              1.357              0.790
 Vibration    14          0.827              1.317              0.738
 Vibration    15          0.930              1.087              0.496
 Vibration    16          0.977              0.996              0.421

 Optimization completed.
    -- Stationary point found.
 Normal termination of Gaussian 09 at Mon Jan 27 16:21:09 2020.
