 Gaussian 09, Revision D.01,
 Gaussian 09:  ES64L-G09RevD.01 24-Apr-2013

 -----------------------------
 # b3lyp 6-31G(2df,p) opt Freq
 -----------------------------

 -----
 titel
 -----
 Symbolic Z-matrix:
 Charge =  0 Multiplicity = 1

 SCF Done:  E(RB3LYP) =  -423.189961862     A.U. after   14 cycles
 Optimization completed.
    -- Stationary point found.
 Normal termination of Gaussian 09 at Mon Jan 27 22:04:20 2020.

 ----------------------------------------------------------------------
 #N Geom=AllCheck Guess=TCheck SCRF=Check GenChk RB3LYP/6-31G(2df,p) Fr
 eq
 ----------------------------------------------------------------------

 Structure from the checkpoint file:  "/scratch/puck/g09_ed7bb0c2-35a9-4dfd-89e1-aa0b4ab525c9/Gau-53237.chk"
 -----
 titel
 -----
 Charge =  0 Multiplicity = 1

                         Standard orientation:
 ---------------------------------------------------------------------
 Center     Atomic      Atomic             Coordinates (Angstroms)
 Number     Number       Type             X           Y           Z
 ---------------------------------------------------------------------
      1          6           0       -1.811245    1.679361   -0.139742
      2          6           0       -0.747168    0.679870    0.165509
      3          6           0       -0.759122   -0.660656    0.144615
      4          6           0       -1.832556   -1.638198   -0.190434
      5          6           0        0.703416   -1.043306    0.379268
      6          8           0        1.411282   -0.767435   -0.858053
      7          6           0        1.489176    0.662502   -0.882434
      8          6           0        0.715022    1.042245    0.420608
      9          8           0        1.164499   -0.041842    1.254243
     10          1           0       -1.951410    2.380561    0.692713
     11          1           0       -1.553156    2.285236   -1.018384
     12          1           0       -2.772589    1.199392   -0.341349
     13          1           0       -1.980897   -2.365126    0.618039
     14          1           0       -2.790294   -1.145732   -0.379388
     15          1           0       -1.567520   -2.212816   -1.087120
     16          1           0        0.954344   -2.046430    0.720684
     17          1           0        2.537453    0.975209   -0.829048
     18          1           0        1.028134    1.062028   -1.791874
     19          1           0        0.944553    2.010987    0.861866
 ---------------------------------------------------------------------

 SCF Done:  E(RB3LYP) =  -423.189961862     A.U. after    1 cycles

 The electronic state is 1-A.
 Alpha  occ. eigenvalues --  -19.14289 -19.13448 -10.27237 -10.23868 -10.22690
 Alpha  occ. eigenvalues --  -10.19056 -10.18715 -10.18635 -10.18330  -1.09056
 Alpha  occ. eigenvalues --   -0.98202  -0.81557  -0.76609  -0.71984  -0.68899
 Alpha  occ. eigenvalues --   -0.61457  -0.59724  -0.51876  -0.51660  -0.49236
 Alpha  occ. eigenvalues --   -0.45125  -0.43215  -0.42372  -0.41395  -0.40899
 Alpha  occ. eigenvalues --   -0.40342  -0.39020  -0.37551  -0.36419  -0.33746
 Alpha  occ. eigenvalues --   -0.32234  -0.27474  -0.25429  -0.22676
 Alpha virt. eigenvalues --    0.01531   0.08531   0.11081   0.12307   0.12618
 Alpha virt. eigenvalues --    0.13144   0.13599   0.14764   0.16373   0.17800
 Alpha virt. eigenvalues --    0.18349   0.18744   0.19274   0.20955   0.22149

 Mulliken charges:
               1
     1  C   -0.512472
     2  C    0.216639
     3  C    0.242209
     4  C   -0.515023
     5  C    0.070719
     6  O   -0.277708
     7  C   -0.082556
     8  C   -0.079045
     9  O   -0.228462
    10  H    0.130560
    11  H    0.129621
    12  H    0.129305
    13  H    0.129840
    14  H    0.125695
    15  H    0.139721
    16  H    0.086576
    17  H    0.107406
    18  H    0.100418
    19  H    0.086558
 Sum of Mulliken charges =   0.00000

 Dipole moment (field-independent basis, Debye):
    X=             -1.7208    Y=              1.1010    Z=             -0.4832  Tot=              2.0992
 Quadrupole moment (field-independent basis, Debye-Ang):
   XX=            -53.6962   YY=            -48.0156   ZZ=            -56.4730
   XY=              2.3593   XZ=             -0.0319   YZ=             -1.8901

  Exact polarizability:  79.320   2.425  89.840  -0.460  -1.976  59.878
 Approx polarizability: 105.815   1.332 140.667  -0.435  -1.375  94.770

                      1                      2                      3
                      A                      A                      A
 Frequencies --    147.9686               159.2867               172.0552
 Red. masses --      1.0373                 2.9114                 3.0223
 Frc consts  --      0.0134                 0.0435                 0.0527
 IR Inten    --      0.4360                 0.9025                 0.5443

                      4                      5                      6
                      A                      A                      A
 Frequencies --    175.3774               244.9220               280.1734
 Red. masses --      1.0380                 2.4895                 2.6262
 Frc consts  --      0.0188                 0.0880                 0.1215
 IR Inten    --      0.0931                 0.0294                 3.4511

                      7                      8                      9
                      A                      A                      A
 Frequencies --    363.5429               482.4973               578.8493
 Red. masses --      2.7241                 4.4913                 3.9055
 Frc consts  --      0.2121                 0.6160                 0.7710
 IR Inten    --      0.5844                 4.7128                 1.3847

                     10                     11                     12
                      A                      A                      A
 Frequencies --    599.2071               609.2638               695.9969
 Red. masses --      6.4340                 3.8222                 4.5189
 Frc consts  --      1.3611                 0.8359                 1.2897
 IR Inten    --      5.4765                 2.8757                 7.6692

                     13                     14                     15
                      A                      A                      A
 Frequencies --    801.6431               831.7330               859.1947
 Red. masses --      5.1968                 5.6970                 2.7059
 Frc consts  --      1.9677                 2.3220                 1.1769
 IR Inten    --      1.5887                81.8677                26.0269

                     16                     17                     18
                      A                      A                      A
 Frequencies --    882.4665               908.7153               951.9488
 Red. masses --      3.6912                 2.3385                 1.8766
 Frc consts  --      1.6936                 1.1377                 1.0020
 IR Inten    --     30.8120                13.4963                13.6045

                     19                     20                     21
                      A                      A                      A
 Frequencies --    980.8380              1008.0838              1028.1756
 Red. masses --      4.9382                 2.8855                 1.5986
 Frc consts  --      2.7991                 1.7277                 0.9957
 IR Inten    --     38.6150                17.3141                 3.1673

                     22                     23                     24
                      A                      A                      A
 Frequencies --   1054.6768              1070.4969              1078.5129
 Red. masses --      1.5067                 1.6462                 3.9063
 Frc consts  --      0.9875                 1.1115                 2.6771
 IR Inten    --      3.0621                 0.4152                38.8155

                     25                     26                     27
                      A                      A                      A
 Frequencies --   1155.6924              1190.3658              1199.4545
 Red. masses --      2.4257                 1.2643                 2.5016
 Frc consts  --      1.9088                 1.0555                 2.1205
 IR Inten    --      2.0115                 1.1477                 4.1755

                     28                     29                     30
                      A                      A                      A
 Frequencies --   1225.0070              1243.3070              1281.1748
 Red. masses --      1.4929                 1.4258                 1.2788
 Frc consts  --      1.3199                 1.2986                 1.2367
 IR Inten    --      2.6733                 0.6230                 4.2141

                     31                     32                     33
                      A                      A                      A
 Frequencies --   1333.6389              1345.3003              1355.4165
 Red. masses --      1.5896                 1.9917                 1.4989
 Frc consts  --      1.6658                 2.1238                 1.6224
 IR Inten    --     17.7625                 7.3390                 1.4638

                     34                     35                     36
                      A                      A                      A
 Frequencies --   1411.3888              1419.5679              1478.6791
 Red. masses --      1.4578                 1.2385                 1.0438
 Frc consts  --      1.7110                 1.4704                 1.3447
 IR Inten    --      0.0436                 2.2623                 0.1053

                     37                     38                     39
                      A                      A                      A
 Frequencies --   1479.9968              1486.5409              1490.9461
 Red. masses --      1.0451                 1.0457                 1.0645
 Frc consts  --      1.3488                 1.3615                 1.3941
 IR Inten    --     10.7227                 4.9432                 5.5794

                     40                     41                     42
                      A                      A                      A
 Frequencies --   1513.6895              1733.5952              3014.5928
 Red. masses --      1.0896                 8.0078                 1.0389
 Frc consts  --      1.4709                14.1795                 5.5627
 IR Inten    --      0.6425                 3.1160                33.8022

                     43                     44                     45
                      A                      A                      A
 Frequencies --   3018.1328              3033.8990              3058.4174
 Red. masses --      1.0381                 1.0549                 1.0984
 Frc consts  --      5.5714                 5.7206                 6.0534
 IR Inten    --     24.1004                51.6169                18.5559

                     46                     47                     48
                      A                      A                      A
 Frequencies --   3064.4676              3081.7393              3108.1434
 Red. masses --      1.0989                 1.1114                 1.0982
 Frc consts  --      6.0801                 6.2189                 6.2510
 IR Inten    --     15.9314                35.2023                 9.5971

                     49                     50                     51
                      A                      A                      A
 Frequencies --   3111.0114              3136.4016              3143.6797
 Red. masses --      1.0972                 1.0894                 1.0941
 Frc consts  --      6.2566                 6.3142                 6.3705
 IR Inten    --     28.0846                42.9982                19.8014

 - Thermochemistry -
 -------------------
 Temperature   298.150 Kelvin.  Pressure   1.00000 Atm.
 Atom     1 has atomic number  6 and mass  12.00000

 Molecular mass:   126.06808 amu.
 Principal axes and moments of inertia in atomic units:
                           1         2         3
     Eigenvalues --   757.322231009.796421339.69247
           X            0.99897   0.04532   0.00207
           Y           -0.04526   0.99870  -0.02355
           Z           -0.00313   0.02343   0.99972
 This molecule is an asymmetric top.
 Rotational symmetry number  1.
 Warning -- assumption of classical behavior for rotation
           may cause significant error
 Rotational temperatures (Kelvin)      0.11437     0.08577     0.06465
 Rotational constants (GHZ):           2.38306     1.78723     1.34713
 Zero-point vibrational energy     419170.7 (Joules/Mol)
                                  100.18421 (Kcal/Mol)
 Warning -- explicit consideration of  11 degrees of freedom as
           vibrations may cause significant error
 Vibrational temperatures:    212.89   229.18   247.55   252.33   352.39
          (Kelvin)            403.11   523.06   694.21   832.83   862.12
                              876.59  1001.38  1153.38  1196.68  1236.19
                             1269.67  1307.44  1369.64  1411.21  1450.41
                             1479.31  1517.44  1540.20  1551.74  1662.78
                             1712.67  1725.75  1762.51  1788.84  1843.32
                             1918.81  1935.58  1950.14  2030.67  2042.44
                             2127.49  2129.38  2138.80  2145.14  2177.86
                             2494.25  4337.32  4342.41  4365.10  4400.37
                             4409.08  4433.93  4471.92  4476.05  4512.58
                             4523.05

 Zero-point correction=                           0.159654 (Hartree/Particle)
 Thermal correction to Energy=                    0.167815
 Thermal correction to Enthalpy=                  0.168759
 Thermal correction to Gibbs Free Energy=         0.127181
 Sum of electronic and zero-point Energies=           -423.030308
 Sum of electronic and thermal Energies=              -423.022147
 Sum of electronic and thermal Enthalpies=            -423.021203
 Sum of electronic and thermal Free Energies=         -423.062781

                     E (Thermal)             CV                S
                      KCal/Mol        Cal/Mol-Kelvin    Cal/Mol-Kelvin
 Total                  105.305             31.260             87.508
 Electronic               0.000              0.000              0.000
 Translational            0.889              2.981             40.409
 Rotational               0.889              2.981             28.418
 Vibrational            103.528             25.299             18.682
 Vibration     1          0.617              1.905              2.698
 Vibration     2          0.621              1.892              2.558
 Vibration     3          0.626              1.877              2.413
 Vibration     4          0.627              1.873              2.377
 Vibration     5          0.660              1.771              1.767
 Vibration     6          0.680              1.710              1.533
 Vibration     7          0.737              1.547              1.107
 Vibration     8          0.839              1.289              0.703
 Vibration     9          0.935              1.077              0.488
 Vibration    10          0.957              1.033              0.451
 Vibration    11          0.968              1.012              0.434

 Normal termination of Gaussian 09 at Mon Jan 27 22:54:42 2020.
