 Gaussian 09, Revision D.01,
 Gaussian 09:  ES64L-G09RevD.01 24-Apr-2013

 -----------------------------
 # b3lyp 6-31G(2df,p) opt Freq
 -----------------------------

 -----
 titel
 -----
 Symbolic Z-matrix:
 Charge =  0 Multiplicity = 1

 SCF Done:  E(RB3LYP) =  -423.126177650     A.U. after   14 cycles
 Optimization completed.
    -- Stationary point found.
 Normal termination of Gaussian 09 at Tue Jan 28 08:13:57 2020.

 ----------------------------------------------------------------------
 #N Geom=AllCheck Guess=TCheck SCRF=Check GenChk RB3LYP/6-31G(2df,p) Fr
 eq
 ----------------------------------------------------------------------

 Structure from the checkpoint file:  "/scratch/puck/g09_cccedf37-fd6b-460e-8f47-237e284bc666/Gau-92070.chk"
 -----
 titel
 -----
 Charge =  0 Multiplicity = 1

                         Standard orientation:
 ---------------------------------------------------------------------
 Center     Atomic      Atomic             Coordinates (Angstroms)
 Number     Number       Type             X           Y           Z
 ---------------------------------------------------------------------
      1          6           0        2.424405   -1.241878   -0.448424
      2          6           0        1.783574   -0.347629    0.630794
      3          6           0        0.965745    0.765845    0.002512
      4          8           0        1.396864    1.892794   -0.109969
      5          6           0       -0.427051    0.478420   -0.547928
      6          6           0       -1.151334   -0.888735   -0.397168
      7          6           0       -2.514732   -0.173748   -0.554118
      8          6           0       -1.630602    0.617608    0.435786
      9          8           0       -1.245347   -0.666693    1.069166
     10          1           0        3.087338   -0.658871   -1.094794
     11          1           0        3.016091   -2.034128    0.018412
     12          1           0        1.671632   -1.720672   -1.082839
     13          1           0        1.138017   -0.941811    1.282070
     14          1           0        2.565449    0.124104    1.232018
     15          1           0       -0.552949    1.000783   -1.499843
     16          1           0       -0.847281   -1.879620   -0.734184
     17          1           0       -2.755843    0.283669   -1.516151
     18          1           0       -3.356733   -0.694199   -0.097351
     19          1           0       -1.877888    1.452644    1.090368
 ---------------------------------------------------------------------

 SCF Done:  E(RB3LYP) =  -423.126177650     A.U. after    1 cycles

 The electronic state is 1-A.
 Alpha  occ. eigenvalues --  -19.14462 -19.12540 -10.26619 -10.26438 -10.26268
 Alpha  occ. eigenvalues --  -10.20853 -10.20519 -10.18756 -10.18393  -1.06892
 Alpha  occ. eigenvalues --   -1.03538  -0.80860  -0.77859  -0.70799  -0.66366
 Alpha  occ. eigenvalues --   -0.64386  -0.57925  -0.53477  -0.51282  -0.47262
 Alpha  occ. eigenvalues --   -0.46779  -0.44567  -0.43001  -0.41245  -0.40117
 Alpha  occ. eigenvalues --   -0.38582  -0.37976  -0.35675  -0.35261  -0.34061
 Alpha  occ. eigenvalues --   -0.33264  -0.32457  -0.25545  -0.23617
 Alpha virt. eigenvalues --   -0.01882   0.07887   0.09338   0.11478   0.11828
 Alpha virt. eigenvalues --    0.12213   0.12600   0.13518   0.14617   0.15959
 Alpha virt. eigenvalues --    0.16561   0.17287   0.18193   0.18651   0.20397

 Mulliken charges:
               1
     1  C   -0.390500
     2  C   -0.278001
     3  C    0.352702
     4  O   -0.315470
     5  C   -0.071321
     6  C    0.020922
     7  C   -0.224868
     8  C    0.054182
     9  O   -0.311063
    10  H    0.133262
    11  H    0.126434
    12  H    0.118394
    13  H    0.135807
    14  H    0.115386
    15  H    0.099205
    16  H    0.102581
    17  H    0.104863
    18  H    0.115867
    19  H    0.111617
 Sum of Mulliken charges =   0.00000

 Dipole moment (field-independent basis, Debye):
    X=             -1.3721    Y=             -1.7143    Z=             -1.3229  Tot=              2.5635
 Quadrupole moment (field-independent basis, Debye-Ang):
   XX=            -51.2671   YY=            -57.4135   ZZ=            -53.4817
   XY=             -6.0623   XZ=              2.3448   YZ=              2.4097

  Exact polarizability:  88.151  -0.082  75.320   2.361   0.544  64.420
 Approx polarizability: 112.092   4.652 121.305   1.124  -2.079 103.445

                      1                      2                      3
                      A                      A                      A
 Frequencies --     18.1553                74.1167               153.3637
 Red. masses --      4.4403                 2.7086                 3.3454
 Frc consts  --      0.0009                 0.0088                 0.0464
 IR Inten    --      6.0664                 0.1998                 1.4460

                      4                      5                      6
                      A                      A                      A
 Frequencies --    188.9744               220.5948               249.8935
 Red. masses --      1.7349                 1.7966                 3.2413
 Frc consts  --      0.0365                 0.0515                 0.1193
 IR Inten    --      2.2144                 4.4246                 0.3587

                      7                      8                      9
                      A                      A                      A
 Frequencies --    370.2496               431.3476               548.7582
 Red. masses --      2.7464                 5.4302                 2.6678
 Frc consts  --      0.2218                 0.5953                 0.4733
 IR Inten    --      0.6435                 2.4967                18.1205

                     10                     11                     12
                      A                      A                      A
 Frequencies --    624.3687               688.2149               762.1612
 Red. masses --      3.3393                 3.7198                 4.8028
 Frc consts  --      0.7670                 1.0381                 1.6438
 IR Inten    --      4.8696                 2.8882                14.3112

                     13                     14                     15
                      A                      A                      A
 Frequencies --    778.8608               797.8570               836.1410
 Red. masses --      2.8226                 1.8852                 1.7576
 Frc consts  --      1.0088                 0.7070                 0.7240
 IR Inten    --      3.8272                 0.8174                 2.7850

                     16                     17                     18
                      A                      A                      A
 Frequencies --    878.0077               885.8019               917.7219
 Red. masses --      2.5073                 2.4910                 2.4700
 Frc consts  --      1.1388                 1.1516                 1.2257
 IR Inten    --     18.9624                14.1593                 8.8855

                     19                     20                     21
                      A                      A                      A
 Frequencies --    954.3780               987.8200              1026.8377
 Red. masses --      2.7988                 2.6573                 1.6074
 Frc consts  --      1.5020                 1.5277                 0.9986
 IR Inten    --      7.5695                 3.8518                15.9794

                     22                     23                     24
                      A                      A                      A
 Frequencies --   1036.1503              1056.5140              1096.6653
 Red. masses --      1.1093                 1.6469                 1.6871
 Frc consts  --      0.7017                 1.0831                 1.1955
 IR Inten    --      1.3356                 4.6996                 3.8923

                     25                     26                     27
                      A                      A                      A
 Frequencies --   1115.0457              1127.6866              1140.7599
 Red. masses --      1.5302                 1.4457                 3.4305
 Frc consts  --      1.1209                 1.0832                 2.6303
 IR Inten    --     18.8802                 7.9390                 2.2411

                     28                     29                     30
                      A                      A                      A
 Frequencies --   1187.4184              1206.3566              1230.9226
 Red. masses --      1.3116                 1.4590                 2.0878
 Frc consts  --      1.0896                 1.2510                 1.8638
 IR Inten    --      0.8389                19.1423                38.0230

                     31                     32                     33
                      A                      A                      A
 Frequencies --   1249.0547              1279.3326              1291.6651
 Red. masses --      1.6128                 1.5387                 1.3487
 Frc consts  --      1.4825                 1.4838                 1.3257
 IR Inten    --      4.6284                 2.8239                38.2821

                     34                     35                     36
                      A                      A                      A
 Frequencies --   1330.8660              1356.8634              1405.4734
 Red. masses --      1.5707                 1.7162                 1.2158
 Frc consts  --      1.6391                 1.8617                 1.4150
 IR Inten    --     18.0250                 8.6448                 2.9507

                     37                     38                     39
                      A                      A                      A
 Frequencies --   1484.4689              1488.2153              1497.4806
 Red. masses --      1.0719                 1.1607                 1.0418
 Frc consts  --      1.3918                 1.5147                 1.3764
 IR Inten    --      6.4303                 0.5008                 3.9743

                     40                     41                     42
                      A                      A                      A
 Frequencies --   1507.0028              1792.6510              3040.1331
 Red. masses --      1.0674                11.3524                 1.0346
 Frc consts  --      1.4282                21.4945                 5.6338
 IR Inten    --      7.7893               157.3529                20.0708

                     43                     44                     45
                      A                      A                      A
 Frequencies --   3064.4143              3070.1937              3084.8828
 Red. masses --      1.0583                 1.0585                 1.0812
 Frc consts  --      5.8552                 5.8787                 6.0623
 IR Inten    --      9.1998                26.3462                23.0140

                     46                     47                     48
                      A                      A                      A
 Frequencies --   3102.5645              3115.2652              3120.9346
 Red. masses --      1.1010                 1.1017                 1.0920
 Frc consts  --      6.2440                 6.2994                 6.2669
 IR Inten    --     13.8979                25.5336                49.3831

                     49                     50                     51
                      A                      A                      A
 Frequencies --   3129.4969              3131.7393              3155.9332
 Red. masses --      1.1048                 1.0957                 1.1110
 Frc consts  --      6.3751                 6.3315                 6.5194
 IR Inten    --     21.7795                15.4401                20.5925

 - Thermochemistry -
 -------------------
 Temperature   298.150 Kelvin.  Pressure   1.00000 Atm.
 Atom     1 has atomic number  6 and mass  12.00000

 Molecular mass:   126.06808 amu.
 Principal axes and moments of inertia in atomic units:
                           1         2         3
     Eigenvalues --   615.925761444.188421711.08625
           X            0.99861  -0.05188   0.00953
           Y            0.05153   0.99810   0.03385
           Z           -0.01127  -0.03331   0.99938
 This molecule is an asymmetric top.
 Rotational symmetry number  1.
 Warning -- assumption of classical behavior for rotation
           may cause significant error
 Rotational temperatures (Kelvin)      0.14062     0.05997     0.05062
 Rotational constants (GHZ):           2.93013     1.24966     1.05473
 Zero-point vibrational energy     414444.9 (Joules/Mol)
                                   99.05471 (Kcal/Mol)
 Warning -- explicit consideration of   9 degrees of freedom as
           vibrations may cause significant error
 Vibrational temperatures:     26.12   106.64   220.66   271.89   317.39
          (Kelvin)            359.54   532.71   620.61   789.54   898.33
                              990.19  1096.58  1120.61  1147.94  1203.02
                             1263.26  1274.47  1320.40  1373.14  1421.25
                             1477.39  1490.79  1520.09  1577.85  1604.30
                             1622.49  1641.30  1708.43  1735.68  1771.02
                             1797.11  1840.67  1858.42  1914.82  1952.22
                             2022.16  2135.82  2141.21  2154.54  2168.24
                             2579.22  4374.07  4409.00  4417.32  4438.45
                             4463.89  4482.17  4490.32  4502.64  4505.87
                             4540.68

 Zero-point correction=                           0.157854 (Hartree/Particle)
 Thermal correction to Energy=                    0.166573
 Thermal correction to Enthalpy=                  0.167517
 Thermal correction to Gibbs Free Energy=         0.122788
 Sum of electronic and zero-point Energies=           -422.968324
 Sum of electronic and thermal Energies=              -422.959604
 Sum of electronic and thermal Enthalpies=            -422.958660
 Sum of electronic and thermal Free Energies=         -423.003390

                     E (Thermal)             CV                S
                      KCal/Mol        Cal/Mol-Kelvin    Cal/Mol-Kelvin
 Total                  104.526             31.986             94.142
 Electronic               0.000              0.000              0.000
 Translational            0.889              2.981             40.409
 Rotational               0.889              2.981             28.811
 Vibrational            102.749             26.025             24.922
 Vibration     1          0.593              1.986              6.826
 Vibration     2          0.599              1.966              4.041
 Vibration     3          0.619              1.899              2.630
 Vibration     4          0.633              1.855              2.238
 Vibration     5          0.647              1.810              1.954
 Vibration     6          0.663              1.763              1.731
 Vibration     7          0.742              1.533              1.079
 Vibration     8          0.792              1.402              0.854
 Vibration     9          0.904              1.142              0.547

 Optimization completed.
    -- Stationary point found.
 Normal termination of Gaussian 09 at Tue Jan 28 08:56:24 2020.
