 Gaussian 09, Revision D.01,
 Gaussian 09:  ES64L-G09RevD.01 24-Apr-2013

 -----------------------------
 # b3lyp 6-31G(2df,p) opt Freq
 -----------------------------

 -----
 titel
 -----
 Symbolic Z-matrix:
 Charge =  0 Multiplicity = 1

 SCF Done:  E(RB3LYP) =  -423.115924486     A.U. after   12 cycles
 SCF Done:  E(RB3LYP) =  -423.115924918     A.U. after    6 cycles
 SCF Done:  E(RB3LYP) =  -423.115925147     A.U. after    7 cycles
 SCF Done:  E(RB3LYP) =  -423.115925351     A.U. after    7 cycles
 SCF Done:  E(RB3LYP) =  -423.115925478     A.U. after    6 cycles
 SCF Done:  E(RB3LYP) =  -423.115925727     A.U. after    7 cycles
 SCF Done:  E(RB3LYP) =  -423.115925774     A.U. after    6 cycles
 SCF Done:  E(RB3LYP) =  -423.115925805     A.U. after    6 cycles
 Optimization completed.
    -- Stationary point found.
 Normal termination of Gaussian 09 at Mon Jan 27 23:56:08 2020.

 ----------------------------------------------------------------------
 #N Geom=AllCheck Guess=TCheck SCRF=Check GenChk RB3LYP/6-31G(2df,p) Fr
 eq
 ----------------------------------------------------------------------

 Structure from the checkpoint file:  "/scratch/puck/g09_b18a7c3d-73ab-4d86-b591-ad32a5610fee/Gau-28979.chk"
 -----
 titel
 -----
 Charge =  0 Multiplicity = 1

                         Standard orientation:
 ---------------------------------------------------------------------
 Center     Atomic      Atomic             Coordinates (Angstroms)
 Number     Number       Type             X           Y           Z
 ---------------------------------------------------------------------
      1          8           0       -2.875917    0.009504   -0.427446
      2          6           0       -1.502587    0.257441   -0.315131
      3          6           0       -0.851694    0.055068    1.021864
      4          6           0       -0.579422   -0.918048   -0.156783
      5          6           0        0.917763   -0.516142   -0.139986
      6          8           0        1.834059   -1.568267   -0.081031
      7          6           0        1.403106    0.663555   -1.022340
      8          6           0        1.105484    1.658603    0.149749
      9          6           0        0.637380    0.469183    1.042625
     10          1           0       -3.107832   -0.716230    0.161859
     11          1           0       -1.249858    1.095295   -0.956557
     12          1           0       -1.470073   -0.081660    1.903820
     13          1           0       -0.938930   -1.925986   -0.346055
     14          1           0        1.502132   -2.223996    0.542710
     15          1           0        2.468052    0.566210   -1.242787
     16          1           0        0.865024    0.824405   -1.959395
     17          1           0        2.000265    2.154911    0.530621
     18          1           0        0.352522    2.423915   -0.051234
     19          1           0        1.133376    0.335276    2.004849
 ---------------------------------------------------------------------

 SCF Done:  E(RB3LYP) =  -423.115925805     A.U. after    1 cycles

 The electronic state is 1-A.
 Alpha  occ. eigenvalues --  -19.14595 -19.14321 -10.23989 -10.23616 -10.19372
 Alpha  occ. eigenvalues --  -10.18910 -10.18332 -10.18037 -10.17583  -1.03303
 Alpha  occ. eigenvalues --   -1.02727  -0.89126  -0.79245  -0.67465  -0.66114
 Alpha  occ. eigenvalues --   -0.59967  -0.59471  -0.54243  -0.52241  -0.49992
 Alpha  occ. eigenvalues --   -0.47256  -0.44726  -0.41929  -0.41056  -0.39236
 Alpha  occ. eigenvalues --   -0.37946  -0.36242  -0.35033  -0.33739  -0.32575
 Alpha  occ. eigenvalues --   -0.29308  -0.27441  -0.24403  -0.22763
 Alpha virt. eigenvalues --    0.06317   0.08220   0.08705   0.08966   0.10421
 Alpha virt. eigenvalues --    0.12863   0.14773   0.15829   0.16523   0.17773
 Alpha virt. eigenvalues --    0.18148   0.18667   0.20425   0.22527   0.24766

 Mulliken charges:
               1
     1  O   -0.443078
     2  C    0.147315
     3  C   -0.140517
     4  C   -0.224312
     5  C    0.437779
     6  O   -0.479140
     7  C   -0.277536
     8  C   -0.244432
     9  C   -0.098813
    10  H    0.283187
    11  H    0.106679
    12  H    0.081319
    13  H    0.079332
    14  H    0.277458
    15  H    0.113326
    16  H    0.103204
    17  H    0.103226
    18  H    0.105320
    19  H    0.069683
 Sum of Mulliken charges =   0.00000

 Dipole moment (field-independent basis, Debye):
    X=             -0.2291    Y=             -0.9442    Z=              1.7344  Tot=              1.9880
 Quadrupole moment (field-independent basis, Debye-Ang):
   XX=            -58.1953   YY=            -49.8962   ZZ=            -52.6023
   XY=              5.0518   XZ=             -1.7698   YZ=             -3.1787

  Exact polarizability:  82.100   3.268  73.289  -1.292  -1.278  67.579
 Approx polarizability: 113.315  -0.029 109.228  -0.741  -0.604 105.587

                      1                      2                      3
                      A                      A                      A
 Frequencies --    170.9580               192.5351               196.8674
 Red. masses --      2.6689                 1.1605                 2.6384
 Frc consts  --      0.0460                 0.0253                 0.0602
 IR Inten    --      5.0488                58.6095                 6.1721

                      4                      5                      6
                      A                      A                      A
 Frequencies --    243.0845               292.4749               337.5925
 Red. masses --      2.5901                 2.9031                 1.3167
 Frc consts  --      0.0902                 0.1463                 0.0884
 IR Inten    --      5.5327                 8.7044               103.4947

                      7                      8                      9
                      A                      A                      A
 Frequencies --    349.3231               384.2897               457.7555
 Red. masses --      3.5153                 3.6044                 2.8372
 Frc consts  --      0.2527                 0.3136                 0.3503
 IR Inten    --      3.7883                 3.4998                 3.8522

                     10                     11                     12
                      A                      A                      A
 Frequencies --    496.7125               608.8234               710.8510
 Red. masses --      3.5713                 3.8188                 3.9756
 Frc consts  --      0.5191                 0.8340                 1.1836
 IR Inten    --      0.6855                10.8038                 0.0060

                     13                     14                     15
                      A                      A                      A
 Frequencies --    738.8026               790.2132               827.3847
 Red. masses --      1.2796                 1.8511                 2.3393
 Frc consts  --      0.4115                 0.6810                 0.9435
 IR Inten    --      1.7608                 4.8248                16.3126

                     16                     17                     18
                      A                      A                      A
 Frequencies --    852.4856               898.6815               910.6195
 Red. masses --      2.3431                 2.4728                 2.2945
 Frc consts  --      1.0033                 1.1767                 1.1210
 IR Inten    --      5.5114                23.7287                 6.8276

                     19                     20                     21
                      A                      A                      A
 Frequencies --    934.1692               948.3059               988.0948
 Red. masses --      2.9966                 2.0007                 1.3333
 Frc consts  --      1.5408                 1.0601                 0.7670
 IR Inten    --      0.9633                 5.6604                 4.3765

                     22                     23                     24
                      A                      A                      A
 Frequencies --   1010.7009              1042.6741              1073.7344
 Red. masses --      2.2152                 2.0905                 2.2922
 Frc consts  --      1.3332                 1.3391                 1.5570
 IR Inten    --     18.6236                10.5717                 7.8011

                     25                     26                     27
                      A                      A                      A
 Frequencies --   1097.0760              1104.8486              1115.4226
 Red. masses --      1.5522                 1.5621                 1.6337
 Frc consts  --      1.1007                 1.1235                 1.1976
 IR Inten    --     23.3098                 4.1914                29.9092

                     28                     29                     30
                      A                      A                      A
 Frequencies --   1125.3806              1131.4901              1206.9790
 Red. masses --      1.7824                 2.4125                 1.7422
 Frc consts  --      1.3300                 1.8198                 1.4953
 IR Inten    --     19.7854               104.9225                13.5098

                     31                     32                     33
                      A                      A                      A
 Frequencies --   1217.8655              1241.7044              1254.6781
 Red. masses --      1.3017                 1.5938                 1.4891
 Frc consts  --      1.1375                 1.4479                 1.3811
 IR Inten    --      1.7210                21.4622                 5.9866

                     34                     35                     36
                      A                      A                      A
 Frequencies --   1270.2626              1302.7427              1313.6990
 Red. masses --      1.4701                 1.5913                 2.0529
 Frc consts  --      1.3976                 1.5912                 2.0874
 IR Inten    --      4.7400                21.2650                74.9881

                     37                     38                     39
                      A                      A                      A
 Frequencies --   1349.6107              1373.2421              1452.7712
 Red. masses --      2.0714                 1.7426                 1.6537
 Frc consts  --      2.2230                 1.9362                 2.0564
 IR Inten    --     61.4367                33.6280                70.9432

                     40                     41                     42
                      A                      A                      A
 Frequencies --   1471.0404              1491.8804              3066.4520
 Red. masses --      1.0851                 1.1201                 1.0576
 Frc consts  --      1.3834                 1.4689                 5.8593
 IR Inten    --      1.5210                 7.6417                30.5611

                     43                     44                     45
                      A                      A                      A
 Frequencies --   3071.5225              3100.3990              3113.1919
 Red. masses --      1.0605                 1.0916                 1.1055
 Frc consts  --      5.8951                 6.1825                 6.3128
 IR Inten    --     32.7093                14.8758                 6.9711

                     46                     47                     48
                      A                      A                      A
 Frequencies --   3130.6099              3142.1629              3154.9252
 Red. masses --      1.1069                 1.0886                 1.0960
 Frc consts  --      6.3918                 6.3326                 6.4273
 IR Inten    --     35.0808                19.3217                20.5585

                     49                     50                     51
                      A                      A                      A
 Frequencies --   3163.5453              3794.0259              3810.2067
 Red. masses --      1.0882                 1.0656                 1.0658
 Frc consts  --      6.4164                 9.0373                 9.1162
 IR Inten    --     16.8547                13.0289                19.4989

 - Thermochemistry -
 -------------------
 Temperature   298.150 Kelvin.  Pressure   1.00000 Atm.
 Atom     1 has atomic number  8 and mass  15.99491

 Molecular mass:   126.06808 amu.
 Principal axes and moments of inertia in atomic units:
                           1         2         3
     Eigenvalues --   622.030141307.847131517.17687
           X            0.99929   0.03621  -0.01071
           Y           -0.03664   0.99840  -0.04304
           Z            0.00914   0.04340   0.99902
 This molecule is an asymmetric top.
 Rotational symmetry number  1.
 Warning -- assumption of classical behavior for rotation
           may cause significant error
 Rotational temperatures (Kelvin)      0.13924     0.06623     0.05709
 Rotational constants (GHZ):           2.90137     1.37993     1.18954
 Zero-point vibrational energy     415851.1 (Joules/Mol)
                                   99.39079 (Kcal/Mol)
 Warning -- explicit consideration of  11 degrees of freedom as
           vibrations may cause significant error
 Vibrational temperatures:    245.97   277.01   283.25   349.74   420.81
          (Kelvin)            485.72   502.60   552.91   658.61   714.66
                              875.96  1022.75  1062.97  1136.94  1190.42
                             1226.54  1293.00  1310.18  1344.06  1364.40
                             1421.65  1454.17  1500.17  1544.86  1578.45
                             1589.63  1604.84  1619.17  1627.96  1736.57
                             1752.23  1786.53  1805.20  1827.62  1874.35
                             1890.12  1941.79  1975.79  2090.21  2116.50
                             2146.48  4411.94  4419.23  4460.78  4479.18
                             4504.24  4520.87  4539.23  4551.63  5458.75
                             5482.03

 Zero-point correction=                           0.158389 (Hartree/Particle)
 Thermal correction to Energy=                    0.166595
 Thermal correction to Enthalpy=                  0.167539
 Thermal correction to Gibbs Free Energy=         0.126245
 Sum of electronic and zero-point Energies=           -422.957536
 Sum of electronic and thermal Energies=              -422.949331
 Sum of electronic and thermal Enthalpies=            -422.948387
 Sum of electronic and thermal Free Energies=         -422.989681

                     E (Thermal)             CV                S
                      KCal/Mol        Cal/Mol-Kelvin    Cal/Mol-Kelvin
 Total                  104.540             32.996             86.910
 Electronic               0.000              0.000              0.000
 Translational            0.889              2.981             40.409
 Rotational               0.889              2.981             28.603
 Vibrational            102.762             27.034             17.899
 Vibration     1          0.626              1.878              2.425
 Vibration     2          0.635              1.850              2.203
 Vibration     3          0.636              1.844              2.162
 Vibration     4          0.659              1.774              1.780
 Vibration     5          0.688              1.688              1.460
 Vibration     6          0.718              1.600              1.224
 Vibration     7          0.727              1.577              1.169
 Vibration     8          0.753              1.504              1.022
 Vibration     9          0.816              1.344              0.773
 Vibration    10          0.852              1.257              0.666
 Vibration    11          0.968              1.013              0.435

 Optimization completed.
    -- Stationary point found.
 Normal termination of Gaussian 09 at Tue Jan 28 01:54:24 2020.
