 Gaussian 09, Revision D.01,
 Gaussian 09:  ES64L-G09RevD.01 24-Apr-2013

 -----------------------------
 # b3lyp 6-31G(2df,p) opt Freq
 -----------------------------

 -----
 titel
 -----
 Symbolic Z-matrix:
 Charge =  0 Multiplicity = 1

 SCF Done:  E(RB3LYP) =  -423.131564482     A.U. after   13 cycles
 Optimization completed.
    -- Stationary point found.
 Normal termination of Gaussian 09 at Tue Jan 28 02:54:01 2020.

 ----------------------------------------------------------------------
 #N Geom=AllCheck Guess=TCheck SCRF=Check GenChk RB3LYP/6-31G(2df,p) Fr
 eq
 ----------------------------------------------------------------------

 Structure from the checkpoint file:  "/scratch/puck/g09_c0f8572c-2f68-48e4-9ef4-62f66155770d/Gau-90249.chk"
 -----
 titel
 -----
 Charge =  0 Multiplicity = 1

                         Standard orientation:
 ---------------------------------------------------------------------
 Center     Atomic      Atomic             Coordinates (Angstroms)
 Number     Number       Type             X           Y           Z
 ---------------------------------------------------------------------
      1          6           0       -2.858321   -0.201912    0.387502
      2          6           0       -1.582101    0.220795   -0.305583
      3          8           0       -0.832350   -0.940470   -0.806324
      4          6           0        0.332658   -0.509180   -0.135487
      5          6           0        1.485585   -1.331511    0.413785
      6          6           0        2.386417   -0.054997    0.244520
      7          6           0        1.276982    0.623894   -0.619625
      8          8           0        0.500919    1.646842    0.051079
      9          6           0       -0.381715    0.643167    0.586935
     10          1           0       -3.509583   -0.738474   -0.308891
     11          1           0       -2.642979   -0.864603    1.231604
     12          1           0       -3.397281    0.676064    0.759606
     13          1           0       -1.770948    0.936196   -1.113940
     14          1           0        1.374919   -1.760415    1.412973
     15          1           0        1.780247   -2.125178   -0.279364
     16          1           0        2.573150    0.489414    1.171764
     17          1           0        3.333889   -0.224573   -0.269446
     18          1           0        1.514861    0.874930   -1.654799
     19          1           0       -0.561854    0.744128    1.660170
 ---------------------------------------------------------------------

 SCF Done:  E(RB3LYP) =  -423.131564482     A.U. after    1 cycles

 The electronic state is 1-A.
 Alpha  occ. eigenvalues --  -19.13929 -19.13773 -10.23789 -10.23604 -10.23461
 Alpha  occ. eigenvalues --  -10.22987 -10.19048 -10.18965 -10.18261  -1.06677
 Alpha  occ. eigenvalues --   -1.01677  -0.82881  -0.75990  -0.70240  -0.65440
 Alpha  occ. eigenvalues --   -0.63728  -0.58735  -0.52352  -0.50811  -0.50318
 Alpha  occ. eigenvalues --   -0.46986  -0.45029  -0.41489  -0.41294  -0.39552
 Alpha  occ. eigenvalues --   -0.38499  -0.37021  -0.36650  -0.34867  -0.34659
 Alpha  occ. eigenvalues --   -0.31279  -0.28251  -0.25461  -0.22994
 Alpha virt. eigenvalues --    0.05539   0.09245   0.10249   0.11452   0.12515
 Alpha virt. eigenvalues --    0.13208   0.13463   0.15461   0.16346   0.16730
 Alpha virt. eigenvalues --    0.17114   0.18051   0.18993   0.19908   0.21051

 Mulliken charges:
               1
     1  C   -0.405182
     2  C    0.108145
     3  O   -0.349131
     4  C    0.433157
     5  C   -0.339826
     6  C   -0.246212
     7  C    0.037174
     8  O   -0.307294
     9  C   -0.024918
    10  H    0.133002
    11  H    0.121899
    12  H    0.121904
    13  H    0.092291
    14  H    0.104797
    15  H    0.119384
    16  H    0.119040
    17  H    0.110835
    18  H    0.086416
    19  H    0.084519
 Sum of Mulliken charges =   0.00000

 Dipole moment (field-independent basis, Debye):
    X=              0.1062    Y=             -0.5027    Z=              0.8105  Tot=              0.9596
 Quadrupole moment (field-independent basis, Debye-Ang):
   XX=            -48.2093   YY=            -58.2478   ZZ=            -51.9672
   XY=             -3.0283   XZ=             -1.8761   YZ=             -1.6238

  Exact polarizability:  92.593  -2.580  67.610  -2.091  -1.724  65.479
 Approx polarizability: 115.373  -1.805 105.494  -2.636   0.510 100.581

                      1                      2                      3
                      A                      A                      A
 Frequencies --     97.1134               188.6624               224.4855
 Red. masses --      3.3174                 2.0887                 1.1070
 Frc consts  --      0.0184                 0.0438                 0.0329
 IR Inten    --      2.0011                 0.8139                 0.3498

                      4                      5                      6
                      A                      A                      A
 Frequencies --    262.0125               311.8729               369.0999
 Red. masses --      2.4334                 2.5093                 4.2359
 Frc consts  --      0.0984                 0.1438                 0.3400
 IR Inten    --      1.0639                 2.6411                 3.4781

                      7                      8                      9
                      A                      A                      A
 Frequencies --    406.8769               452.5186               549.8975
 Red. masses --      2.9809                 4.1920                 3.3435
 Frc consts  --      0.2907                 0.5058                 0.5957
 IR Inten    --      2.8395                 1.3942                10.3651

                     10                     11                     12
                      A                      A                      A
 Frequencies --    684.0455               726.0899               795.5914
 Red. masses --      2.7671                 1.9464                 2.6791
 Frc consts  --      0.7629                 0.6046                 0.9991
 IR Inten    --      1.2699                 1.0408                 2.7598

                     13                     14                     15
                      A                      A                      A
 Frequencies --    828.9994               860.2776               865.3684
 Red. masses --      2.3841                 2.1576                 2.5935
 Frc consts  --      0.9654                 0.9408                 1.1443
 IR Inten    --      4.9305                34.1152                25.0898

                     16                     17                     18
                      A                      A                      A
 Frequencies --    884.2357               905.9532               930.0825
 Red. masses --      2.0527                 2.6187                 2.2904
 Frc consts  --      0.9456                 1.2663                 1.1674
 IR Inten    --      2.9787                 8.7380                 7.3341

                     19                     20                     21
                      A                      A                      A
 Frequencies --   1003.6730              1013.6588              1047.9354
 Red. masses --      3.0546                 4.9893                 2.5350
 Frc consts  --      1.8130                 3.0205                 1.6402
 IR Inten    --      6.7424                28.8730                98.7926

                     22                     23                     24
                      A                      A                      A
 Frequencies --   1085.5819              1090.5687              1099.3318
 Red. masses --      1.6390                 2.4800                 2.0464
 Frc consts  --      1.1380                 1.7378                 1.4571
 IR Inten    --      2.4832                20.9868                 5.8847

                     25                     26                     27
                      A                      A                      A
 Frequencies --   1125.2128              1142.5139              1169.7540
 Red. masses --      1.9097                 2.4864                 1.7478
 Frc consts  --      1.4246                 1.9123                 1.4090
 IR Inten    --     21.3671                24.8120                 3.3332

                     28                     29                     30
                      A                      A                      A
 Frequencies --   1192.9477              1218.5125              1242.2272
 Red. masses --      1.6866                 1.2042                 1.5198
 Frc consts  --      1.4142                 1.0534                 1.3818
 IR Inten    --     19.7144                 0.8186                11.5439

                     31                     32                     33
                      A                      A                      A
 Frequencies --   1253.0509              1285.6653              1306.4809
 Red. masses --      1.4327                 1.4720                 1.6815
 Frc consts  --      1.3253                 1.4335                 1.6910
 IR Inten    --      0.1823                54.3871                17.7589

                     34                     35                     36
                      A                      A                      A
 Frequencies --   1315.6274              1343.7643              1389.8533
 Red. masses --      2.5495                 1.5362                 1.6164
 Frc consts  --      2.6000                 1.6343                 1.8396
 IR Inten    --     32.6407                 4.1449                 1.5506

                     37                     38                     39
                      A                      A                      A
 Frequencies --   1406.8710              1467.5383              1482.0848
 Red. masses --      1.3957                 1.0866                 1.0562
 Frc consts  --      1.6276                 1.3788                 1.3669
 IR Inten    --      7.4988                 2.2115                 4.0383

                     40                     41                     42
                      A                      A                      A
 Frequencies --   1490.4248              1495.4385              3035.1399
 Red. masses --      1.1312                 1.0578                 1.0350
 Frc consts  --      1.4806                 1.3938                 5.6177
 IR Inten    --      5.3851                 4.6456                13.7291

                     43                     44                     45
                      A                      A                      A
 Frequencies --   3047.7482              3056.0821              3078.9357
 Red. masses --      1.0856                 1.0580                 1.0615
 Frc consts  --      5.9412                 5.8219                 5.9287
 IR Inten    --     24.3087                30.0979                25.7415

                     46                     47                     48
                      A                      A                      A
 Frequencies --   3080.2639              3099.7671              3105.6640
 Red. masses --      1.0864                 1.0908                 1.1067
 Frc consts  --      6.0731                 6.1754                 6.2890
 IR Inten    --     41.4051                32.3063                 6.4405

                     49                     50                     51
                      A                      A                      A
 Frequencies --   3109.6432              3114.9041              3140.6078
 Red. masses --      1.1013                 1.1018                 1.1086
 Frc consts  --      6.2747                 6.2987                 6.4422
 IR Inten    --     22.9210                20.5083                23.5690

 - Thermochemistry -
 -------------------
 Temperature   298.150 Kelvin.  Pressure   1.00000 Atm.
 Atom     1 has atomic number  6 and mass  12.00000

 Molecular mass:   126.06808 amu.
 Principal axes and moments of inertia in atomic units:
                           1         2         3
     Eigenvalues --   507.321741278.487201518.38695
           X            0.99980  -0.01812  -0.00882
           Y            0.01774   0.99896  -0.04195
           Z            0.00957   0.04179   0.99908
 This molecule is an asymmetric top.
 Rotational symmetry number  1.
 Warning -- assumption of classical behavior for rotation
           may cause significant error
 Rotational temperatures (Kelvin)      0.17073     0.06775     0.05704
 Rotational constants (GHZ):           3.55739     1.41162     1.18859
 Zero-point vibrational energy     417979.1 (Joules/Mol)
                                   99.89941 (Kcal/Mol)
 Warning -- explicit consideration of   9 degrees of freedom as
           vibrations may cause significant error
 Vibrational temperatures:    139.72   271.44   322.98   376.98   448.72
          (Kelvin)            531.05   585.40   651.07   791.18   984.19
                             1044.68  1144.68  1192.74  1237.75  1245.07
                             1272.22  1303.46  1338.18  1444.06  1458.43
                             1507.74  1561.91  1569.08  1581.69  1618.93
                             1643.82  1683.01  1716.38  1753.17  1787.29
                             1802.86  1849.78  1879.73  1892.89  1933.37
                             1999.69  2024.17  2111.46  2132.39  2144.39
                             2151.60  4366.88  4385.02  4397.02  4429.90
                             4431.81  4459.87  4468.35  4474.08  4481.65
                             4518.63

 Zero-point correction=                           0.159200 (Hartree/Particle)
 Thermal correction to Energy=                    0.166880
 Thermal correction to Enthalpy=                  0.167824
 Thermal correction to Gibbs Free Energy=         0.127204
 Sum of electronic and zero-point Energies=           -422.972365
 Sum of electronic and thermal Energies=              -422.964684
 Sum of electronic and thermal Enthalpies=            -422.963740
 Sum of electronic and thermal Free Energies=         -423.004361

                     E (Thermal)             CV                S
                      KCal/Mol        Cal/Mol-Kelvin    Cal/Mol-Kelvin
 Total                  104.719             30.443             85.493
 Electronic               0.000              0.000              0.000
 Translational            0.889              2.981             40.409
 Rotational               0.889              2.981             28.378
 Vibrational            102.941             24.481             16.706
 Vibration     1          0.603              1.951              3.511
 Vibration     2          0.633              1.855              2.241
 Vibration     3          0.649              1.804              1.923
 Vibration     4          0.669              1.742              1.648
 Vibration     5          0.700              1.651              1.352
 Vibration     6          0.741              1.536              1.084
 Vibration     7          0.772              1.455              0.938
 Vibration     8          0.811              1.355              0.788
 Vibration     9          0.905              1.140              0.544

 Optimization completed.
    -- Stationary point found.
 Normal termination of Gaussian 09 at Tue Jan 28 03:36:09 2020.
