 Gaussian 09, Revision D.01,
 Gaussian 09:  ES64L-G09RevD.01 24-Apr-2013

 -----------------------------
 # b3lyp 6-31G(2df,p) opt Freq
 -----------------------------

 -----
 titel
 -----
 Symbolic Z-matrix:
 Charge =  0 Multiplicity = 1

 SCF Done:  E(RB3LYP) =  -423.105648675     A.U. after   14 cycles
 Optimization completed.
    -- Stationary point found.
 Normal termination of Gaussian 09 at Tue Jan 28 09:40:08 2020.

 ----------------------------------------------------------------------
 #N Geom=AllCheck Guess=TCheck SCRF=Check GenChk RB3LYP/6-31G(2df,p) Fr
 eq
 ----------------------------------------------------------------------

 Structure from the checkpoint file:  "/scratch/puck/g09_f52b4ee8-a622-430c-a806-f5b71e0ca2a0/Gau-190174.chk"
 -----
 titel
 -----
 Charge =  0 Multiplicity = 1

                         Standard orientation:
 ---------------------------------------------------------------------
 Center     Atomic      Atomic             Coordinates (Angstroms)
 Number     Number       Type             X           Y           Z
 ---------------------------------------------------------------------
      1          6           0       -2.639318    0.444586    0.535497
      2          6           0       -1.796738   -0.118408   -0.618019
      3          6           0       -0.387150   -0.401524   -0.211062
      4          8           0       -0.094387   -1.529849    0.633629
      5          6           0        0.616877   -1.381290   -0.612217
      6          6           0        1.773309   -0.349823   -0.437468
      7          6           0        1.799138    0.214874    0.972377
      8          6           0        0.752121    0.676918   -0.000900
      9          8           0        0.620562    1.974584   -0.459434
     10          1           0       -3.667887    0.630580    0.213347
     11          1           0       -2.664643   -0.255749    1.375402
     12          1           0       -2.227857    1.392152    0.899122
     13          1           0       -2.243390   -1.045627   -0.993507
     14          1           0       -1.777054    0.595289   -1.449826
     15          1           0        0.577837   -2.211004   -1.308406
     16          1           0        2.597163   -0.237736   -1.128788
     17          1           0        1.551106   -0.406329    1.823940
     18          1           0        2.592939    0.939694    1.127274
     19          1           0        0.342964    2.528857    0.278632
 ---------------------------------------------------------------------

 SCF Done:  E(RB3LYP) =  -423.105648675     A.U. after    1 cycles

 The electronic state is 1-A.
 Alpha  occ. eigenvalues --  -19.15441 -19.14723 -10.23948 -10.23433 -10.23301
 Alpha  occ. eigenvalues --  -10.19094 -10.18926 -10.18578 -10.17836  -1.07338
 Alpha  occ. eigenvalues --   -1.03619  -0.85880  -0.77850  -0.69103  -0.65147
 Alpha  occ. eigenvalues --   -0.61273  -0.57251  -0.55317  -0.51025  -0.48958
 Alpha  occ. eigenvalues --   -0.47208  -0.44548  -0.42436  -0.40513  -0.39045
 Alpha  occ. eigenvalues --   -0.38633  -0.37139  -0.34957  -0.34740  -0.33794
 Alpha  occ. eigenvalues --   -0.32320  -0.27510  -0.24565  -0.22638
 Alpha virt. eigenvalues --    0.06067   0.06928   0.10365   0.11325   0.12510
 Alpha virt. eigenvalues --    0.14596   0.15204   0.15424   0.16348   0.16859
 Alpha virt. eigenvalues --    0.17918   0.18168   0.18472   0.21054   0.22647

 Mulliken charges:
               1
     1  C   -0.378619
     2  C   -0.307540
     3  C    0.369215
     4  O   -0.292710
     5  C   -0.076114
     6  C   -0.156062
     7  C   -0.352723
     8  C    0.320947
     9  O   -0.454999
    10  H    0.115646
    11  H    0.134643
    12  H    0.108775
    13  H    0.110803
    14  H    0.116951
    15  H    0.105177
    16  H    0.101072
    17  H    0.133687
    18  H    0.112257
    19  H    0.289593
 Sum of Mulliken charges =   0.00000

 Dipole moment (field-independent basis, Debye):
    X=             -0.2792    Y=              1.0068    Z=             -0.2131  Tot=              1.0663
 Quadrupole moment (field-independent basis, Debye-Ang):
   XX=            -50.7268   YY=            -52.7245   ZZ=            -53.2000
   XY=             -0.9631   XZ=              0.5955   YZ=              6.1497

  Exact polarizability:  84.080  -2.023  73.897   0.601   4.775  65.637
 Approx polarizability: 110.149  -4.616 113.430  -2.224   2.933 103.806

                      1                      2                      3
                      A                      A                      A
 Frequencies --     63.3258               127.7915               180.0350
 Red. masses --      2.6347                 3.2339                 1.5007
 Frc consts  --      0.0062                 0.0311                 0.0287
 IR Inten    --      0.0288                 0.4320                 0.7221

                      4                      5                      6
                      A                      A                      A
 Frequencies --    232.4828               259.6652               315.2248
 Red. masses --      2.7983                 1.6588                 1.3124
 Frc consts  --      0.0891                 0.0659                 0.0768
 IR Inten    --     15.7525                 2.3995                88.6087

                      7                      8                      9
                      A                      A                      A
 Frequencies --    386.5889               415.4213               434.0495
 Red. masses --      2.8894                 3.2286                 2.9236
 Frc consts  --      0.2544                 0.3283                 0.3245
 IR Inten    --     17.2803                11.6633                 0.8607

                     10                     11                     12
                      A                      A                      A
 Frequencies --    457.1295               556.6925               608.4748
 Red. masses --      3.4398                 3.6150                 3.3061
 Frc consts  --      0.4235                 0.6601                 0.7212
 IR Inten    --      1.9451                 8.5091                 0.5636

                     13                     14                     15
                      A                      A                      A
 Frequencies --    669.9961               740.7371               793.1273
 Red. masses --      3.4061                 2.1424                 2.7017
 Frc consts  --      0.9009                 0.6926                 1.0013
 IR Inten    --      5.9913                 4.0562                 7.6193

                     16                     17                     18
                      A                      A                      A
 Frequencies --    810.5421               864.7000               906.5143
 Red. masses --      1.7277                 2.6916                 1.9496
 Frc consts  --      0.6688                 1.1857                 0.9440
 IR Inten    --      7.3712                 3.7377                12.9822

                     19                     20                     21
                      A                      A                      A
 Frequencies --    912.6972               937.9334               971.2718
 Red. masses --      3.1425                 2.1119                 2.0832
 Frc consts  --      1.5423                 1.0946                 1.1579
 IR Inten    --     17.6132                25.5699                10.3710

                     22                     23                     24
                      A                      A                      A
 Frequencies --    992.0240              1001.4273              1031.2320
 Red. masses --      1.4316                 1.6427                 2.1003
 Frc consts  --      0.8301                 0.9706                 1.3160
 IR Inten    --      1.8794                 5.7261                 0.8352

                     25                     26                     27
                      A                      A                      A
 Frequencies --   1067.7805              1090.4433              1103.0217
 Red. masses --      2.0139                 1.3649                 1.8521
 Frc consts  --      1.3529                 0.9562                 1.3277
 IR Inten    --      5.0023                 5.9039                 7.5089

                     28                     29                     30
                      A                      A                      A
 Frequencies --   1159.0926              1214.1741              1233.7613
 Red. masses --      2.0260                 1.7128                 2.5669
 Frc consts  --      1.6037                 1.4877                 2.3021
 IR Inten    --      9.0921                30.6950                14.3628

                     31                     32                     33
                      A                      A                      A
 Frequencies --   1247.5134              1298.1228              1311.3402
 Red. masses --      1.4253                 1.6800                 1.3473
 Frc consts  --      1.3069                 1.6680                 1.3650
 IR Inten    --     10.9848                96.2687                 4.3628

                     34                     35                     36
                      A                      A                      A
 Frequencies --   1348.1369              1388.7732              1405.3332
 Red. masses --      1.5038                 1.7298                 1.2400
 Frc consts  --      1.6103                 1.9657                 1.4429
 IR Inten    --      6.5623                17.2111                 1.3887

                     37                     38                     39
                      A                      A                      A
 Frequencies --   1459.6374              1467.6045              1487.9985
 Red. masses --      1.7971                 1.2376                 2.0366
 Frc consts  --      2.2559                 1.5705                 2.6568
 IR Inten    --      9.2560                10.1739                 3.2737

                     40                     41                     42
                      A                      A                      A
 Frequencies --   1497.8599              1508.4991              3037.1338
 Red. masses --      1.0444                 1.3054                 1.0469
 Frc consts  --      1.3805                 1.7502                 5.6896
 IR Inten    --      4.5375                 3.3082                11.6130

                     43                     44                     45
                      A                      A                      A
 Frequencies --   3039.2997              3076.9494              3107.0499
 Red. masses --      1.0474                 1.1018                 1.1012
 Frc consts  --      5.7002                 6.1461                 6.2634
 IR Inten    --     29.1765                 4.2167                40.6188

                     46                     47                     48
                      A                      A                      A
 Frequencies --   3118.5350              3134.0328              3183.7171
 Red. masses --      1.1026                 1.0534                 1.0937
 Frc consts  --      6.3179                 6.0961                 6.5315
 IR Inten    --     24.6544                13.1509                16.7646

                     49                     50                     51
                      A                      A                      A
 Frequencies --   3213.2964              3229.8625              3786.7063
 Red. masses --      1.0955                 1.1148                 1.0662
 Frc consts  --      6.6644                 6.8522                 9.0080
 IR Inten    --      6.2592                 3.5377                20.3905

 - Thermochemistry -
 -------------------
 Temperature   298.150 Kelvin.  Pressure   1.00000 Atm.
 Atom     1 has atomic number  6 and mass  12.00000

 Molecular mass:   126.06808 amu.
 Principal axes and moments of inertia in atomic units:
                           1         2         3
     Eigenvalues --   717.979771137.296291499.52897
           X            0.99973  -0.02329   0.00152
           Y            0.02318   0.99834   0.05279
           Z           -0.00275  -0.05274   0.99860
 This molecule is an asymmetric top.
 Rotational symmetry number  1.
 Warning -- assumption of classical behavior for rotation
           may cause significant error
 Rotational temperatures (Kelvin)      0.12064     0.07616     0.05776
 Rotational constants (GHZ):           2.51364     1.58687     1.20354
 Zero-point vibrational energy     412022.4 (Joules/Mol)
                                   98.47571 (Kcal/Mol)
 Warning -- explicit consideration of  12 degrees of freedom as
           vibrations may cause significant error
 Vibrational temperatures:     91.11   183.86   259.03   334.49   373.60
          (Kelvin)            453.54   556.21   597.70   624.50   657.71
                              800.96   875.46   963.97  1065.75  1141.13
                             1166.19  1244.11  1304.27  1313.17  1349.48
                             1397.44  1427.30  1440.83  1483.71  1536.30
                             1568.90  1587.00  1667.67  1746.92  1775.11
                             1794.89  1867.71  1886.72  1939.67  1998.13
                             2021.96  2100.09  2111.55  2140.90  2155.08
                             2170.39  4369.75  4372.87  4427.04  4470.35
                             4486.87  4509.17  4580.65  4623.21  4647.05
                             5448.22

 Zero-point correction=                           0.156931 (Hartree/Particle)
 Thermal correction to Energy=                    0.165681
 Thermal correction to Enthalpy=                  0.166625
 Thermal correction to Gibbs Free Energy=         0.123625
 Sum of electronic and zero-point Energies=           -422.948718
 Sum of electronic and thermal Energies=              -422.939968
 Sum of electronic and thermal Enthalpies=            -422.939024
 Sum of electronic and thermal Free Energies=         -422.982023

                     E (Thermal)             CV                S
                      KCal/Mol        Cal/Mol-Kelvin    Cal/Mol-Kelvin
 Total                  103.966             33.842             90.501
 Electronic               0.000              0.000              0.000
 Translational            0.889              2.981             40.409
 Rotational               0.889              2.981             28.595
 Vibrational            102.189             27.881             21.497
 Vibration     1          0.597              1.972              4.351
 Vibration     2          0.611              1.925              2.979
 Vibration     3          0.629              1.867              2.328
 Vibration     4          0.653              1.791              1.860
 Vibration     5          0.668              1.746              1.664
 Vibration     6          0.703              1.645              1.335
 Vibration     7          0.755              1.499              1.013
 Vibration     8          0.779              1.437              0.908
 Vibration     9          0.795              1.396              0.846
 Vibration    10          0.815              1.345              0.775
 Vibration    11          0.912              1.125              0.530
 Vibration    12          0.967              1.014              0.435

 Normal termination of Gaussian 09 at Tue Jan 28 10:15:07 2020.
