 Gaussian 09, Revision D.01,
 Gaussian 09:  ES64L-G09RevD.01 24-Apr-2013

 -----------------------------
 # b3lyp 6-31G(2df,p) opt Freq
 -----------------------------

 -----
 titel
 -----
 Symbolic Z-matrix:
 Charge =  0 Multiplicity = 1

 SCF Done:  E(RB3LYP) =  -423.118210067     A.U. after   14 cycles
 Optimization completed.
    -- Stationary point found.
 Normal termination of Gaussian 09 at Mon Jan 27 15:42:34 2020.

 ----------------------------------------------------------------------
 #N Geom=AllCheck Guess=TCheck SCRF=Check GenChk RB3LYP/6-31G(2df,p) Fr
 eq
 ----------------------------------------------------------------------

 Structure from the checkpoint file:  "/scratch/puck/g09_8d52fb9f-01ce-4b4e-bf54-af3c3c19ebdd/Gau-54110.chk"
 -----
 titel
 -----
 Charge =  0 Multiplicity = 1

                         Standard orientation:
 ---------------------------------------------------------------------
 Center     Atomic      Atomic             Coordinates (Angstroms)
 Number     Number       Type             X           Y           Z
 ---------------------------------------------------------------------
      1          8           0        0.624051   -2.439346   -0.075497
      2          6           0        0.557058   -1.026343   -0.242659
      3          6           0        1.843784   -0.377525    0.324063
      4          6           0        1.967885    1.042171    0.023882
      5          6           0        2.055934    2.210903   -0.242733
      6          6           0       -0.702426   -0.435790    0.349157
      7          6           0       -2.053297   -0.753348   -0.279479
      8          6           0       -1.489317    0.633759   -0.365609
      9          8           0       -2.053151    1.721249    0.302964
     10          1           0        0.403573   -2.639260    0.840609
     11          1           0        0.548548   -0.875051   -1.328289
     12          1           0        1.865078   -0.532421    1.412069
     13          1           0        2.699151   -0.928110   -0.083255
     14          1           0        2.130883    3.245492   -0.469029
     15          1           0       -0.695666   -0.354766    1.436421
     16          1           0       -2.070150   -1.375076   -1.168603
     17          1           0       -2.890204   -0.921397    0.392347
     18          1           0       -1.104254    0.964339   -1.324243
     19          1           0       -2.531894    1.398064    1.072507
 ---------------------------------------------------------------------

 SCF Done:  E(RB3LYP) =  -423.118210067     A.U. after    1 cycles

 The electronic state is 1-A.
 Alpha  occ. eigenvalues --  -19.14369 -19.13898 -10.24284 -10.23952 -10.20585
 Alpha  occ. eigenvalues --  -10.19196 -10.18827 -10.17881 -10.16797  -1.02962
 Alpha  occ. eigenvalues --   -1.02197  -0.85235  -0.79025  -0.71705  -0.65374
 Alpha  occ. eigenvalues --   -0.61698  -0.59551  -0.52796  -0.52104  -0.50692
 Alpha  occ. eigenvalues --   -0.46751  -0.46012  -0.43371  -0.41541  -0.40039
 Alpha  occ. eigenvalues --   -0.39233  -0.37880  -0.36283  -0.33193  -0.29129
 Alpha  occ. eigenvalues --   -0.28676  -0.26167  -0.25721  -0.23905
 Alpha virt. eigenvalues --    0.05299   0.05850   0.07318   0.07520   0.09698
 Alpha virt. eigenvalues --    0.11596   0.11881   0.13329   0.14874   0.15822
 Alpha virt. eigenvalues --    0.16860   0.18798   0.19373   0.21777   0.24343

 Mulliken charges:
               1
     1  O   -0.423934
     2  C    0.104963
     3  C   -0.378145
     4  C    0.309041
     5  C   -0.448347
     6  C   -0.076526
     7  C   -0.348295
     8  C    0.158706
     9  O   -0.425931
    10  H    0.278578
    11  H    0.094599
    12  H    0.116498
    13  H    0.138353
    14  H    0.196699
    15  H    0.073867
    16  H    0.126778
    17  H    0.105034
    18  H    0.115626
    19  H    0.282436
 Sum of Mulliken charges =   0.00000

 Dipole moment (field-independent basis, Debye):
    X=             -0.8808    Y=             -0.7767    Z=              1.6600  Tot=              2.0334
 Quadrupole moment (field-independent basis, Debye-Ang):
   XX=            -52.7532   YY=            -56.7953   ZZ=            -48.8471
   XY=              2.8679   XZ=             -2.5210   YZ=             -3.7785

  Exact polarizability:  76.042   3.768  91.506  -1.179  -4.471  61.935
 Approx polarizability:  96.415   2.737 143.543  -2.048 -10.698  97.668

                      1                      2                      3
                      A                      A                      A
 Frequencies --     48.3040                63.3658               124.4354
 Red. masses --      3.3174                 4.6202                 1.0791
 Frc consts  --      0.0046                 0.0109                 0.0098
 IR Inten    --      1.2262                 1.3458                78.2039

                      4                      5                      6
                      A                      A                      A
 Frequencies --    134.6250               164.2750               210.5840
 Red. masses --      3.6125                 3.8967                 1.4013
 Frc consts  --      0.0386                 0.0620                 0.0366
 IR Inten    --      4.4263                 1.1276                98.7326

                      7                      8                      9
                      A                      A                      A
 Frequencies --    246.1906               306.7588               353.0058
 Red. masses --      1.8801                 5.4728                 4.1563
 Frc consts  --      0.0671                 0.3034                 0.3052
 IR Inten    --     19.1641                19.1020                 2.4798

                     10                     11                     12
                      A                      A                      A
 Frequencies --    361.6437               428.1284               456.6423
 Red. masses --      3.3053                 2.7834                 3.7362
 Frc consts  --      0.2547                 0.3006                 0.4590
 IR Inten    --      2.1761                 3.2858                 4.6373

                     13                     14                     15
                      A                      A                      A
 Frequencies --    481.3638               557.8660               625.0074
 Red. masses --      2.8415                 3.4100                 1.2137
 Frc consts  --      0.3879                 0.6253                 0.2793
 IR Inten    --      1.9206                12.0489                42.9009

                     16                     17                     18
                      A                      A                      A
 Frequencies --    644.4348               790.4102               823.2452
 Red. masses --      1.2244                 1.9134                 1.8226
 Frc consts  --      0.2996                 0.7043                 0.7278
 IR Inten    --     44.8138                10.4873                13.4395

                     19                     20                     21
                      A                      A                      A
 Frequencies --    903.3720               927.6006               963.4387
 Red. masses --      1.5050                 4.4984                 2.1111
 Frc consts  --      0.7236                 2.2805                 1.1545
 IR Inten    --      4.2819                31.5733                38.9884

                     22                     23                     24
                      A                      A                      A
 Frequencies --    973.0943              1006.9053              1055.0811
 Red. masses --      3.7665                 2.2263                 1.7308
 Frc consts  --      2.1013                 1.3299                 1.1352
 IR Inten    --      2.6907                22.2460                21.9698

                     25                     26                     27
                      A                      A                      A
 Frequencies --   1064.0419              1081.2805              1103.9916
 Red. masses --      3.0551                 1.4067                 2.0006
 Frc consts  --      2.0380                 0.9690                 1.4366
 IR Inten    --     87.0536                14.6826                43.3938

                     28                     29                     30
                      A                      A                      A
 Frequencies --   1109.5086              1149.2911              1205.6114
 Red. masses --      1.4608                 1.6768                 1.2304
 Frc consts  --      1.0595                 1.3049                 1.0537
 IR Inten    --     36.5526                11.1921                 0.2479

                     31                     32                     33
                      A                      A                      A
 Frequencies --   1237.8145              1253.8200              1296.4667
 Red. masses --      1.7715                 1.4117                 1.3396
 Frc consts  --      1.5992                 1.3076                 1.3267
 IR Inten    --     53.7607                12.9411                 1.7618

                     34                     35                     36
                      A                      A                      A
 Frequencies --   1331.2952              1356.0876              1393.0700
 Red. masses --      1.5365                 1.3521                 1.3051
 Frc consts  --      1.6045                 1.4650                 1.4922
 IR Inten    --      5.1472                10.1804                36.3132

                     37                     38                     39
                      A                      A                      A
 Frequencies --   1428.8841              1444.3580              1470.7920
 Red. masses --      1.2601                 1.2985                 1.0910
 Frc consts  --      1.5159                 1.5960                 1.3905
 IR Inten    --     22.6485                58.5547                 2.6582

                     40                     41                     42
                      A                      A                      A
 Frequencies --   1492.6450              2238.5951              3011.3757
 Red. masses --      1.5548                 5.9344                 1.0655
 Frc consts  --      2.0410                17.5218                 5.6930
 IR Inten    --     33.1366                 1.6901                15.8118

                     43                     44                     45
                      A                      A                      A
 Frequencies --   3046.3647              3067.3219              3104.2363
 Red. masses --      1.0832                 1.0957                 1.0861
 Frc consts  --      5.9227                 6.0740                 6.1664
 IR Inten    --     15.1551                13.7436                17.6989

                     46                     47                     48
                      A                      A                      A
 Frequencies --   3122.9585              3173.5318              3208.9286
 Red. masses --      1.0564                 1.0900                 1.1147
 Frc consts  --      6.0702                 6.4679                 6.7630
 IR Inten    --     11.2614                 7.9322                 9.7633

                     49                     50                     51
                      A                      A                      A
 Frequencies --   3507.1155              3806.7843              3824.9427
 Red. masses --      1.1621                 1.0661                 1.0660
 Frc consts  --      8.4213                 9.1026                 9.1886
 IR Inten    --     63.1616                18.6590                20.3816

 - Thermochemistry -
 -------------------
 Temperature   298.150 Kelvin.  Pressure   1.00000 Atm.
 Atom     1 has atomic number  8 and mass  15.99491

 Molecular mass:   126.06808 amu.
 Principal axes and moments of inertia in atomic units:
                           1         2         3
     Eigenvalues --  1025.652101267.368022153.85920
           X            0.99901   0.04438   0.00004
           Y           -0.04438   0.99897  -0.00920
           Z           -0.00044   0.00919   0.99996
 This molecule is an asymmetric top.
 Rotational symmetry number  1.
 Warning -- assumption of classical behavior for rotation
           may cause significant error
 Rotational temperatures (Kelvin)      0.08445     0.06834     0.04021
 Rotational constants (GHZ):           1.75960     1.42401     0.83791
 Zero-point vibrational energy     407812.3 (Joules/Mol)
                                   97.46948 (Kcal/Mol)
 Warning -- explicit consideration of  14 degrees of freedom as
           vibrations may cause significant error
 Vibrational temperatures:     69.50    91.17   179.03   193.70   236.35
          (Kelvin)            302.98   354.21   441.36   507.90   520.32
                              615.98   657.01   692.57   802.64   899.25
                              927.20  1137.22  1184.46  1299.75  1334.61
                             1386.17  1400.06  1448.71  1518.02  1530.92
                             1555.72  1588.40  1596.33  1653.57  1734.60
                             1780.94  1803.97  1865.32  1915.43  1951.11
                             2004.31  2055.84  2078.11  2116.14  2147.58
                             3220.84  4332.69  4383.03  4413.19  4466.30
                             4493.24  4566.00  4616.93  5045.95  5477.11
                             5503.23

 Zero-point correction=                           0.155327 (Hartree/Particle)
 Thermal correction to Energy=                    0.165821
 Thermal correction to Enthalpy=                  0.166765
 Thermal correction to Gibbs Free Energy=         0.119161
 Sum of electronic and zero-point Energies=           -422.962883
 Sum of electronic and thermal Energies=              -422.952389
 Sum of electronic and thermal Enthalpies=            -422.951445
 Sum of electronic and thermal Free Energies=         -422.999049

                     E (Thermal)             CV                S
                      KCal/Mol        Cal/Mol-Kelvin    Cal/Mol-Kelvin
 Total                  104.054             37.683            100.191
 Electronic               0.000              0.000              0.000
 Translational            0.889              2.981             40.409
 Rotational               0.889              2.981             29.417
 Vibrational            102.277             31.721             30.366
 Vibration     1          0.595              1.978              4.886
 Vibration     2          0.597              1.972              4.350
 Vibration     3          0.610              1.929              3.030
 Vibration     4          0.613              1.919              2.879
 Vibration     5          0.623              1.886              2.500
 Vibration     6          0.643              1.825              2.039
 Vibration     7          0.661              1.769              1.758
 Vibration     8          0.697              1.661              1.380
 Vibration     9          0.729              1.569              1.153
 Vibration    10          0.736              1.551              1.115
 Vibration    11          0.790              1.409              0.865
 Vibration    12          0.815              1.346              0.776
 Vibration    13          0.838              1.291              0.706
 Vibration    14          0.913              1.123              0.528

 Optimization completed.
    -- Stationary point found.
 Normal termination of Gaussian 09 at Mon Jan 27 16:18:28 2020.
