 Gaussian 09, Revision D.01,
 Gaussian 09:  ES64L-G09RevD.01 24-Apr-2013

 -----------------------------
 # b3lyp 6-31G(2df,p) opt Freq
 -----------------------------

 -----
 titel
 -----
 Symbolic Z-matrix:
 Charge =  0 Multiplicity = 1

 SCF Done:  E(RB3LYP) =  -423.199514551     A.U. after   14 cycles
 SCF Done:  E(RB3LYP) =  -423.199516528     A.U. after    9 cycles
 SCF Done:  E(RB3LYP) =  -423.199501591     A.U. after   11 cycles
 SCF Done:  E(RB3LYP) =  -423.199518891     A.U. after   10 cycles
 SCF Done:  E(RB3LYP) =  -423.199519240     A.U. after    8 cycles
 SCF Done:  E(RB3LYP) =  -423.199520363     A.U. after    8 cycles
 SCF Done:  E(RB3LYP) =  -423.199520818     A.U. after    7 cycles
 SCF Done:  E(RB3LYP) =  -423.199521243     A.U. after    8 cycles
 SCF Done:  E(RB3LYP) =  -423.199521477     A.U. after    7 cycles
 SCF Done:  E(RB3LYP) =  -423.199521971     A.U. after    7 cycles
 SCF Done:  E(RB3LYP) =  -423.199522047     A.U. after    6 cycles
 Optimization completed.
    -- Stationary point found.
 Normal termination of Gaussian 09 at Mon Jan 27 14:16:28 2020.

 ----------------------------------------------------------------------
 #N Geom=AllCheck Guess=TCheck SCRF=Check GenChk RB3LYP/6-31G(2df,p) Fr
 eq
 ----------------------------------------------------------------------

 Structure from the checkpoint file:  "/scratch/puck/g09_73fc16df-044f-4430-9e31-c609b538e1ad/Gau-76425.chk"
 -----
 titel
 -----
 Charge =  0 Multiplicity = 1

                         Standard orientation:
 ---------------------------------------------------------------------
 Center     Atomic      Atomic             Coordinates (Angstroms)
 Number     Number       Type             X           Y           Z
 ---------------------------------------------------------------------
      1          8           0        3.157230   -1.133533   -0.287223
      2          6           0        2.531880   -0.106771   -0.280536
      3          6           0        1.537416    0.274323    0.806187
      4          6           0        0.242585    0.819355    0.192619
      5          8           0        0.284422    1.728866   -0.605567
      6          6           0       -1.034030    0.120031    0.583598
      7          6           0       -1.280846   -1.274443   -0.099984
      8          6           0       -2.765243   -0.860302   -0.290081
      9          6           0       -2.367666    0.616255   -0.023231
     10          1           0        2.630094    0.652668   -1.083481
     11          1           0        1.381343   -0.573962    1.475247
     12          1           0        1.984747    1.100683    1.375215
     13          1           0       -1.073927    0.015709    1.673236
     14          1           0       -0.751437   -1.351896   -1.053827
     15          1           0       -1.067217   -2.165502    0.493084
     16          1           0       -3.223817   -1.091701   -1.253617
     17          1           0       -3.400565   -1.264361    0.502719
     18          1           0       -2.178572    1.177174   -0.941241
     19          1           0       -3.018441    1.207832    0.623547
 ---------------------------------------------------------------------

 SCF Done:  E(RB3LYP) =  -423.199522047     A.U. after    1 cycles

 The electronic state is 1-A.
 Alpha  occ. eigenvalues --  -19.14711 -19.14122 -10.28128 -10.28053 -10.20724
 Alpha  occ. eigenvalues --  -10.20448 -10.20053 -10.19159 -10.18716  -1.05590
 Alpha  occ. eigenvalues --   -1.05060  -0.85559  -0.78147  -0.69663  -0.66979
 Alpha  occ. eigenvalues --   -0.60180  -0.56879  -0.53816  -0.50514  -0.49034
 Alpha  occ. eigenvalues --   -0.47390  -0.45806  -0.44114  -0.42646  -0.40323
 Alpha  occ. eigenvalues --   -0.39714  -0.38953  -0.37289  -0.35489  -0.33578
 Alpha  occ. eigenvalues --   -0.32212  -0.31699  -0.27115  -0.24563
 Alpha virt. eigenvalues --   -0.03664  -0.01692   0.07400   0.09393   0.10168
 Alpha virt. eigenvalues --    0.12302   0.13678   0.14503   0.14875   0.16570
 Alpha virt. eigenvalues --    0.17399   0.17975   0.19442   0.19825   0.21607

 Mulliken charges:
               1
     1  O   -0.234733
     2  C    0.162475
     3  C   -0.372926
     4  C    0.345249
     5  O   -0.311726
     6  C   -0.072032
     7  C   -0.230498
     8  C   -0.207631
     9  C   -0.234535
    10  H    0.108201
    11  H    0.126541
    12  H    0.156156
    13  H    0.090153
    14  H    0.119019
    15  H    0.111573
    16  H    0.106720
    17  H    0.106892
    18  H    0.127960
    19  H    0.103142
 Sum of Mulliken charges =   0.00000

 Dipole moment (field-independent basis, Debye):
    X=             -1.9978    Y=             -0.1186    Z=              1.8294  Tot=              2.7115
 Quadrupole moment (field-independent basis, Debye-Ang):
   XX=            -57.8374   YY=            -58.8315   ZZ=            -51.2466
   XY=              6.4218   XZ=              1.3910   YZ=              1.9542

  Exact polarizability:  91.822  -2.178  75.508  -0.972  -2.732  65.713
 Approx polarizability: 114.647  -8.303 122.241  -2.509  -8.813 103.776

                      1                      2                      3
                      A                      A                      A
 Frequencies --     20.1659                45.7632               100.2505
 Red. masses --      6.0561                 2.6879                 2.7783
 Frc consts  --      0.0015                 0.0033                 0.0165
 IR Inten    --      1.8422                 1.1642                 4.9200

                      4                      5                      6
                      A                      A                      A
 Frequencies --    105.4586               181.4917               202.8878
 Red. masses --      2.8429                 2.6785                 3.2605
 Frc consts  --      0.0186                 0.0520                 0.0791
 IR Inten    --      4.8014                 2.0200                 5.1719

                      7                      8                      9
                      A                      A                      A
 Frequencies --    298.2837               357.0472               469.3497
 Red. masses --      3.3663                 3.3488                 4.5670
 Frc consts  --      0.1765                 0.2515                 0.5928
 IR Inten    --      9.0357                 1.3759                10.6693

                     10                     11                     12
                      A                      A                      A
 Frequencies --    575.2547               598.4201               681.8394
 Red. masses --      2.7228                 2.1752                 2.2117
 Frc consts  --      0.5309                 0.4589                 0.6058
 IR Inten    --      2.7742                10.2269                 2.1234

                     13                     14                     15
                      A                      A                      A
 Frequencies --    762.3067               784.4071               819.8165
 Red. masses --      1.5850                 1.2855                 1.8299
 Frc consts  --      0.5427                 0.4660                 0.7246
 IR Inten    --      1.0366                 1.3769                 4.4472

                     16                     17                     18
                      A                      A                      A
 Frequencies --    875.6042               928.3184               937.5274
 Red. masses --      2.5135                 2.6365                 2.0425
 Frc consts  --      1.1354                 1.3387                 1.0577
 IR Inten    --     10.2705                10.1883                 2.0374

                     19                     20                     21
                      A                      A                      A
 Frequencies --    954.8699               980.4573              1014.0097
 Red. masses --      2.3556                 1.5096                 2.7671
 Frc consts  --      1.2654                 0.8550                 1.6763
 IR Inten    --      8.0292                20.7658                 1.1488

                     22                     23                     24
                      A                      A                      A
 Frequencies --   1033.9997              1066.1384              1106.2212
 Red. masses --      2.2123                 2.4078                 2.0749
 Frc consts  --      1.3936                 1.6125                 1.4960
 IR Inten    --     28.1206                22.9849                75.8281

                     25                     26                     27
                      A                      A                      A
 Frequencies --   1134.0283              1185.4725              1208.9213
 Red. masses --      2.1792                 1.4400                 1.3185
 Frc consts  --      1.6511                 1.1923                 1.1353
 IR Inten    --     45.3932                 6.8065                 1.0428

                     28                     29                     30
                      A                      A                      A
 Frequencies --   1227.8669              1247.9949              1259.1018
 Red. masses --      1.2907                 1.2599                 1.2266
 Frc consts  --      1.1465                 1.1562                 1.1457
 IR Inten    --      6.3468                 0.7774                 0.6173

                     31                     32                     33
                      A                      A                      A
 Frequencies --   1273.9424              1278.0281              1288.5007
 Red. masses --      1.4323                 1.3914                 1.5658
 Frc consts  --      1.3695                 1.3390                 1.5316
 IR Inten    --     14.1277                 2.3019                44.4548

                     34                     35                     36
                      A                      A                      A
 Frequencies --   1369.6033              1407.0591              1441.7616
 Red. masses --      1.8689                 1.1684                 1.0962
 Frc consts  --      2.0655                 1.3629                 1.3425
 IR Inten    --     27.7829                 4.0349                13.8230

                     37                     38                     39
                      A                      A                      A
 Frequencies --   1477.6233              1486.6361              1507.3395
 Red. masses --      1.0861                 1.0825                 1.1315
 Frc consts  --      1.3972                 1.4096                 1.5147
 IR Inten    --      1.2035                 2.5121                 2.9280

                     40                     41                     42
                      A                      A                      A
 Frequencies --   1788.1185              1837.5595              2928.6015
 Red. masses --     11.5008                 9.7876                 1.0852
 Frc consts  --     21.6657                19.4719                 5.4837
 IR Inten    --    188.7791               149.2645                56.5299

                     43                     44                     45
                      A                      A                      A
 Frequencies --   3032.7848              3051.1979              3061.7039
 Red. masses --      1.0640                 1.0837                 1.0577
 Frc consts  --      5.7662                 5.9444                 5.8415
 IR Inten    --      0.0355                13.6006                28.3880

                     46                     47                     48
                      A                      A                      A
 Frequencies --   3063.6496              3075.0598              3108.5100
 Red. masses --      1.0605                 1.0596                 1.1066
 Frc consts  --      5.8644                 5.9033                 6.3002
 IR Inten    --     36.7899                24.3360                 7.7234

                     49                     50                     51
                      A                      A                      A
 Frequencies --   3122.7371              3124.3340              3134.0414
 Red. masses --      1.1076                 1.0981                 1.1073
 Frc consts  --      6.3636                 6.3156                 6.4080
 IR Inten    --     12.3334                11.3652                38.2131

 - Thermochemistry -
 -------------------
 Temperature   298.150 Kelvin.  Pressure   1.00000 Atm.
 Atom     1 has atomic number  8 and mass  15.99491

 Molecular mass:   126.06808 amu.
 Principal axes and moments of inertia in atomic units:
                           1         2         3
     Eigenvalues --   566.814301942.120922265.09000
           X            0.99976   0.02099   0.00589
           Y           -0.02104   0.99975   0.00803
           Z           -0.00572  -0.00815   0.99995
 This molecule is an asymmetric top.
 Rotational symmetry number  1.
 Warning -- assumption of classical behavior for rotation
           may cause significant error
 Rotational temperatures (Kelvin)      0.15281     0.04460     0.03824
 Rotational constants (GHZ):           3.18401     0.92926     0.79676
 Zero-point vibrational energy     412843.6 (Joules/Mol)
                                   98.67200 (Kcal/Mol)
 Warning -- explicit consideration of  11 degrees of freedom as
           vibrations may cause significant error
 Vibrational temperatures:     29.01    65.84   144.24   151.73   261.13
          (Kelvin)            291.91   429.16   513.71   675.29   827.66
                              860.99   981.01  1096.79  1128.59  1179.53
                             1259.80  1335.64  1348.89  1373.84  1410.66
                             1458.93  1487.69  1533.93  1591.60  1631.61
                             1705.63  1739.37  1766.62  1795.58  1811.56
                             1832.92  1838.80  1853.86  1970.55  2024.44
                             2074.37  2125.97  2138.94  2168.72  2572.70
                             2643.83  4213.60  4363.50  4389.99  4405.10
                             4407.90  4424.32  4472.45  4492.92  4495.21
                             4509.18

 Zero-point correction=                           0.157244 (Hartree/Particle)
 Thermal correction to Energy=                    0.166681
 Thermal correction to Enthalpy=                  0.167625
 Thermal correction to Gibbs Free Energy=         0.120535
 Sum of electronic and zero-point Energies=           -423.042278
 Sum of electronic and thermal Energies=              -423.032841
 Sum of electronic and thermal Enthalpies=            -423.031897
 Sum of electronic and thermal Free Energies=         -423.078987

                     E (Thermal)             CV                S
                      KCal/Mol        Cal/Mol-Kelvin    Cal/Mol-Kelvin
 Total                  104.594             32.903             99.109
 Electronic               0.000              0.000              0.000
 Translational            0.889              2.981             40.409
 Rotational               0.889              2.981             29.301
 Vibrational            102.816             26.941             29.399
 Vibration     1          0.593              1.986              6.618
 Vibration     2          0.595              1.979              4.993
 Vibration     3          0.604              1.949              3.449
 Vibration     4          0.605              1.945              3.351
 Vibration     5          0.630              1.865              2.313
 Vibration     6          0.639              1.836              2.107
 Vibration     7          0.691              1.677              1.427
 Vibration     8          0.732              1.561              1.135
 Vibration     9          0.826              1.318              0.739
 Vibration    10          0.932              1.085              0.494
 Vibration    11          0.956              1.035              0.452

 Optimization completed.
    -- Stationary point found.
 Normal termination of Gaussian 09 at Mon Jan 27 14:52:30 2020.
