 Gaussian 09, Revision D.01,
 Gaussian 09:  ES64L-G09RevD.01 24-Apr-2013

 -----------------------------
 # b3lyp 6-31G(2df,p) opt Freq
 -----------------------------

 -----
 titel
 -----
 Symbolic Z-matrix:
 Charge =  0 Multiplicity = 1

 SCF Done:  E(RB3LYP) =  -423.228572640     A.U. after   14 cycles
 Optimization completed.
    -- Stationary point found.
 Normal termination of Gaussian 09 at Mon Jan 27 13:06:29 2020.

 ----------------------------------------------------------------------
 #N Geom=AllCheck Guess=TCheck SCRF=Check GenChk RB3LYP/6-31G(2df,p) Fr
 eq
 ----------------------------------------------------------------------

 Structure from the checkpoint file:  "/scratch/puck/g09_01699495-00b6-44bb-9734-ce5e0e937ce1/Gau-157843.chk"
 -----
 titel
 -----
 Charge =  0 Multiplicity = 1

                         Standard orientation:
 ---------------------------------------------------------------------
 Center     Atomic      Atomic             Coordinates (Angstroms)
 Number     Number       Type             X           Y           Z
 ---------------------------------------------------------------------
      1          8           0        0.699605    2.094798   -0.012226
      2          6           0        0.803045    0.900815   -0.010848
      3          8           0        2.003108    0.273447    0.129351
      4          6           0        1.826451   -1.154354    0.142649
      5          6           0        0.453250   -1.404655   -0.497059
      6          6           0       -0.309017   -0.130477   -0.129679
      7          6           0       -1.246067   -0.218271    1.128085
      8          6           0       -2.471871   -0.244380    0.178247
      9          6           0       -1.554206    0.263195   -0.964904
     10          1           0        2.658619   -1.598701   -0.407012
     11          1           0        1.867849   -1.501284    1.181993
     12          1           0        0.554856   -1.480970   -1.585400
     13          1           0       -0.013806   -2.323976   -0.135715
     14          1           0       -1.091543   -1.074531    1.789819
     15          1           0       -1.200994    0.700395    1.717645
     16          1           0       -2.834887   -1.260087   -0.000321
     17          1           0       -3.322281    0.383180    0.451579
     18          1           0       -1.652031   -0.210096   -1.945311
     19          1           0       -1.596996    1.348863   -1.083228
 ---------------------------------------------------------------------

 SCF Done:  E(RB3LYP) =  -423.228572640     A.U. after    1 cycles

 The electronic state is 1-A.
 Alpha  occ. eigenvalues --  -19.17826 -19.11888 -10.29523 -10.24957 -10.20859
 Alpha  occ. eigenvalues --  -10.20255 -10.19520 -10.18955 -10.18824  -1.09562
 Alpha  occ. eigenvalues --   -1.01654  -0.86173  -0.77470  -0.70998  -0.67048
 Alpha  occ. eigenvalues --   -0.63080  -0.57851  -0.53752  -0.51208  -0.49644
 Alpha  occ. eigenvalues --   -0.47552  -0.45916  -0.42341  -0.42152  -0.40880
 Alpha  occ. eigenvalues --   -0.39747  -0.38609  -0.35832  -0.34333  -0.32921
 Alpha  occ. eigenvalues --   -0.31627  -0.30925  -0.29170  -0.26017
 Alpha virt. eigenvalues --    0.01089   0.06961   0.09354   0.09861   0.11014
 Alpha virt. eigenvalues --    0.11996   0.13262   0.15476   0.15881   0.17330
 Alpha virt. eigenvalues --    0.18294   0.18993   0.19608   0.20491   0.20981

 Mulliken charges:
               1
     1  O   -0.357753
     2  C    0.407724
     3  O   -0.225436
     4  C   -0.086959
     5  C   -0.315680
     6  C    0.194823
     7  C   -0.266353
     8  C   -0.212235
     9  C   -0.279123
    10  H    0.125970
    11  H    0.117261
    12  H    0.116633
    13  H    0.112464
    14  H    0.100407
    15  H    0.126708
    16  H    0.103814
    17  H    0.107536
    18  H    0.098812
    19  H    0.131387
 Sum of Mulliken charges =   0.00000

 Dipole moment (field-independent basis, Debye):
    X=             -1.2185    Y=             -3.9942    Z=             -0.0713  Tot=              4.1765
 Quadrupole moment (field-independent basis, Debye-Ang):
   XX=            -53.8737   YY=            -57.7370   ZZ=            -51.4636
   XY=             -5.0995   XZ=             -0.5192   YZ=              0.0387

  Exact polarizability:  82.039  -4.604  76.631   0.030  -0.604  65.042
 Approx polarizability: 108.524  -5.661 119.948   0.023  -1.487  97.214

                      1                      2                      3
                      A                      A                      A
 Frequencies --     89.9135               106.3264               197.2158
 Red. masses --      3.6263                 2.2142                 2.7305
 Frc consts  --      0.0173                 0.0147                 0.0626
 IR Inten    --      0.5598                 0.9941                 0.9069

                      4                      5                      6
                      A                      A                      A
 Frequencies --    204.1939               283.3265               346.8039
 Red. masses --      2.9921                 2.8314                 2.0907
 Frc consts  --      0.0735                 0.1339                 0.1482
 IR Inten    --      3.2578                 5.5572                 0.9453

                      7                      8                      9
                      A                      A                      A
 Frequencies --    413.2864               568.3645               642.5433
 Red. masses --      3.7037                 5.6841                 2.5281
 Frc consts  --      0.3727                 1.0819                 0.6150
 IR Inten    --      1.5369                 3.1661                 0.2059

                     10                     11                     12
                      A                      A                      A
 Frequencies --    689.2730               715.8183               727.8325
 Red. masses --      2.7188                 2.3343                 3.4428
 Frc consts  --      0.7610                 0.7047                 1.0745
 IR Inten    --      2.1617                 2.4101                 3.4127

                     13                     14                     15
                      A                      A                      A
 Frequencies --    808.8182               830.6041               871.3445
 Red. masses --      1.5408                 1.9296                 2.1799
 Frc consts  --      0.5939                 0.7843                 0.9751
 IR Inten    --      1.8927                 2.1244                 1.7559

                     16                     17                     18
                      A                      A                      A
 Frequencies --    923.5947               943.7257               948.0049
 Red. masses --      2.2612                 2.2438                 2.3345
 Frc consts  --      1.1365                 1.1774                 1.2361
 IR Inten    --      6.7334                 4.3562                 1.1069

                     19                     20                     21
                      A                      A                      A
 Frequencies --    970.5005               984.0092              1053.8917
 Red. masses --      2.5648                 2.1284                 3.2421
 Frc consts  --      1.4233                 1.2142                 2.1216
 IR Inten    --      1.8617                 0.4712                57.7304

                     22                     23                     24
                      A                      A                      A
 Frequencies --   1062.9674              1081.9803              1147.8978
 Red. masses --      1.5369                 2.9954                 2.1650
 Frc consts  --      1.0231                 2.0661                 1.6808
 IR Inten    --     21.1287                87.4782                 2.4940

                     25                     26                     27
                      A                      A                      A
 Frequencies --   1183.1905              1202.2604              1213.2981
 Red. masses --      2.4536                 2.0048                 1.3495
 Frc consts  --      2.0238                 1.7074                 1.1705
 IR Inten    --     84.2917                38.9930                12.2683

                     28                     29                     30
                      A                      A                      A
 Frequencies --   1237.5703              1253.0179              1262.7727
 Red. masses --      1.2207                 1.4368                 1.2762
 Frc consts  --      1.1016                 1.3291                 1.1990
 IR Inten    --     21.5722                 2.6534                 0.2986

                     31                     32                     33
                      A                      A                      A
 Frequencies --   1277.1465              1287.3949              1305.8673
 Red. masses --      1.3656                 1.8583                 1.6519
 Frc consts  --      1.3124                 1.8146                 1.6597
 IR Inten    --      0.7870                 6.3363                12.8821

                     34                     35                     36
                      A                      A                      A
 Frequencies --   1337.6310              1399.3278              1470.0015
 Red. masses --      1.5377                 1.4859                 1.0846
 Frc consts  --      1.6211                 1.7143                 1.3809
 IR Inten    --      3.3167                32.5534                 3.2232

                     37                     38                     39
                      A                      A                      A
 Frequencies --   1480.9413              1492.0955              1503.2009
 Red. masses --      1.0868                 1.0957                 1.1239
 Frc consts  --      1.4043                 1.4373                 1.4962
 IR Inten    --      3.6863                 1.5841                 0.4087

                     40                     41                     42
                      A                      A                      A
 Frequencies --   1523.9600              1870.5443              3036.2333
 Red. masses --      1.0901                12.7467                 1.0680
 Frc consts  --      1.4917                26.2776                 5.8010
 IR Inten    --      1.4698               286.6101                34.5323

                     43                     44                     45
                      A                      A                      A
 Frequencies --   3045.8691              3057.6923              3059.3509
 Red. masses --      1.0627                 1.0571                 1.0581
 Frc consts  --      5.8085                 5.8230                 5.8351
 IR Inten    --     18.5327                60.0887                 8.9650

                     46                     47                     48
                      A                      A                      A
 Frequencies --   3066.6524              3101.8397              3105.7729
 Red. masses --      1.0620                 1.0976                 1.1069
 Frc consts  --      5.8847                 6.2218                 6.2906
 IR Inten    --     29.3535                15.3034                 5.4191

                     49                     50                     51
                      A                      A                      A
 Frequencies --   3113.0823              3117.6916              3128.7695
 Red. masses --      1.1033                 1.1079                 1.1073
 Frc consts  --      6.2998                 6.3450                 6.3865
 IR Inten    --     28.2796                 9.9422                41.5116

 - Thermochemistry -
 -------------------
 Temperature   298.150 Kelvin.  Pressure   1.00000 Atm.
 Atom     1 has atomic number  8 and mass  15.99491

 Molecular mass:   126.06808 amu.
 Principal axes and moments of inertia in atomic units:
                           1         2         3
     Eigenvalues --   665.096361173.021351509.31580
           X            0.99892  -0.04641  -0.00134
           Y            0.04640   0.99892  -0.00052
           Z            0.00136   0.00046   1.00000
 This molecule is an asymmetric top.
 Rotational symmetry number  1.
 Warning -- assumption of classical behavior for rotation
           may cause significant error
 Rotational temperatures (Kelvin)      0.13023     0.07384     0.05739
 Rotational constants (GHZ):           2.71350     1.53854     1.19573
 Zero-point vibrational energy     423151.5 (Joules/Mol)
                                  101.13564 (Kcal/Mol)
 Warning -- explicit consideration of   8 degrees of freedom as
           vibrations may cause significant error
 Vibrational temperatures:    129.37   152.98   283.75   293.79   407.64
          (Kelvin)            498.97   594.63   817.75   924.48   991.71
                             1029.90  1047.19  1163.71  1195.05  1253.67
                             1328.85  1357.81  1363.97  1396.33  1415.77
                             1516.31  1529.37  1556.73  1651.57  1702.35
                             1729.78  1745.66  1780.59  1802.81  1816.85
                             1837.53  1852.27  1878.85  1924.55  2013.32
                             2115.00  2130.74  2146.79  2162.77  2192.64
                             2691.29  4368.46  4382.32  4399.33  4401.72
                             4412.22  4462.85  4468.51  4479.03  4485.66
                             4501.60

 Zero-point correction=                           0.161170 (Hartree/Particle)
 Thermal correction to Energy=                    0.169046
 Thermal correction to Enthalpy=                  0.169990
 Thermal correction to Gibbs Free Energy=         0.128472
 Sum of electronic and zero-point Energies=           -423.067403
 Sum of electronic and thermal Energies=              -423.059527
 Sum of electronic and thermal Enthalpies=            -423.058583
 Sum of electronic and thermal Free Energies=         -423.100101

                     E (Thermal)             CV                S
                      KCal/Mol        Cal/Mol-Kelvin    Cal/Mol-Kelvin
 Total                  106.078             30.079             87.382
 Electronic               0.000              0.000              0.000
 Translational            0.889              2.981             40.409
 Rotational               0.889              2.981             28.556
 Vibrational            104.300             24.118             18.417
 Vibration     1          0.602              1.956              3.662
 Vibration     2          0.605              1.944              3.335
 Vibration     3          0.637              1.844              2.159
 Vibration     4          0.640              1.834              2.095
 Vibration     5          0.682              1.705              1.514
 Vibration     6          0.725              1.582              1.181
 Vibration     7          0.777              1.441              0.915
 Vibration     8          0.924              1.100              0.507

 Optimization completed.
    -- Stationary point found.
 Normal termination of Gaussian 09 at Mon Jan 27 13:54:25 2020.
