 Gaussian 09, Revision D.01,
 Gaussian 09:  ES64L-G09RevD.01 24-Apr-2013

 -----------------------------
 # b3lyp 6-31G(2df,p) opt Freq
 -----------------------------

 -----
 titel
 -----
 Symbolic Z-matrix:
 Charge =  0 Multiplicity = 1

 SCF Done:  E(RB3LYP) =  -423.188911959     A.U. after   14 cycles
 Optimization completed.
    -- Stationary point found.
 Normal termination of Gaussian 09 at Tue Jan 28 02:28:35 2020.

 ----------------------------------------------------------------------
 #N Geom=AllCheck Guess=TCheck SCRF=Check GenChk RB3LYP/6-31G(2df,p) Fr
 eq
 ----------------------------------------------------------------------

 Structure from the checkpoint file:  "/scratch/puck/g09_7f696cbb-ecb7-4575-936b-9b6a3538b384/Gau-76455.chk"
 -----
 titel
 -----
 Charge =  0 Multiplicity = 1

                         Standard orientation:
 ---------------------------------------------------------------------
 Center     Atomic      Atomic             Coordinates (Angstroms)
 Number     Number       Type             X           Y           Z
 ---------------------------------------------------------------------
      1          6           0       -2.544425   -0.495548   -0.284583
      2          6           0       -1.087728   -0.148220   -0.095128
      3          6           0       -0.071339   -1.053736   -0.764983
      4          6           0        1.384297   -0.697187   -0.405327
      5          8           0        1.722433   -1.157146    0.900707
      6          6           0        1.639726    0.789500   -0.539597
      7          6           0        0.687083    1.684469   -0.269719
      8          6           0       -0.666040    1.248427    0.149987
      9          8           0       -0.733232    0.276172    1.234331
     10          1           0       -2.806755   -0.500723   -1.347721
     11          1           0       -2.755758   -1.491984    0.118358
     12          1           0       -3.185200    0.224278    0.230828
     13          1           0       -0.246947   -2.095115   -0.472725
     14          1           0       -0.214185   -0.989214   -1.851294
     15          1           0        2.052142   -1.243913   -1.078794
     16          1           0        1.110500   -0.698885    1.494410
     17          1           0        2.641803    1.108874   -0.809006
     18          1           0        0.874214    2.751972   -0.336052
     19          1           0       -1.432855    2.016265    0.227792
 ---------------------------------------------------------------------

 SCF Done:  E(RB3LYP) =  -423.188911959     A.U. after    1 cycles

 The electronic state is 1-A.
 Alpha  occ. eigenvalues --  -19.15655 -19.11923 -10.24820 -10.24168 -10.23340
 Alpha  occ. eigenvalues --  -10.19125 -10.18812 -10.18765 -10.18692  -1.07186
 Alpha  occ. eigenvalues --   -1.00318  -0.80856  -0.77229  -0.72577  -0.67860
 Alpha  occ. eigenvalues --   -0.62718  -0.58692  -0.52318  -0.52144  -0.47280
 Alpha  occ. eigenvalues --   -0.46256  -0.44978  -0.43744  -0.42211  -0.40028
 Alpha  occ. eigenvalues --   -0.39694  -0.38824  -0.36901  -0.34907  -0.32633
 Alpha  occ. eigenvalues --   -0.31101  -0.27183  -0.26535  -0.24492
 Alpha virt. eigenvalues --   -0.01013   0.08569   0.10223   0.11146   0.12026
 Alpha virt. eigenvalues --    0.13426   0.15136   0.15704   0.16606   0.16924
 Alpha virt. eigenvalues --    0.17510   0.18549   0.18897   0.20821   0.23698

 Mulliken charges:
               1
     1  C   -0.471358
     2  C    0.389553
     3  C   -0.306291
     4  C    0.068936
     5  O   -0.438850
     6  C   -0.112336
     7  C   -0.036201
     8  C   -0.057305
     9  O   -0.302386
    10  H    0.124846
    11  H    0.130393
    12  H    0.128714
    13  H    0.114371
    14  H    0.106292
    15  H    0.084393
    16  H    0.287078
    17  H    0.102045
    18  H    0.097040
    19  H    0.091067
 Sum of Mulliken charges =   0.00000

 Dipole moment (field-independent basis, Debye):
    X=             -1.5439    Y=              1.1694    Z=             -2.1412  Tot=              2.8872
 Quadrupole moment (field-independent basis, Debye-Ang):
   XX=            -53.1605   YY=            -51.4178   ZZ=            -54.9689
   XY=              2.6418   XZ=             -1.5895   YZ=              1.5315

  Exact polarizability:  86.943  -0.497  80.474  -3.647   1.822  60.247
 Approx polarizability: 119.964  -8.439 121.760  -6.821   1.496 100.869

                      1                      2                      3
                      A                      A                      A
 Frequencies --    154.3786               173.1288               206.7508
 Red. masses --      3.0666                 2.6326                 1.3357
 Frc consts  --      0.0431                 0.0465                 0.0336
 IR Inten    --      0.4955                 3.8615                 0.5170

                      4                      5                      6
                      A                      A                      A
 Frequencies --    291.0072               302.0565               362.4049
 Red. masses --      3.0771                 2.7551                 2.5583
 Frc consts  --      0.1535                 0.1481                 0.1980
 IR Inten    --      1.5034                 2.4028                 0.2517

                      7                      8                      9
                      A                      A                      A
 Frequencies --    395.9052               437.8251               474.2750
 Red. masses --      3.2301                 2.6195                 4.6453
 Frc consts  --      0.2983                 0.2959                 0.6156
 IR Inten    --      6.5536                 1.0202                 0.2420

                     10                     11                     12
                      A                      A                      A
 Frequencies --    562.0815               590.4384               628.2700
 Red. masses --      1.1198                 3.4891                 4.2499
 Frc consts  --      0.2084                 0.7167                 0.9884
 IR Inten    --     74.1235                 3.3321                10.6194

                     13                     14                     15
                      A                      A                      A
 Frequencies --    698.8738               758.1873               792.5449
 Red. masses --      3.7542                 2.4170                 3.1806
 Frc consts  --      1.0804                 0.8186                 1.1771
 IR Inten    --      9.0114                17.1261                 1.4814

                     16                     17                     18
                      A                      A                      A
 Frequencies --    828.2751               867.8942               903.0762
 Red. masses --      2.8660                 3.3530                 2.2663
 Frc consts  --      1.1584                 1.4881                 1.0890
 IR Inten    --     18.0238                39.4951                 1.5564

                     19                     20                     21
                      A                      A                      A
 Frequencies --    953.6795               966.7462               988.2109
 Red. masses --      1.9013                 3.8556                 1.2959
 Frc consts  --      1.0188                 2.1231                 0.7456
 IR Inten    --     13.1994                 2.1500                 2.1301

                     22                     23                     24
                      A                      A                      A
 Frequencies --   1025.4984              1044.4411              1072.0126
 Red. masses --      1.8021                 1.5650                 2.1313
 Frc consts  --      1.1166                 1.0058                 1.4431
 IR Inten    --      8.7002                 9.9543                37.2900

                     25                     26                     27
                      A                      A                      A
 Frequencies --   1097.7884              1119.7116              1181.1945
 Red. masses --      2.2256                 1.9271                 1.1372
 Frc consts  --      1.5803                 1.4235                 0.9348
 IR Inten    --     46.9092                33.6437                 1.2689

                     28                     29                     30
                      A                      A                      A
 Frequencies --   1231.8678              1238.2826              1286.1133
 Red. masses --      1.7146                 1.1933                 1.5814
 Frc consts  --      1.5330                 1.0781                 1.5412
 IR Inten    --      6.1369                 8.4271                 9.1135

                     31                     32                     33
                      A                      A                      A
 Frequencies --   1328.6411              1337.9930              1386.4601
 Red. masses --      1.3580                 1.7010                 1.5985
 Frc consts  --      1.4124                 1.7942                 1.8105
 IR Inten    --      4.8621                11.0785                 2.8670

                     34                     35                     36
                      A                      A                      A
 Frequencies --   1411.9063              1414.0236              1445.8448
 Red. masses --      1.4690                 1.3365                 1.8733
 Frc consts  --      1.7254                 1.5745                 2.3072
 IR Inten    --      4.0099                 0.7794                20.3880

                     37                     38                     39
                      A                      A                      A
 Frequencies --   1453.3264              1470.8773              1487.2329
 Red. masses --      1.2115                 1.2203                 1.0999
 Frc consts  --      1.5076                 1.5555                 1.4333
 IR Inten    --     65.0104                18.0861                 4.5489

                     40                     41                     42
                      A                      A                      A
 Frequencies --   1499.3032              1700.8817              3027.0944
 Red. masses --      1.2181                 6.3750                 1.0596
 Frc consts  --      1.6132                10.8662                 5.7205
 IR Inten    --      1.6383                 0.6623                 8.5407

                     43                     44                     45
                      A                      A                      A
 Frequencies --   3036.6572              3058.7308              3075.4344
 Red. masses --      1.0379                 1.0847                 1.1013
 Frc consts  --      5.6391                 5.9793                 6.1370
 IR Inten    --     27.3174                42.5441                12.1519

                     46                     47                     48
                      A                      A                      A
 Frequencies --   3100.9880              3122.5012              3134.0431
 Red. masses --      1.1006                 1.1015                 1.0882
 Frc consts  --      6.2354                 6.3273                 6.2978
 IR Inten    --     18.1878                12.0338                27.6630

                     49                     50                     51
                      A                      A                      A
 Frequencies --   3165.8928              3187.7451              3737.9656
 Red. masses --      1.0851                 1.0988                 1.0653
 Frc consts  --      6.4077                 6.5786                 8.7696
 IR Inten    --      9.2671                24.1445                47.5774

 - Thermochemistry -
 -------------------
 Temperature   298.150 Kelvin.  Pressure   1.00000 Atm.
 Atom     1 has atomic number  6 and mass  12.00000

 Molecular mass:   126.06808 amu.
 Principal axes and moments of inertia in atomic units:
                           1         2         3
     Eigenvalues --   677.821211132.993691370.21825
           X            0.99934   0.03632   0.00106
           Y           -0.03633   0.99873   0.03482
           Z            0.00020  -0.03483   0.99939
 This molecule is an asymmetric top.
 Rotational symmetry number  1.
 Warning -- assumption of classical behavior for rotation
           may cause significant error
 Rotational temperatures (Kelvin)      0.12778     0.07645     0.06321
 Rotational constants (GHZ):           2.66256     1.59290     1.31712
 Zero-point vibrational energy     419987.7 (Joules/Mol)
                                  100.37947 (Kcal/Mol)
 Warning -- explicit consideration of  11 degrees of freedom as
           vibrations may cause significant error
 Vibrational temperatures:    222.12   249.09   297.47   418.69   434.59
          (Kelvin)            521.42   569.62   629.93   682.38   808.71
                              849.51   903.94  1005.52  1090.86  1140.29
                             1191.70  1248.70  1299.32  1372.13  1390.93
                             1421.81  1475.46  1502.72  1542.39  1579.47
                             1611.01  1699.47  1772.38  1781.61  1850.43
                             1911.62  1925.07  1994.80  2031.42  2034.46
                             2080.25  2091.01  2116.26  2139.79  2157.16
                             2447.19  4355.31  4369.07  4400.83  4424.86
                             4461.62  4492.58  4509.18  4555.01  4586.45
                             5378.09

 Zero-point correction=                           0.159965 (Hartree/Particle)
 Thermal correction to Energy=                    0.167974
 Thermal correction to Enthalpy=                  0.168918
 Thermal correction to Gibbs Free Energy=         0.128013
 Sum of electronic and zero-point Energies=           -423.028947
 Sum of electronic and thermal Energies=              -423.020938
 Sum of electronic and thermal Enthalpies=            -423.019994
 Sum of electronic and thermal Free Energies=         -423.060899

                     E (Thermal)             CV                S
                      KCal/Mol        Cal/Mol-Kelvin    Cal/Mol-Kelvin
 Total                  105.405             32.187             86.091
 Electronic               0.000              0.000              0.000
 Translational            0.889              2.981             40.409
 Rotational               0.889              2.981             28.444
 Vibrational            103.628             26.225             17.238
 Vibration     1          0.620              1.898              2.618
 Vibration     2          0.627              1.876              2.401
 Vibration     3          0.641              1.830              2.072
 Vibration     4          0.687              1.690              1.468
 Vibration     5          0.694              1.670              1.405
 Vibration     6          0.736              1.550              1.112
 Vibration     7          0.763              1.479              0.978
 Vibration     8          0.798              1.388              0.833
 Vibration     9          0.831              1.307              0.726
 Vibration    10          0.918              1.113              0.520
 Vibration    11          0.948              1.052              0.466

 Optimization completed.
    -- Stationary point found.
 Normal termination of Gaussian 09 at Tue Jan 28 03:13:10 2020.
