 Gaussian 09, Revision D.01,
 Gaussian 09:  ES64L-G09RevD.01 24-Apr-2013

 -----------------------------
 # b3lyp 6-31G(2df,p) opt Freq
 -----------------------------

 -----
 titel
 -----
 Symbolic Z-matrix:
 Charge =  0 Multiplicity = 1

 SCF Done:  E(RB3LYP) =  -423.121706750     A.U. after   13 cycles
 Optimization completed.
    -- Stationary point found.
 Normal termination of Gaussian 09 at Tue Jan 28 14:08:05 2020.

 ----------------------------------------------------------------------
 #N Geom=AllCheck Guess=TCheck SCRF=Check GenChk RB3LYP/6-31G(2df,p) Fr
 eq
 ----------------------------------------------------------------------

 Structure from the checkpoint file:  "/scratch/puck/g09_d607dcf5-dc87-4107-8f7b-c49b91db2f08/Gau-10882.chk"
 -----
 titel
 -----
 Charge =  0 Multiplicity = 1

                         Standard orientation:
 ---------------------------------------------------------------------
 Center     Atomic      Atomic             Coordinates (Angstroms)
 Number     Number       Type             X           Y           Z
 ---------------------------------------------------------------------
      1          6           0        2.708728    0.231176   -0.276648
      2          8           0        1.609588   -0.655018   -0.296550
      3          6           0        0.655017   -0.383974    0.683692
      4          6           0       -0.675880   -1.150400    0.533512
      5          6           0       -1.258086   -1.018344   -0.898105
      6          6           0       -1.669450    0.436926   -0.579685
      7          8           0       -0.541729    1.342194   -0.648473
      8          6           0       -0.117568    0.970014    0.675772
      9          6           0       -1.429525    0.178073    0.937923
     10          1           0        3.226249    0.215869    0.695633
     11          1           0        3.404957   -0.101017   -1.050137
     12          1           0        2.401323    1.262886   -0.495352
     13          1           0        1.063677   -0.534928    1.699499
     14          1           0       -0.770005   -2.106024    1.047434
     15          1           0       -0.577098   -1.167181   -1.738135
     16          1           0       -2.143206   -1.651822   -1.015833
     17          1           0       -2.562496    0.864522   -1.039879
     18          1           0        0.265689    1.820143    1.243813
     19          1           0       -2.131376    0.319310    1.754363
 ---------------------------------------------------------------------

 SCF Done:  E(RB3LYP) =  -423.121706750     A.U. after    1 cycles

 The electronic state is 1-A.
 Alpha  occ. eigenvalues --  -19.13939 -19.13120 -10.23305 -10.23024 -10.22971
 Alpha  occ. eigenvalues --  -10.22115 -10.19261 -10.19015 -10.17818  -1.04980
 Alpha  occ. eigenvalues --   -1.02749  -0.84679  -0.74918  -0.69771  -0.65020
 Alpha  occ. eigenvalues --   -0.60564  -0.59361  -0.53466  -0.50421  -0.48678
 Alpha  occ. eigenvalues --   -0.46825  -0.46360  -0.43309  -0.42139  -0.40524
 Alpha  occ. eigenvalues --   -0.38796  -0.37533  -0.35732  -0.31815  -0.30823
 Alpha  occ. eigenvalues --   -0.28614  -0.28273  -0.25993  -0.22801
 Alpha virt. eigenvalues --    0.06730   0.09764   0.10153   0.11038   0.12837
 Alpha virt. eigenvalues --    0.14756   0.15165   0.15888   0.16025   0.16318
 Alpha virt. eigenvalues --    0.17423   0.18142   0.19112   0.20090   0.21529

 Mulliken charges:
               1
     1  C   -0.240957
     2  O   -0.239899
     3  C    0.162126
     4  C   -0.121595
     5  C   -0.233061
     6  C    0.106401
     7  O   -0.297634
     8  C    0.042764
     9  C   -0.101230
    10  H    0.099734
    11  H    0.127502
    12  H    0.123331
    13  H    0.059582
    14  H    0.070290
    15  H    0.119283
    16  H    0.097855
    17  H    0.076922
    18  H    0.073664
    19  H    0.074920
 Sum of Mulliken charges =   0.00000

 Dipole moment (field-independent basis, Debye):
    X=             -0.3839    Y=             -0.2728    Z=              1.5652  Tot=              1.6345
 Quadrupole moment (field-independent basis, Debye-Ang):
   XX=            -47.8723   YY=            -55.5014   ZZ=            -52.3999
   XY=              2.6250   XZ=              0.4277   YZ=              1.3483

  Exact polarizability:  84.631   2.586  69.095   2.210   1.472  69.662
 Approx polarizability: 110.575   3.075 104.902   2.229   0.484 105.872

                      1                      2                      3
                      A                      A                      A
 Frequencies --     71.4126               156.7106               187.0561
 Red. masses --      2.9726                 2.2071                 2.3035
 Frc consts  --      0.0089                 0.0319                 0.0475
 IR Inten    --      3.8774                 1.5231                 2.2494

                      4                      5                      6
                      A                      A                      A
 Frequencies --    234.5542               319.5434               404.4882
 Red. masses --      1.7623                 3.1688                 2.6351
 Frc consts  --      0.0571                 0.1906                 0.2540
 IR Inten    --      2.1129                 1.0018                 1.6556

                      7                      8                      9
                      A                      A                      A
 Frequencies --    495.6497               583.7607               670.1606
 Red. masses --      3.0444                 4.0718                 4.5240
 Frc consts  --      0.4407                 0.8175                 1.1971
 IR Inten    --      0.1289                 9.4236                 3.2843

                     10                     11                     12
                      A                      A                      A
 Frequencies --    717.4525               781.0196               827.8706
 Red. masses --      4.4039                 2.3130                 1.8520
 Frc consts  --      1.3356                 0.8313                 0.7478
 IR Inten    --      5.8590                 9.3853                 0.9313

                     13                     14                     15
                      A                      A                      A
 Frequencies --    840.0039               851.0204               883.4792
 Red. masses --      1.5528                 2.7275                 2.2339
 Frc consts  --      0.6455                 1.1638                 1.0273
 IR Inten    --      0.1514                 9.1434                11.3051

                     16                     17                     18
                      A                      A                      A
 Frequencies --    939.0812               970.4701               986.9512
 Red. masses --      2.2721                 2.5933                 2.8056
 Frc consts  --      1.1805                 1.4390                 1.6102
 IR Inten    --      1.2234                 1.4861                37.8417

                     19                     20                     21
                      A                      A                      A
 Frequencies --   1013.1095              1045.4489              1059.9275
 Red. masses --      3.8023                 3.0150                 2.7977
 Frc consts  --      2.2994                 1.9415                 1.8518
 IR Inten    --     16.0862                39.9908                15.8356

                     22                     23                     24
                      A                      A                      A
 Frequencies --   1085.5578              1116.9756              1132.4549
 Red. masses --      2.7022                 1.5700                 2.0678
 Frc consts  --      1.8762                 1.1541                 1.5624
 IR Inten    --     15.3414                14.0012                 6.3997

                     25                     26                     27
                      A                      A                      A
 Frequencies --   1144.6987              1165.6704              1182.4225
 Red. masses --      1.5439                 2.0640                 1.3182
 Frc consts  --      1.1919                 1.6524                 1.0859
 IR Inten    --      3.9804                80.3169                 2.6740

                     28                     29                     30
                      A                      A                      A
 Frequencies --   1185.6138              1189.6219              1241.4603
 Red. masses --      1.5372                 1.5428                 1.9150
 Frc consts  --      1.2731                 1.2864                 1.7389
 IR Inten    --      3.5009                20.9901                55.2202

                     31                     32                     33
                      A                      A                      A
 Frequencies --   1255.3202              1269.9780              1286.5438
 Red. masses --      1.9343                 1.8275                 1.2963
 Frc consts  --      1.7959                 1.7366                 1.2642
 IR Inten    --     25.4972                 2.7717                 1.3105

                     34                     35                     36
                      A                      A                      A
 Frequencies --   1299.3436              1330.4446              1353.8437
 Red. masses --      1.6023                 1.4627                 1.3758
 Frc consts  --      1.5939                 1.5254                 1.4857
 IR Inten    --      6.4906                 3.0192                 7.3717

                     37                     38                     39
                      A                      A                      A
 Frequencies --   1372.2004              1466.7980              1483.5966
 Red. masses --      1.4616                 1.1116                 1.1518
 Frc consts  --      1.6215                 1.4090                 1.4936
 IR Inten    --     44.6620                 3.9400                 2.0657

                     40                     41                     42
                      A                      A                      A
 Frequencies --   1490.9772              1506.7706              2939.0754
 Red. masses --      1.0680                 1.0516                 1.0820
 Frc consts  --      1.3989                 1.4066                 5.5066
 IR Inten    --      3.1734                 5.7317                54.0400

                     43                     44                     45
                      A                      A                      A
 Frequencies --   2978.7112              3039.6313              3053.2440
 Red. masses --      1.0421                 1.0967                 1.0616
 Frc consts  --      5.4475                 5.9699                 5.8307
 IR Inten    --     67.2228                40.6706                24.2385

                     46                     47                     48
                      A                      A                      A
 Frequencies --   3084.6641              3088.9071              3115.3602
 Red. masses --      1.0882                 1.0915                 1.0903
 Frc consts  --      6.1007                 6.1361                 6.2347
 IR Inten    --     81.4800                46.1340                32.5150

                     49                     50                     51
                      A                      A                      A
 Frequencies --   3117.7687              3125.4465              3160.4071
 Red. masses --      1.0975                 1.1037                 1.0946
 Frc consts  --      6.2856                 6.3522                 6.4418
 IR Inten    --     30.2534                16.2572                28.3968

 - Thermochemistry -
 -------------------
 Temperature   298.150 Kelvin.  Pressure   1.00000 Atm.
 Atom     1 has atomic number  6 and mass  12.00000

 Molecular mass:   126.06808 amu.
 Principal axes and moments of inertia in atomic units:
                           1         2         3
     Eigenvalues --   565.647051183.598961296.69893
           X            0.99936   0.03519   0.00657
           Y           -0.03556   0.99706   0.06784
           Z           -0.00416  -0.06803   0.99767
 This molecule is an asymmetric top.
 Rotational symmetry number  1.
 Warning -- assumption of classical behavior for rotation
           may cause significant error
 Rotational temperatures (Kelvin)      0.15312     0.07318     0.06680
 Rotational constants (GHZ):           3.19058     1.52479     1.39180
 Zero-point vibrational energy     420503.4 (Joules/Mol)
                                  100.50272 (Kcal/Mol)
 Warning -- explicit consideration of   8 degrees of freedom as
           vibrations may cause significant error
 Vibrational temperatures:    102.75   225.47   269.13   337.47   459.75
          (Kelvin)            581.97   713.13   839.90   964.21  1032.25
                             1123.71  1191.12  1208.58  1224.43  1271.13
                             1351.13  1396.29  1420.00  1457.64  1504.17
                             1525.00  1561.87  1607.08  1629.35  1646.96
                             1677.14  1701.24  1705.83  1711.60  1786.18
                             1806.12  1827.21  1851.05  1869.46  1914.21
                             1947.88  1974.29  2110.39  2134.56  2145.18
                             2167.90  4228.67  4285.70  4373.35  4392.93
                             4438.14  4444.24  4482.30  4485.77  4496.81
                             4547.12

 Zero-point correction=                           0.160161 (Hartree/Particle)
 Thermal correction to Energy=                    0.167678
 Thermal correction to Enthalpy=                  0.168622
 Thermal correction to Gibbs Free Energy=         0.127927
 Sum of electronic and zero-point Energies=           -422.961545
 Sum of electronic and thermal Energies=              -422.954029
 Sum of electronic and thermal Enthalpies=            -422.953085
 Sum of electronic and thermal Free Energies=         -422.993780

                     E (Thermal)             CV                S
                      KCal/Mol        Cal/Mol-Kelvin    Cal/Mol-Kelvin
 Total                  105.219             29.239             85.650
 Electronic               0.000              0.000              0.000
 Translational            0.889              2.981             40.409
 Rotational               0.889              2.981             28.253
 Vibrational            103.442             23.277             16.989
 Vibration     1          0.598              1.968              4.114
 Vibration     2          0.620              1.895              2.589
 Vibration     3          0.632              1.858              2.257
 Vibration     4          0.654              1.788              1.844
 Vibration     5          0.705              1.636              1.312
 Vibration     6          0.770              1.460              0.946
 Vibration     7          0.851              1.260              0.669
 Vibration     8          0.941              1.066              0.478

 Optimization completed.
    -- Stationary point found.
 Normal termination of Gaussian 09 at Tue Jan 28 14:58:03 2020.
 Normal termination of Gaussian 09 at Tue Jan 28 13:58:05 2020.
