 Gaussian 09, Revision D.01,
 Gaussian 09:  ES64L-G09RevD.01 24-Apr-2013

 -----------------------------
 # b3lyp 6-31G(2df,p) opt Freq
 -----------------------------

 -----
 titel
 -----
 Symbolic Z-matrix:
 Charge =  0 Multiplicity = 1

 SCF Done:  E(RB3LYP) =  -423.108340278     A.U. after   13 cycles
 Optimization completed.
    -- Stationary point found.
 Normal termination of Gaussian 09 at Tue Jan 28 08:11:24 2020.

 ----------------------------------------------------------------------
 #N Geom=AllCheck Guess=TCheck SCRF=Check GenChk RB3LYP/6-31G(2df,p) Fr
 eq
 ----------------------------------------------------------------------

 Structure from the checkpoint file:  "/scratch/puck/g09_bbdf36f3-89d5-4fe2-a568-d3341e8bfd22/Gau-8152.chk"
 -----
 titel
 -----
 Charge =  0 Multiplicity = 1

                         Standard orientation:
 ---------------------------------------------------------------------
 Center     Atomic      Atomic             Coordinates (Angstroms)
 Number     Number       Type             X           Y           Z
 ---------------------------------------------------------------------
      1          8           0       -1.960948    1.365769   -0.218298
      2          6           0       -1.206163    0.476325    0.585867
      3          6           0       -1.477391   -1.040344    0.245097
      4          8           0       -0.390515   -1.560476   -0.568998
      5          6           0        0.458875   -0.476067   -0.864635
      6          6           0        1.904282   -0.241280   -0.307302
      7          6           0        1.497626    1.283160   -0.249086
      8          6           0        0.278005    0.488685    0.304958
      9          6           0        1.303820   -0.381293    1.110328
     10          1           0       -1.658563    1.275408   -1.129134
     11          1           0       -1.488083    0.699531    1.617630
     12          1           0       -1.544499   -1.653479    1.150308
     13          1           0       -2.421592   -1.119017   -0.305513
     14          1           0        0.291159   -0.103515   -1.885933
     15          1           0        2.848262   -0.642231   -0.678331
     16          1           0        2.057534    1.895552    0.459925
     17          1           0        1.360558    1.797423   -1.204370
     18          1           0        1.830081    0.132740    1.918374
     19          1           0        0.982524   -1.379872    1.404056
 ---------------------------------------------------------------------

 SCF Done:  E(RB3LYP) =  -423.108340278     A.U. after    1 cycles

 The electronic state is 1-A.
 Alpha  occ. eigenvalues --  -19.14162 -19.14077 -10.24156 -10.23076 -10.22858
 Alpha  occ. eigenvalues --  -10.21014 -10.20352 -10.20270 -10.18942  -1.04336
 Alpha  occ. eigenvalues --   -1.01839  -0.90937  -0.74976  -0.68121  -0.67376
 Alpha  occ. eigenvalues --   -0.62658  -0.59894  -0.53828  -0.52216  -0.48780
 Alpha  occ. eigenvalues --   -0.47800  -0.46894  -0.42326  -0.41404  -0.39641
 Alpha  occ. eigenvalues --   -0.38296  -0.35449  -0.34290  -0.33204  -0.32874
 Alpha  occ. eigenvalues --   -0.31538  -0.28897  -0.25922  -0.25071
 Alpha virt. eigenvalues --    0.06162   0.08857   0.10419   0.11235   0.12006
 Alpha virt. eigenvalues --    0.13945   0.14479   0.15428   0.16125   0.16992
 Alpha virt. eigenvalues --    0.17549   0.17933   0.18230   0.20388   0.20785

 Mulliken charges:
               1
     1  O   -0.431200
     2  C   -0.048489
     3  C   -0.107948
     4  O   -0.294167
     5  C    0.126821
     6  C   -0.103387
     7  C   -0.319596
     8  C    0.299647
     9  C   -0.261626
    10  H    0.281672
    11  H    0.095485
    12  H    0.110104
    13  H    0.112044
    14  H    0.055884
    15  H    0.078248
    16  H    0.104918
    17  H    0.097155
    18  H    0.089652
    19  H    0.114784
 Sum of Mulliken charges =   0.00000

 Dipole moment (field-independent basis, Debye):
    X=              0.9323    Y=              0.4688    Z=              0.0932  Tot=              1.0477
 Quadrupole moment (field-independent basis, Debye-Ang):
   XX=            -54.3063   YY=            -58.3452   ZZ=            -49.9416
   XY=              3.1215   XZ=              0.2099   YZ=             -2.8927

  Exact polarizability:  83.619   4.195  69.800  -0.551  -3.743  71.175
 Approx polarizability: 115.930   2.652 106.897  -1.284  -3.518 111.237

                      1                      2                      3
                      A                      A                      A
 Frequencies --    111.6785               180.1309               280.6119
 Red. masses --      3.0216                 3.4390                 1.1078
 Frc consts  --      0.0222                 0.0657                 0.0514
 IR Inten    --      4.4048                 0.6724                73.1717

                      4                      5                      6
                      A                      A                      A
 Frequencies --    314.3543               350.5842               439.0045
 Red. masses --      3.7051                 3.4400                 4.1997
 Frc consts  --      0.2157                 0.2491                 0.4769
 IR Inten    --      8.1074                 5.0788                 7.8618

                      7                      8                      9
                      A                      A                      A
 Frequencies --    461.7718               519.9555               598.5076
 Red. masses --      2.8296                 2.0659                 3.3711
 Frc consts  --      0.3555                 0.3291                 0.7115
 IR Inten    --      2.9808                 0.9773                 1.7012

                     10                     11                     12
                      A                      A                      A
 Frequencies --    711.6105               763.4196               794.3205
 Red. masses --      5.5997                 3.3446                 2.6631
 Frc consts  --      1.6707                 1.1485                 0.9900
 IR Inten    --      9.8727                11.9315                 5.5330

                     13                     14                     15
                      A                      A                      A
 Frequencies --    827.3341               854.7408               903.1957
 Red. masses --      2.7536                 2.9093                 3.5203
 Frc consts  --      1.1105                 1.2523                 1.6920
 IR Inten    --      0.7621                 1.6204                 3.9550

                     16                     17                     18
                      A                      A                      A
 Frequencies --    912.8934               937.6902               964.7567
 Red. masses --      2.3060                 2.3833                 2.6977
 Frc consts  --      1.1323                 1.2346                 1.4794
 IR Inten    --     11.4778                22.8258                21.6968

                     19                     20                     21
                      A                      A                      A
 Frequencies --    989.9542               998.2716              1018.0890
 Red. masses --      1.7313                 1.6998                 1.6434
 Frc consts  --      0.9997                 0.9981                 1.0036
 IR Inten    --      7.9607                 1.0969                13.7509

                     22                     23                     24
                      A                      A                      A
 Frequencies --   1061.1764              1082.6273              1097.5833
 Red. masses --      1.8973                 1.5949                 2.6760
 Frc consts  --      1.2588                 1.1014                 1.8994
 IR Inten    --      8.6129                 9.1680                66.5912

                     25                     26                     27
                      A                      A                      A
 Frequencies --   1101.8741              1135.6037              1139.5479
 Red. masses --      2.6646                 1.4394                 1.5759
 Frc consts  --      1.9061                 1.0936                 1.2057
 IR Inten    --    103.7549                 6.3376                 6.3282

                     28                     29                     30
                      A                      A                      A
 Frequencies --   1173.5659              1201.4459              1210.1232
 Red. masses --      1.5900                 1.3530                 1.3523
 Frc consts  --      1.2902                 1.1507                 1.1668
 IR Inten    --      4.9001                 3.6246                16.9324

                     31                     32                     33
                      A                      A                      A
 Frequencies --   1216.0387              1239.4395              1259.9336
 Red. masses --      1.6142                 1.6155                 1.6409
 Frc consts  --      1.4063                 1.4622                 1.5347
 IR Inten    --      1.8561                12.5383                 5.7702

                     34                     35                     36
                      A                      A                      A
 Frequencies --   1291.0898              1312.4484              1353.8910
 Red. masses --      1.4770                 2.9010                 1.3409
 Frc consts  --      1.4506                 2.9441                 1.4481
 IR Inten    --      6.6560                 3.6371                 2.3480

                     37                     38                     39
                      A                      A                      A
 Frequencies --   1388.1722              1432.7082              1491.3620
 Red. masses --      1.2216                 1.2949                 1.0938
 Frc consts  --      1.3870                 1.5661                 1.4334
 IR Inten    --     12.3848                64.7597                 1.1873

                     40                     41                     42
                      A                      A                      A
 Frequencies --   1505.7549              1530.6386              2990.6391
 Red. masses --      1.0876                 1.1705                 1.0832
 Frc consts  --      1.4529                 1.6157                 5.7080
 IR Inten    --      1.8356                 2.2194                70.2222

                     43                     44                     45
                      A                      A                      A
 Frequencies --   3032.9589              3059.2243              3068.7143
 Red. masses --      1.0570                 1.0554                 1.0581
 Frc consts  --      5.7288                 5.8196                 5.8707
 IR Inten    --     47.8362                43.3209                30.3593

                     46                     47                     48
                      A                      A                      A
 Frequencies --   3078.2415              3092.3284              3106.0990
 Red. masses --      1.1058                 1.0910                 1.0922
 Frc consts  --      6.1737                 6.1470                 6.2082
 IR Inten    --     19.8915                40.1961                62.8220

                     49                     50                     51
                      A                      A                      A
 Frequencies --   3129.9289              3148.3776              3797.9216
 Red. masses --      1.1101                 1.1069                 1.0658
 Frc consts  --      6.4075                 6.4643                 9.0573
 IR Inten    --     30.1034                21.5768                10.3352

 - Thermochemistry -
 -------------------
 Temperature   298.150 Kelvin.  Pressure   1.00000 Atm.
 Atom     1 has atomic number  8 and mass  15.99491

 Molecular mass:   126.06808 amu.
 Principal axes and moments of inertia in atomic units:
                           1         2         3
     Eigenvalues --   648.794171029.310781292.01608
           X            0.99869   0.05116  -0.00076
           Y           -0.05112   0.99709  -0.05659
           Z           -0.00214   0.05656   0.99840
 This molecule is an asymmetric top.
 Rotational symmetry number  1.
 Warning -- assumption of classical behavior for rotation
           may cause significant error
 Rotational temperatures (Kelvin)      0.13350     0.08415     0.06704
 Rotational constants (GHZ):           2.78169     1.75335     1.39684
 Zero-point vibrational energy     422654.6 (Joules/Mol)
                                  101.01688 (Kcal/Mol)
 Warning -- explicit consideration of   9 degrees of freedom as
           vibrations may cause significant error
 Vibrational temperatures:    160.68   259.17   403.74   452.29   504.41
          (Kelvin)            631.63   664.39   748.10   861.12  1023.85
                             1098.39  1142.85  1190.35  1229.78  1299.50
                             1313.45  1349.13  1388.07  1424.32  1436.29
                             1464.80  1526.79  1557.66  1579.18  1585.35
                             1633.88  1639.55  1688.50  1728.61  1741.10
                             1749.61  1783.27  1812.76  1857.59  1888.32
                             1947.94  1997.27  2061.34  2145.73  2166.44
                             2202.24  4302.86  4363.75  4401.54  4415.19
                             4428.90  4449.17  4468.98  4503.26  4529.81
                             5464.36

 Zero-point correction=                           0.160981 (Hartree/Particle)
 Thermal correction to Energy=                    0.168243
 Thermal correction to Enthalpy=                  0.169188
 Thermal correction to Gibbs Free Energy=         0.129499
 Sum of electronic and zero-point Energies=           -422.947360
 Sum of electronic and thermal Energies=              -422.940097
 Sum of electronic and thermal Enthalpies=            -422.939153
 Sum of electronic and thermal Free Energies=         -422.978841

                     E (Thermal)             CV                S
                      KCal/Mol        Cal/Mol-Kelvin    Cal/Mol-Kelvin
 Total                  105.574             29.663             83.531
 Electronic               0.000              0.000              0.000
 Translational            0.889              2.981             40.409
 Rotational               0.889              2.981             28.247
 Vibrational            103.797             23.701             14.876
 Vibration     1          0.607              1.940              3.240
 Vibration     2          0.629              1.867              2.327
 Vibration     3          0.680              1.709              1.530
 Vibration     4          0.702              1.646              1.339
 Vibration     5          0.727              1.574              1.164
 Vibration     6          0.799              1.385              0.830
 Vibration     7          0.819              1.335              0.761
 Vibration     8          0.875              1.206              0.610
 Vibration     9          0.957              1.035              0.452

 Normal termination of Gaussian 09 at Tue Jan 28 09:04:14 2020.
