 Gaussian 09, Revision D.01,
 Gaussian 09:  ES64L-G09RevD.01 24-Apr-2013

 -----------------------------
 # b3lyp 6-31G(2df,p) opt Freq
 -----------------------------

 -----
 titel
 -----
 Symbolic Z-matrix:
 Charge =  0 Multiplicity = 1

 SCF Done:  E(RB3LYP) =  -423.126113474     A.U. after   13 cycles
 Optimization completed.
    -- Stationary point found.
 Normal termination of Gaussian 09 at Mon Jan 27 17:26:43 2020.

 ----------------------------------------------------------------------
 #N Geom=AllCheck Guess=TCheck SCRF=Check GenChk RB3LYP/6-31G(2df,p) Fr
 eq
 ----------------------------------------------------------------------

 Structure from the checkpoint file:  "/scratch/puck/g09_78963881-d834-423d-a4ac-41a3ad256918/Gau-39782.chk"
 -----
 titel
 -----
 Charge =  0 Multiplicity = 1

                         Standard orientation:
 ---------------------------------------------------------------------
 Center     Atomic      Atomic             Coordinates (Angstroms)
 Number     Number       Type             X           Y           Z
 ---------------------------------------------------------------------
      1          6           0       -2.597557   -0.308571   -0.604724
      2          6           0       -1.207054   -0.081018   -0.109153
      3          8           0       -1.022989    0.337589    1.246706
      4          6           0       -0.328583   -0.835860    0.814724
      5          6           0        0.941594   -0.386457    0.023715
      6          6           0        1.896935   -1.468910   -0.399523
      7          8           0        1.577786    0.806105    0.525695
      8          6           0        0.765926    1.655402   -0.325824
      9          6           0        0.019161    0.439429   -0.912980
     10          1           0       -3.184826   -0.847195    0.143688
     11          1           0       -3.097954    0.644790   -0.809991
     12          1           0       -2.590128   -0.889612   -1.532626
     13          1           0       -0.490838   -1.743059    1.389934
     14          1           0        1.356524   -2.325447   -0.816780
     15          1           0        2.600860   -1.098123   -1.149654
     16          1           0        2.471888   -1.819020    0.465365
     17          1           0        0.163580    2.360035    0.253883
     18          1           0        1.388715    2.194909   -1.048845
     19          1           0        0.001270    0.289080   -1.991594
 ---------------------------------------------------------------------

 SCF Done:  E(RB3LYP) =  -423.126113474     A.U. after    1 cycles

 The electronic state is 1-A.
 Alpha  occ. eigenvalues --  -19.15190 -19.12598 -10.24604 -10.23984 -10.23134
 Alpha  occ. eigenvalues --  -10.22465 -10.19077 -10.19062 -10.18278  -1.08469
 Alpha  occ. eigenvalues --   -1.02490  -0.79369  -0.75359  -0.72878  -0.67670
 Alpha  occ. eigenvalues --   -0.61462  -0.57520  -0.53023  -0.49427  -0.48688
 Alpha  occ. eigenvalues --   -0.46111  -0.45334  -0.42627  -0.41907  -0.41059
 Alpha  occ. eigenvalues --   -0.39125  -0.38440  -0.37740  -0.34270  -0.33837
 Alpha  occ. eigenvalues --   -0.30473  -0.26603  -0.25783  -0.23759
 Alpha virt. eigenvalues --    0.06405   0.09286   0.10008   0.11008   0.12516
 Alpha virt. eigenvalues --    0.12975   0.13755   0.14604   0.14763   0.15609
 Alpha virt. eigenvalues --    0.16638   0.18560   0.19024   0.20747   0.21716

 Mulliken charges:
               1
     1  C   -0.504986
     2  C    0.410268
     3  O   -0.267597
     4  C   -0.115561
     5  C    0.448620
     6  C   -0.484584
     7  O   -0.322293
     8  C   -0.091102
     9  C   -0.234805
    10  H    0.136546
    11  H    0.132701
    12  H    0.124922
    13  H    0.095728
    14  H    0.119111
    15  H    0.127170
    16  H    0.133523
    17  H    0.114421
    18  H    0.096187
    19  H    0.081731
 Sum of Mulliken charges =   0.00000

 Dipole moment (field-independent basis, Debye):
    X=             -1.0058    Y=             -1.5371    Z=             -2.4080  Tot=              3.0287
 Quadrupole moment (field-independent basis, Debye-Ang):
   XX=            -53.7819   YY=            -50.3214   ZZ=            -54.3283
   XY=             -0.9598   XZ=             -0.0207   YZ=             -3.0392

  Exact polarizability:  82.227  -1.295  75.720   0.356  -4.484  66.733
 Approx polarizability: 109.308  -3.324 110.132   2.619  -4.890 107.190

                      1                      2                      3
                      A                      A                      A
 Frequencies --    141.6469               195.9216               207.2073
 Red. masses --      2.9328                 1.0518                 1.0497
 Frc consts  --      0.0347                 0.0238                 0.0266
 IR Inten    --      0.2878                 0.0467                 0.1923

                      4                      5                      6
                      A                      A                      A
 Frequencies --    243.3488               257.5759               293.4629
 Red. masses --      2.3525                 2.8849                 2.9741
 Frc consts  --      0.0821                 0.1128                 0.1509
 IR Inten    --      2.2538                 0.3790                 2.6509

                      7                      8                      9
                      A                      A                      A
 Frequencies --    326.0245               355.7741               504.6781
 Red. masses --      2.9526                 4.7240                 2.4898
 Frc consts  --      0.1849                 0.3523                 0.3736
 IR Inten    --      1.0166                 1.5887                 1.6734

                     10                     11                     12
                      A                      A                      A
 Frequencies --    566.8962               582.6989               676.1897
 Red. masses --      5.1445                 3.9413                 3.4521
 Frc consts  --      0.9741                 0.7885                 0.9300
 IR Inten    --     17.7563                 4.1528                 4.8667

                     13                     14                     15
                      A                      A                      A
 Frequencies --    747.5618               799.0612               833.1188
 Red. masses --      4.2541                 3.1600                 2.4350
 Frc consts  --      1.4007                 1.1888                 0.9958
 IR Inten    --      1.5499                 7.6038                 4.4282

                     16                     17                     18
                      A                      A                      A
 Frequencies --    881.1541               891.9189               917.9058
 Red. masses --      1.9134                 2.0287                 3.0731
 Frc consts  --      0.8753                 0.9508                 1.5255
 IR Inten    --      6.6105                21.2164                10.3211

                     19                     20                     21
                      A                      A                      A
 Frequencies --    962.3707               987.9236               999.0331
 Red. masses --      2.1173                 3.5976                 1.7994
 Frc consts  --      1.1554                 2.0688                 1.0581
 IR Inten    --      4.1161                43.6326                 5.8054

                     22                     23                     24
                      A                      A                      A
 Frequencies --   1011.5499              1058.8614              1087.9560
 Red. masses --      2.0661                 2.1756                 2.0417
 Frc consts  --      1.2456                 1.4372                 1.4239
 IR Inten    --     26.5799                 3.0623                 8.5723

                     25                     26                     27
                      A                      A                      A
 Frequencies --   1111.3692              1148.4025              1164.4471
 Red. masses --      1.9216                 2.1310                 1.4305
 Frc consts  --      1.3984                 1.6558                 1.1428
 IR Inten    --      5.0324                27.7887                14.7648

                     28                     29                     30
                      A                      A                      A
 Frequencies --   1170.2033              1206.8637              1220.9428
 Red. masses --      1.3778                 1.9918                 2.0883
 Frc consts  --      1.1116                 1.7093                 1.8341
 IR Inten    --      2.1271                24.3554                 9.0342

                     31                     32                     33
                      A                      A                      A
 Frequencies --   1284.8303              1324.3771              1349.4740
 Red. masses --      2.1935                 2.0546                 1.6149
 Frc consts  --      2.1335                 2.1232                 1.7327
 IR Inten    --     14.2832                 7.1549                 5.1391

                     34                     35                     36
                      A                      A                      A
 Frequencies --   1403.1074              1407.6635              1456.6095
 Red. masses --      1.2916                 1.3848                 3.2266
 Frc consts  --      1.4982                 1.6167                 4.0335
 IR Inten    --      2.0946                 9.4750                16.3844

                     37                     38                     39
                      A                      A                      A
 Frequencies --   1478.8957              1481.5085              1489.7341
 Red. masses --      1.0564                 1.0926                 1.0635
 Frc consts  --      1.3613                 1.4130                 1.3906
 IR Inten    --      3.6603                 5.6260                 4.2170

                     40                     41                     42
                      A                      A                      A
 Frequencies --   1492.1648              1505.3760              3028.1356
 Red. masses --      1.0967                 1.1470                 1.0591
 Frc consts  --      1.4387                 1.5314                 5.7221
 IR Inten    --      2.2243                 0.1300                76.2146

                     43                     44                     45
                      A                      A                      A
 Frequencies --   3031.4223              3032.9473              3092.6197
 Red. masses --      1.0366                 1.0366                 1.1049
 Frc consts  --      5.6124                 5.6179                 6.2264
 IR Inten    --     15.3745                18.6905                18.6176

                     46                     47                     48
                      A                      A                      A
 Frequencies --   3094.9492              3098.3934              3114.6709
 Red. masses --      1.0997                 1.1002                 1.1015
 Frc consts  --      6.2065                 6.2232                 6.2962
 IR Inten    --     18.0828                15.0929                17.0489

                     49                     50                     51
                      A                      A                      A
 Frequencies --   3121.2144              3125.5072              3156.0590
 Red. masses --      1.1007                 1.0901                 1.0938
 Frc consts  --      6.3178                 6.2744                 6.4193
 IR Inten    --      8.2276                26.9123                21.5466

 - Thermochemistry -
 -------------------
 Temperature   298.150 Kelvin.  Pressure   1.00000 Atm.
 Atom     1 has atomic number  6 and mass  12.00000

 Molecular mass:   126.06808 amu.
 Principal axes and moments of inertia in atomic units:
                           1         2         3
     Eigenvalues --   633.058871171.403521325.19973
           X            0.99977  -0.02063   0.00583
           Y            0.02082   0.99915  -0.03571
           Z           -0.00509   0.03583   0.99935
 This molecule is an asymmetric top.
 Rotational symmetry number  1.
 Warning -- assumption of classical behavior for rotation
           may cause significant error
 Rotational temperatures (Kelvin)      0.13682     0.07394     0.06536
 Rotational constants (GHZ):           2.85083     1.54067     1.36186
 Zero-point vibrational energy     413439.7 (Joules/Mol)
                                   98.81447 (Kcal/Mol)
 Warning -- explicit consideration of  11 degrees of freedom as
           vibrations may cause significant error
 Vibrational temperatures:    203.80   281.89   298.12   350.12   370.59
          (Kelvin)            422.23   469.08   511.88   726.12   815.64
                              838.37   972.88  1075.57  1149.67  1198.67
                             1267.78  1283.27  1320.66  1384.64  1421.40
                             1437.38  1455.39  1523.46  1565.32  1599.01
                             1652.29  1675.38  1683.66  1736.41  1756.66
                             1848.58  1905.48  1941.59  2018.76  2025.31
                             2095.73  2127.80  2131.56  2143.39  2146.89
                             2165.90  4356.81  4361.54  4363.73  4449.58
                             4452.94  4457.89  4481.31  4490.73  4496.90
                             4540.86

 Zero-point correction=                           0.157471 (Hartree/Particle)
 Thermal correction to Energy=                    0.165722
 Thermal correction to Enthalpy=                  0.166666
 Thermal correction to Gibbs Free Energy=         0.125245
 Sum of electronic and zero-point Energies=           -422.968643
 Sum of electronic and thermal Energies=              -422.960392
 Sum of electronic and thermal Enthalpies=            -422.959448
 Sum of electronic and thermal Free Energies=         -423.000869

                     E (Thermal)             CV                S
                      KCal/Mol        Cal/Mol-Kelvin    Cal/Mol-Kelvin
 Total                  103.992             32.358             87.178
 Electronic               0.000              0.000              0.000
 Translational            0.889              2.981             40.409
 Rotational               0.889              2.981             28.376
 Vibrational            102.214             26.397             18.393
 Vibration     1          0.615              1.912              2.782
 Vibration     2          0.636              1.846              2.171
 Vibration     3          0.641              1.830              2.068
 Vibration     4          0.659              1.774              1.778
 Vibration     5          0.667              1.750              1.678
 Vibration     6          0.688              1.686              1.454
 Vibration     7          0.710              1.623              1.280
 Vibration     8          0.731              1.563              1.141
 Vibration     9          0.860              1.240              0.647
 Vibration    10          0.923              1.103              0.510
 Vibration    11          0.940              1.069              0.480

 Normal termination of Gaussian 09 at Mon Jan 27 18:23:08 2020.
