 Gaussian 09, Revision D.01,
 Gaussian 09:  ES64L-G09RevD.01 24-Apr-2013

 -----------------------------
 # b3lyp 6-31G(2df,p) opt Freq
 -----------------------------

 -----
 titel
 -----
 Symbolic Z-matrix:
 Charge =  0 Multiplicity = 1

 SCF Done:  E(RB3LYP) =  -423.161719760     A.U. after   13 cycles
 Optimization completed.
    -- Stationary point found.
 Normal termination of Gaussian 09 at Mon Jan 27 23:05:39 2020.

 ----------------------------------------------------------------------
 #N Geom=AllCheck Guess=TCheck SCRF=Check GenChk RB3LYP/6-31G(2df,p) Fr
 eq
 ----------------------------------------------------------------------

 Structure from the checkpoint file:  "/scratch/puck/g09_165426be-7f0d-495e-8dba-fe58ecd7dbfd/Gau-103098.chk"
 -----
 titel
 -----
 Charge =  0 Multiplicity = 1

                         Standard orientation:
 ---------------------------------------------------------------------
 Center     Atomic      Atomic             Coordinates (Angstroms)
 Number     Number       Type             X           Y           Z
 ---------------------------------------------------------------------
      1          6           0       -0.308462    2.214637    0.000660
      2          6           0       -0.152017    0.853618    0.686666
      3          6           0       -1.407006   -0.013036    0.556808
      4          8           0       -1.823509   -0.226664   -0.797172
      5          6           0       -1.109488   -1.277754   -0.131320
      6          6           0        0.350412   -1.314878   -0.457801
      7          6           0        1.275747   -1.330932    0.747338
      8          6           0        0.946413   -0.029513    0.054717
      9          8           0        1.936595    0.582459   -0.714957
     10          1           0        0.621030    2.787802    0.042662
     11          1           0       -0.579498    2.081726   -1.048885
     12          1           0       -1.093508    2.800528    0.489611
     13          1           0        0.053935    1.011132    1.754681
     14          1           0       -2.216772    0.088197    1.276181
     15          1           0       -1.675779   -2.190414    0.039774
     16          1           0        0.694113   -1.746951   -1.390520
     17          1           0        0.859107   -1.539584    1.728659
     18          1           0        2.273524   -1.721061    0.579592
     19          1           0        2.585566    0.969416   -0.117128
 ---------------------------------------------------------------------

 SCF Done:  E(RB3LYP) =  -423.161719760     A.U. after    1 cycles

 The electronic state is 1-A.
 Alpha  occ. eigenvalues --  -19.14636 -19.14572 -10.24018 -10.23451 -10.23253
 Alpha  occ. eigenvalues --  -10.19300 -10.19116 -10.18869 -10.16901  -1.06869
 Alpha  occ. eigenvalues --   -1.03215  -0.86388  -0.77194  -0.68123  -0.65662
 Alpha  occ. eigenvalues --   -0.61773  -0.57348  -0.55997  -0.52622  -0.49492
 Alpha  occ. eigenvalues --   -0.46152  -0.44295  -0.43219  -0.41180  -0.39769
 Alpha  occ. eigenvalues --   -0.38299  -0.36621  -0.35610  -0.34194  -0.33053
 Alpha  occ. eigenvalues --   -0.30133  -0.26994  -0.26619  -0.25071
 Alpha virt. eigenvalues --    0.06810   0.09825   0.10042   0.11370   0.12139
 Alpha virt. eigenvalues --    0.13241   0.14244   0.16031   0.16870   0.17188
 Alpha virt. eigenvalues --    0.18046   0.18504   0.19381   0.21160   0.22519

 Mulliken charges:
               1
     1  C   -0.385637
     2  C   -0.117063
     3  C    0.047415
     4  O   -0.258065
     5  C    0.033295
     6  C   -0.121734
     7  C   -0.359976
     8  C    0.411013
     9  O   -0.466733
    10  H    0.104614
    11  H    0.142999
    12  H    0.106836
    13  H    0.067633
    14  H    0.091204
    15  H    0.095093
    16  H    0.103448
    17  H    0.107528
    18  H    0.115193
    19  H    0.282938
 Sum of Mulliken charges =   0.00000

 Dipole moment (field-independent basis, Debye):
    X=              1.2466    Y=             -0.3675    Z=              2.5503  Tot=              2.8624
 Quadrupole moment (field-independent basis, Debye-Ang):
   XX=            -51.8640   YY=            -50.7011   ZZ=            -54.5255
   XY=              1.5391   XZ=             -0.6743   YZ=              1.6850

  Exact polarizability:  76.803  -0.713  80.340  -0.288   1.752  64.391
 Approx polarizability: 108.283  -0.052 111.864   3.167   3.259 105.840

                      1                      2                      3
                      A                      A                      A
 Frequencies --    118.7175               210.6458               237.5949
 Red. masses --      3.8932                 1.0902                 3.5202
 Frc consts  --      0.0323                 0.0285                 0.1171
 IR Inten    --      1.5374                 0.8195                 4.6335

                      4                      5                      6
                      A                      A                      A
 Frequencies --    264.4203               302.0786               335.5082
 Red. masses --      2.7777                 1.2204                 2.3708
 Frc consts  --      0.1144                 0.0656                 0.1572
 IR Inten    --      0.6320                72.0346                30.2347

                      7                      8                      9
                      A                      A                      A
 Frequencies --    392.3663               437.6973               487.8462
 Red. masses --      3.2658                 4.1327                 3.3539
 Frc consts  --      0.2962                 0.4665                 0.4703
 IR Inten    --      5.1956                 2.4624                 8.2492

                     10                     11                     12
                      A                      A                      A
 Frequencies --    520.8454               634.3962               674.3290
 Red. masses --      4.0220                 3.6291                 4.5506
 Frc consts  --      0.6428                 0.8605                 1.2192
 IR Inten    --     11.6940                 8.8658                 1.2935

                     13                     14                     15
                      A                      A                      A
 Frequencies --    753.4396               814.3370               825.8465
 Red. masses --      2.5941                 3.1010                 2.0299
 Frc consts  --      0.8676                 1.2116                 0.8157
 IR Inten    --      1.9801                 1.2945                16.0122

                     16                     17                     18
                      A                      A                      A
 Frequencies --    886.8698               891.1918               926.1631
 Red. masses --      2.2054                 1.9209                 2.7985
 Frc consts  --      1.0220                 0.8989                 1.4143
 IR Inten    --     15.1733                10.0104                15.6412

                     19                     20                     21
                      A                      A                      A
 Frequencies --    929.6443               995.6089              1012.8949
 Red. masses --      2.4257                 2.0750                 1.5580
 Frc consts  --      1.2352                 1.2118                 0.9418
 IR Inten    --     16.8294                 1.7701                16.7657

                     22                     23                     24
                      A                      A                      A
 Frequencies --   1040.4010              1046.8343              1064.4582
 Red. masses --      1.7098                 1.3944                 1.4343
 Frc consts  --      1.0904                 0.9003                 0.9575
 IR Inten    --      5.7465                 2.3194                 4.0534

                     25                     26                     27
                      A                      A                      A
 Frequencies --   1086.8462              1110.0229              1125.3957
 Red. masses --      1.6291                 1.6652                 2.3265
 Frc consts  --      1.1338                 1.2088                 1.7361
 IR Inten    --      4.1306                 7.7833                 1.5454

                     28                     29                     30
                      A                      A                      A
 Frequencies --   1139.9701              1231.0129              1257.2774
 Red. masses --      1.4927                 1.7147                 1.5593
 Frc consts  --      1.1429                 1.5310                 1.4523
 IR Inten    --      3.5097                62.4940                 3.6717

                     31                     32                     33
                      A                      A                      A
 Frequencies --   1266.5279              1293.9226              1324.7970
 Red. masses --      2.2035                 1.4988                 1.5670
 Frc consts  --      2.0825                 1.4785                 1.6204
 IR Inten    --     29.8802                15.1661                 4.9765

                     34                     35                     36
                      A                      A                      A
 Frequencies --   1347.4009              1355.3262              1396.3700
 Red. masses --      1.4209                 1.7524                 1.6937
 Frc consts  --      1.5199                 1.8966                 1.9458
 IR Inten    --      9.3208                18.3878                 7.2912

                     37                     38                     39
                      A                      A                      A
 Frequencies --   1407.1088              1432.3054              1481.3869
 Red. masses --      1.4329                 2.9790                 1.3967
 Frc consts  --      1.6715                 3.6008                 1.8059
 IR Inten    --      7.3397                15.3465                 7.4394

                     40                     41                     42
                      A                      A                      A
 Frequencies --   1489.6674              1501.0154              3004.2141
 Red. masses --      1.0636                 1.0591                 1.0828
 Frc consts  --      1.3907                 1.4060                 5.7580
 IR Inten    --      6.6188                 6.2771                32.0000

                     43                     44                     45
                      A                      A                      A
 Frequencies --   3045.0998              3112.2204              3120.9031
 Red. masses --      1.0368                 1.1000                 1.0549
 Frc consts  --      5.6643                 6.2774                 6.0540
 IR Inten    --     28.1317                22.7018                12.0992

                     46                     47                     48
                      A                      A                      A
 Frequencies --   3131.5174              3136.0514              3144.4018
 Red. masses --      1.0866                 1.1011                 1.0943
 Frc consts  --      6.2783                 6.3803                 6.3747
 IR Inten    --     16.8710                18.1605                43.9913

                     49                     50                     51
                      A                      A                      A
 Frequencies --   3182.6432              3215.7199              3795.1258
 Red. masses --      1.0920                 1.1151                 1.0662
 Frc consts  --      6.5171                 6.7941                 9.0474
 IR Inten    --      6.6476                 8.3685                19.5234

 - Thermochemistry -
 -------------------
 Temperature   298.150 Kelvin.  Pressure   1.00000 Atm.
 Atom     1 has atomic number  6 and mass  12.00000

 Molecular mass:   126.06808 amu.
 Principal axes and moments of inertia in atomic units:
                           1         2         3
     Eigenvalues --   782.24226 915.888901351.77737
           X            0.99697  -0.07744  -0.00700
           Y            0.07744   0.99700  -0.00122
           Z            0.00707   0.00068   0.99997
 This molecule is an asymmetric top.
 Rotational symmetry number  1.
 Warning -- assumption of classical behavior for rotation
           may cause significant error
 Rotational temperatures (Kelvin)      0.11073     0.09457     0.06407
 Rotational constants (GHZ):           2.30714     1.97048     1.33509
 Zero-point vibrational energy     418324.4 (Joules/Mol)
                                   99.98194 (Kcal/Mol)
 Warning -- explicit consideration of  10 degrees of freedom as
           vibrations may cause significant error
 Vibrational temperatures:    170.81   303.07   341.85   380.44   434.62
          (Kelvin)            482.72   564.53   629.75   701.90   749.38
                              912.75   970.21  1084.03  1171.65  1188.21
                             1276.01  1282.22  1332.54  1337.55  1432.46
                             1457.33  1496.90  1506.16  1531.52  1563.73
                             1597.07  1619.19  1640.16  1771.15  1808.94
                             1822.25  1861.66  1906.09  1938.61  1950.01
                             2009.06  2024.51  2060.77  2131.38  2143.30
                             2159.62  4322.39  4381.21  4477.79  4490.28
                             4505.55  4512.07  4524.09  4579.11  4626.70
                             5460.33

 Zero-point correction=                           0.159331 (Hartree/Particle)
 Thermal correction to Energy=                    0.167296
 Thermal correction to Enthalpy=                  0.168240
 Thermal correction to Gibbs Free Energy=         0.127387
 Sum of electronic and zero-point Energies=           -423.002388
 Sum of electronic and thermal Energies=              -422.994424
 Sum of electronic and thermal Enthalpies=            -422.993480
 Sum of electronic and thermal Free Energies=         -423.034333

                     E (Thermal)             CV                S
                      KCal/Mol        Cal/Mol-Kelvin    Cal/Mol-Kelvin
 Total                  104.980             32.020             85.982
 Electronic               0.000              0.000              0.000
 Translational            0.889              2.981             40.409
 Rotational               0.889              2.981             28.362
 Vibrational            103.202             26.059             17.212
 Vibration     1          0.609              1.934              3.121
 Vibration     2          0.643              1.825              2.038
 Vibration     3          0.656              1.783              1.821
 Vibration     4          0.671              1.738              1.632
 Vibration     5          0.694              1.670              1.405
 Vibration     6          0.717              1.605              1.233
 Vibration     7          0.760              1.486              0.991
 Vibration     8          0.798              1.388              0.834
 Vibration     9          0.844              1.277              0.689
 Vibration    10          0.876              1.204              0.608

 Optimization completed.
    -- Stationary point found.
 Normal termination of Gaussian 09 at Mon Jan 27 23:52:44 2020.
