 Gaussian 09, Revision D.01,
 Gaussian 09:  ES64L-G09RevD.01 24-Apr-2013

 -----------------------------
 # b3lyp 6-31G(2df,p) opt Freq
 -----------------------------

 -----
 titel
 -----
 Symbolic Z-matrix:
 Charge =  0 Multiplicity = 1

 SCF Done:  E(RB3LYP) =  -423.105441613     A.U. after   14 cycles
 Optimization completed.
    -- Stationary point found.
 Normal termination of Gaussian 09 at Tue Jan 28 03:07:59 2020.

 ----------------------------------------------------------------------
 #N Geom=AllCheck Guess=TCheck SCRF=Check GenChk RB3LYP/6-31G(2df,p) Fr
 eq
 ----------------------------------------------------------------------

 Structure from the checkpoint file:  "/scratch/puck/g09_208ec2c7-fadb-4d42-b167-ff9f2dc296ed/Gau-984.chk"
 -----
 titel
 -----
 Charge =  0 Multiplicity = 1

                         Standard orientation:
 ---------------------------------------------------------------------
 Center     Atomic      Atomic             Coordinates (Angstroms)
 Number     Number       Type             X           Y           Z
 ---------------------------------------------------------------------
      1          6           0       -2.403661   -0.955669    0.145854
      2          6           0       -1.172111   -0.382990   -0.533553
      3          8           0       -1.186824    1.097172   -0.487451
      4          6           0        0.064152    1.468306    0.172300
      5          6           0        0.144174    0.462392    1.314371
      6          6           0        0.201073   -0.541926    0.092969
      7          6           0        1.505618   -1.335029    0.044797
      8          8           0        2.231377   -0.084490   -0.187015
      9          6           0        1.005573    0.554638   -0.646622
     10          1           0       -2.426273   -0.730826    1.214622
     11          1           0       -3.307213   -0.538377   -0.307996
     12          1           0       -2.430073   -2.043438    0.018194
     13          1           0       -1.163258   -0.685065   -1.587828
     14          1           0        0.091986    2.554456    0.258070
     15          1           0        1.086545    0.484073    1.858120
     16          1           0       -0.708963    0.411072    1.990732
     17          1           0        1.835666   -1.836691    0.959446
     18          1           0        1.606974   -2.010230   -0.814785
     19          1           0        0.989284    0.675243   -1.733538
 ---------------------------------------------------------------------

 SCF Done:  E(RB3LYP) =  -423.105441613     A.U. after    1 cycles

 The electronic state is 1-A.
 Alpha  occ. eigenvalues --  -19.14387 -19.13814 -10.24491 -10.24190 -10.24046
 Alpha  occ. eigenvalues --  -10.23025 -10.20536 -10.18550 -10.17934  -1.05471
 Alpha  occ. eigenvalues --   -1.02208  -0.81699  -0.76961  -0.70557  -0.67605
 Alpha  occ. eigenvalues --   -0.63890  -0.56584  -0.53853  -0.51135  -0.50666
 Alpha  occ. eigenvalues --   -0.46378  -0.45982  -0.43007  -0.41125  -0.39976
 Alpha  occ. eigenvalues --   -0.38496  -0.37407  -0.35889  -0.34706  -0.32464
 Alpha  occ. eigenvalues --   -0.31597  -0.27060  -0.26607  -0.24175
 Alpha virt. eigenvalues --    0.05822   0.08350   0.10700   0.11265   0.12229
 Alpha virt. eigenvalues --    0.13480   0.14033   0.14685   0.15541   0.16069
 Alpha virt. eigenvalues --    0.17508   0.17920   0.18976   0.19958   0.20904

 Mulliken charges:
               1
     1  C   -0.413470
     2  C    0.056253
     3  O   -0.315455
     4  C    0.051638
     5  C   -0.270706
     6  C    0.211427
     7  C   -0.191330
     8  O   -0.303827
     9  C    0.114547
    10  H    0.120982
    11  H    0.130900
    12  H    0.115547
    13  H    0.082241
    14  H    0.078760
    15  H    0.122946
    16  H    0.101651
    17  H    0.113386
    18  H    0.109064
    19  H    0.085446
 Sum of Mulliken charges =   0.00000

 Dipole moment (field-independent basis, Debye):
    X=             -0.6683    Y=             -1.5352    Z=              0.4609  Tot=              1.7366
 Quadrupole moment (field-independent basis, Debye-Ang):
   XX=            -59.1791   YY=            -51.0980   ZZ=            -51.6092
   XY=              1.2637   XZ=             -0.1008   YZ=              1.2019

  Exact polarizability:  79.894  -1.112  75.159   0.410   1.092  68.788
 Approx polarizability: 114.008  -2.879 113.732   1.744  -0.330 105.483

                      1                      2                      3
                      A                      A                      A
 Frequencies --    202.5489               214.8519               234.0686
 Red. masses --      1.0375                 3.2991                 2.8204
 Frc consts  --      0.0251                 0.0897                 0.0910
 IR Inten    --      0.1035                 0.1636                 0.2416

                      4                      5                      6
                      A                      A                      A
 Frequencies --    318.9308               332.8680               447.6284
 Red. masses --      2.2092                 4.7300                 2.5560
 Frc consts  --      0.1324                 0.3088                 0.3017
 IR Inten    --      0.6402                11.3832                 1.9598

                      7                      8                      9
                      A                      A                      A
 Frequencies --    493.4262               493.8251               561.3632
 Red. masses --      3.2871                 3.1349                 4.1056
 Frc consts  --      0.4715                 0.4504                 0.7623
 IR Inten    --      5.7282                 5.2196                 0.1684

                     10                     11                     12
                      A                      A                      A
 Frequencies --    676.7721               738.8528               788.8039
 Red. masses --      2.9129                 3.9717                 3.4593
 Frc consts  --      0.7861                 1.2774                 1.2682
 IR Inten    --      3.4724                 3.4087                14.4468

                     13                     14                     15
                      A                      A                      A
 Frequencies --    851.2098               863.3123               889.3359
 Red. masses --      4.0279                 2.9257                 2.1125
 Frc consts  --      1.7195                 1.2847                 0.9844
 IR Inten    --     44.0000                11.7227                 4.6945

                     16                     17                     18
                      A                      A                      A
 Frequencies --    901.7210               930.3111               937.8065
 Red. masses --      3.4460                 2.8737                 2.8081
 Frc consts  --      1.6508                 1.4654                 1.4551
 IR Inten    --      3.7931                27.6815                35.0533

                     19                     20                     21
                      A                      A                      A
 Frequencies --    998.2638              1010.7898              1040.0331
 Red. masses --      2.6730                 1.9999                 1.7522
 Frc consts  --      1.5694                 1.2039                 1.1167
 IR Inten    --     37.4537                20.4369                13.6591

                     22                     23                     24
                      A                      A                      A
 Frequencies --   1050.7654              1072.2845              1102.1457
 Red. masses --      1.9082                 1.6827                 1.8038
 Frc consts  --      1.2413                 1.1399                 1.2910
 IR Inten    --      8.7001                 9.5661                 8.3669

                     25                     26                     27
                      A                      A                      A
 Frequencies --   1134.6472              1136.3004              1162.5176
 Red. masses --      2.3176                 1.8539                 1.3407
 Frc consts  --      1.7580                 1.4103                 1.0676
 IR Inten    --     14.4377                16.8965                 0.8275

                     28                     29                     30
                      A                      A                      A
 Frequencies --   1194.3281              1229.4893              1244.1234
 Red. masses --      2.1820                 1.6945                 1.4910
 Frc consts  --      1.8338                 1.5092                 1.3598
 IR Inten    --      8.5835                10.6682                 0.4571

                     31                     32                     33
                      A                      A                      A
 Frequencies --   1255.6940              1275.3176              1298.8156
 Red. masses --      1.4810                 1.6198                 1.2826
 Frc consts  --      1.3759                 1.5522                 1.2748
 IR Inten    --      5.2891                10.9831                 1.5350

                     34                     35                     36
                      A                      A                      A
 Frequencies --   1335.9646              1353.2510              1399.8563
 Red. masses --      1.4168                 1.7268                 1.3397
 Frc consts  --      1.4898                 1.8632                 1.5468
 IR Inten    --      3.3633                 1.8914                 2.8930

                     37                     38                     39
                      A                      A                      A
 Frequencies --   1415.8125              1477.7177              1489.5376
 Red. masses --      1.4923                 1.1414                 1.0675
 Frc consts  --      1.7624                 1.4685                 1.3954
 IR Inten    --     25.0334                 3.0223                 4.2208

                     40                     41                     42
                      A                      A                      A
 Frequencies --   1496.0104              1511.8928              3016.7290
 Red. masses --      1.0508                 1.1032                 1.0598
 Frc consts  --      1.3856                 1.4858                 5.6824
 IR Inten    --      6.4465                 0.8208                63.1138

                     43                     44                     45
                      A                      A                      A
 Frequencies --   3027.5431              3041.3396              3072.7805
 Red. masses --      1.0838                 1.0379                 1.0865
 Frc consts  --      5.8530                 5.6565                 6.0441
 IR Inten    --     34.4597                19.9173                44.9671

                     46                     47                     48
                      A                      A                      A
 Frequencies --   3086.4192              3096.8028              3109.1603
 Red. masses --      1.1062                 1.0588                 1.0993
 Frc consts  --      6.2085                 5.9828                 6.2613
 IR Inten    --     30.5178                19.9786                15.4827

                     49                     50                     51
                      A                      A                      A
 Frequencies --   3123.5929              3129.1715              3169.4673
 Red. masses --      1.0918                 1.1001                 1.1090
 Frc consts  --      6.2764                 6.3468                 6.5636
 IR Inten    --     49.4239                31.2854                11.0652

 - Thermochemistry -
 -------------------
 Temperature   298.150 Kelvin.  Pressure   1.00000 Atm.
 Atom     1 has atomic number  6 and mass  12.00000

 Molecular mass:   126.06808 amu.
 Principal axes and moments of inertia in atomic units:
                           1         2         3
     Eigenvalues --   570.899581112.441571322.70795
           X            0.99965   0.02612  -0.00345
           Y           -0.02604   0.99941   0.02255
           Z            0.00403  -0.02246   0.99974
 This molecule is an asymmetric top.
 Rotational symmetry number  1.
 Warning -- assumption of classical behavior for rotation
           may cause significant error
 Rotational temperatures (Kelvin)      0.15171     0.07786     0.06548
 Rotational constants (GHZ):           3.16122     1.62232     1.36443
 Zero-point vibrational energy     421302.0 (Joules/Mol)
                                  100.69360 (Kcal/Mol)
 Warning -- explicit consideration of   9 degrees of freedom as
           vibrations may cause significant error
 Vibrational temperatures:    291.42   309.12   336.77   458.87   478.92
          (Kelvin)            644.04   709.93   710.50   807.68   973.72
                             1063.04  1134.91  1224.70  1242.11  1279.55
                             1297.37  1338.51  1349.29  1436.28  1454.30
                             1496.37  1511.82  1542.78  1585.74  1632.50
                             1634.88  1672.60  1718.37  1768.96  1790.01
                             1806.66  1834.90  1868.70  1922.15  1947.02
                             2014.08  2037.04  2126.10  2143.11  2152.42
                             2175.27  4340.39  4355.95  4375.80  4421.04
                             4440.66  4455.60  4473.38  4494.15  4502.17
                             4560.15

 Zero-point correction=                           0.160465 (Hartree/Particle)
 Thermal correction to Energy=                    0.167605
 Thermal correction to Enthalpy=                  0.168549
 Thermal correction to Gibbs Free Energy=         0.129372
 Sum of electronic and zero-point Energies=           -422.944976
 Sum of electronic and thermal Energies=              -422.937836
 Sum of electronic and thermal Enthalpies=            -422.936892
 Sum of electronic and thermal Free Energies=         -422.976070

                     E (Thermal)             CV                S
                      KCal/Mol        Cal/Mol-Kelvin    Cal/Mol-Kelvin
 Total                  105.174             29.550             82.456
 Electronic               0.000              0.000              0.000
 Translational            0.889              2.981             40.409
 Rotational               0.889              2.981             28.220
 Vibrational            103.396             23.588             13.827
 Vibration     1          0.639              1.836              2.110
 Vibration     2          0.645              1.818              2.002
 Vibration     3          0.654              1.789              1.848
 Vibration     4          0.705              1.637              1.316
 Vibration     5          0.715              1.610              1.246
 Vibration     6          0.807              1.366              0.803
 Vibration     7          0.849              1.265              0.675
 Vibration     8          0.849              1.264              0.674
 Vibration     9          0.917              1.115              0.521

 Optimization completed.
    -- Stationary point found.
 Normal termination of Gaussian 09 at Tue Jan 28 03:53:31 2020.
