 Gaussian 09, Revision D.01,
 Gaussian 09:  ES64L-G09RevD.01 24-Apr-2013

 -----------------------------
 # b3lyp 6-31G(2df,p) opt Freq
 -----------------------------

 -----
 titel
 -----
 Symbolic Z-matrix:
 Charge =  0 Multiplicity = 1

 SCF Done:  E(RB3LYP) =  -423.206436093     A.U. after   14 cycles
 Optimization completed.
    -- Stationary point found.
 Normal termination of Gaussian 09 at Mon Jan 27 13:08:34 2020.

 ----------------------------------------------------------------------
 #N Geom=AllCheck Guess=TCheck SCRF=Check GenChk RB3LYP/6-31G(2df,p) Fr
 eq
 ----------------------------------------------------------------------

 Structure from the checkpoint file:  "/scratch/puck/g09_307e72a2-5cd3-4b53-98ee-663ca379116a/Gau-48000.chk"
 -----
 titel
 -----
 Charge =  0 Multiplicity = 1

                         Standard orientation:
 ---------------------------------------------------------------------
 Center     Atomic      Atomic             Coordinates (Angstroms)
 Number     Number       Type             X           Y           Z
 ---------------------------------------------------------------------
      1          8           0        2.191261   -1.456474   -0.374458
      2          6           0        1.428882   -0.636700    0.077255
      3          6           0        1.750008    0.851823    0.127167
      4          6           0        0.574420    1.719085   -0.362227
      5          6           0       -0.723157    1.378590    0.385945
      6          6           0       -1.040525   -0.095336    0.228072
      7          6           0       -2.424978   -0.576815    0.169680
      8          8           0       -1.649091   -0.444406   -1.025746
      9          6           0        0.075437   -1.029632    0.671418
     10          1           0        1.968485    1.102956    1.176044
     11          1           0        2.661032    1.026521   -0.449631
     12          1           0        0.819864    2.778298   -0.238263
     13          1           0        0.417925    1.550506   -1.433994
     14          1           0       -0.614099    1.614997    1.453252
     15          1           0       -1.557155    1.972547    0.001388
     16          1           0       -2.654800   -1.599790    0.465994
     17          1           0       -3.247551    0.130145    0.274366
     18          1           0        0.171402   -0.970295    1.765542
     19          1           0       -0.142979   -2.064939    0.403077
 ---------------------------------------------------------------------

 SCF Done:  E(RB3LYP) =  -423.206436093     A.U. after    1 cycles

 The electronic state is 1-A.
 Alpha  occ. eigenvalues --  -19.15307 -19.12784 -10.26884 -10.25170 -10.23729
 Alpha  occ. eigenvalues --  -10.19713 -10.19687 -10.19648 -10.19383  -1.07439
 Alpha  occ. eigenvalues --   -1.03858  -0.82984  -0.75413  -0.73192  -0.66735
 Alpha  occ. eigenvalues --   -0.62436  -0.58018  -0.53204  -0.49840  -0.48699
 Alpha  occ. eigenvalues --   -0.47152  -0.45390  -0.43585  -0.42855  -0.40738
 Alpha  occ. eigenvalues --   -0.40482  -0.37705  -0.36387  -0.36010  -0.34632
 Alpha  occ. eigenvalues --   -0.33760  -0.30484  -0.27064  -0.23862
 Alpha virt. eigenvalues --   -0.01450   0.08001   0.09558   0.10396   0.11772
 Alpha virt. eigenvalues --    0.13365   0.13952   0.14472   0.14808   0.15964
 Alpha virt. eigenvalues --    0.17006   0.17626   0.17721   0.20279   0.20592

 Mulliken charges:
               1
     1  O   -0.300675
     2  C    0.392135
     3  C   -0.292339
     4  C   -0.214387
     5  C   -0.270858
     6  C    0.419725
     7  C   -0.245918
     8  O   -0.273244
     9  C   -0.371880
    10  H    0.115450
    11  H    0.122892
    12  H    0.104059
    13  H    0.127300
    14  H    0.099362
    15  H    0.109038
    16  H    0.114802
    17  H    0.113079
    18  H    0.121896
    19  H    0.129561
 Sum of Mulliken charges =   0.00000

 Dipole moment (field-independent basis, Debye):
    X=             -1.6803    Y=              2.2723    Z=              2.6308  Tot=              3.8610
 Quadrupole moment (field-independent basis, Debye-Ang):
   XX=            -55.9491   YY=            -53.7499   ZZ=            -54.0311
   XY=              5.3829   XZ=             -0.9001   YZ=             -2.4061

  Exact polarizability:  87.863   1.576  77.540  -2.827   0.134  60.895
 Approx polarizability: 118.038  -3.009 110.105  -4.917   5.010 102.536

                      1                      2                      3
                      A                      A                      A
 Frequencies --     84.1357               100.9870               218.3994
 Red. masses --      5.7197                 3.2706                 2.3078
 Frc consts  --      0.0239                 0.0197                 0.0649
 IR Inten    --      1.7515                 1.1674                 2.8643

                      4                      5                      6
                      A                      A                      A
 Frequencies --    297.0216               341.5246               377.6456
 Red. masses --      2.6921                 3.0030                 2.4620
 Frc consts  --      0.1399                 0.2064                 0.2069
 IR Inten    --      0.4043                 2.4706                 0.8209

                      7                      8                      9
                      A                      A                      A
 Frequencies --    433.2388               438.6873               483.0055
 Red. masses --      1.9245                 3.0825                 3.8833
 Frc consts  --      0.2128                 0.3495                 0.5338
 IR Inten    --      4.6036                 4.0099                 9.6745

                     10                     11                     12
                      A                      A                      A
 Frequencies --    526.6977               612.1672               727.4016
 Red. masses --      2.8176                 4.1312                 2.5341
 Frc consts  --      0.4605                 0.9121                 0.7900
 IR Inten    --      4.5255                 1.3774                 3.5560

                     13                     14                     15
                      A                      A                      A
 Frequencies --    762.1006               810.1631               857.1852
 Red. masses --      2.7867                 2.6350                 1.9448
 Frc consts  --      0.9536                 1.0190                 0.8419
 IR Inten    --     10.9994                 8.6376                 7.3728

                     16                     17                     18
                      A                      A                      A
 Frequencies --    884.6552               894.1967               936.0216
 Red. masses --      2.2656                 1.8851                 1.4220
 Frc consts  --      1.0447                 0.8881                 0.7340
 IR Inten    --      5.6834                 1.9072                 1.9790

                     19                     20                     21
                      A                      A                      A
 Frequencies --    952.8729              1004.7081              1045.6634
 Red. masses --      2.6056                 4.0006                 1.8641
 Frc consts  --      1.3939                 2.3793                 1.2009
 IR Inten    --     11.8825                20.2108                 5.9524

                     22                     23                     24
                      A                      A                      A
 Frequencies --   1071.7082              1102.2387              1127.1120
 Red. masses --      1.3293                 2.0543                 1.3122
 Frc consts  --      0.8995                 1.4705                 0.9822
 IR Inten    --     10.7899                 1.7667                 5.6609

                     25                     26                     27
                      A                      A                      A
 Frequencies --   1162.2279              1180.2353              1215.1956
 Red. masses --      1.3836                 1.7080                 1.3598
 Frc consts  --      1.1011                 1.4018                 1.1831
 IR Inten    --      0.7774                13.3472                 5.6294

                     28                     29                     30
                      A                      A                      A
 Frequencies --   1236.0105              1254.3392              1285.9827
 Red. masses --      1.7784                 1.5010                 1.6490
 Frc consts  --      1.6007                 1.3915                 1.6067
 IR Inten    --     37.2339                 2.6402                 4.9153

                     31                     32                     33
                      A                      A                      A
 Frequencies --   1299.0929              1339.4399              1357.8005
 Red. masses --      1.7382                 1.5582                 1.5228
 Frc consts  --      1.7283                 1.6471                 1.6541
 IR Inten    --     12.7617                 7.4141                 8.4959

                     34                     35                     36
                      A                      A                      A
 Frequencies --   1371.1707              1430.1397              1445.8121
 Red. masses --      1.4854                 1.8410                 1.1861
 Frc consts  --      1.6454                 2.2185                 1.4609
 IR Inten    --      9.5662                10.9460                 8.0137

                     37                     38                     39
                      A                      A                      A
 Frequencies --   1463.3386              1475.9629              1497.0819
 Red. masses --      1.1055                 1.1050                 1.0896
 Frc consts  --      1.3948                 1.4182                 1.4389
 IR Inten    --      3.8488                 8.0713                 3.1573

                     40                     41                     42
                      A                      A                      A
 Frequencies --   1531.9023              1823.8824              3005.6729
 Red. masses --      1.4005                11.4117                 1.0683
 Frc consts  --      1.9364                22.3663                 5.6864
 IR Inten    --      4.5943               193.5554                 5.3805

                     43                     44                     45
                      A                      A                      A
 Frequencies --   3014.2650              3020.8492              3042.5336
 Red. masses --      1.0674                 1.0671                 1.0599
 Frc consts  --      5.7138                 5.7375                 5.7806
 IR Inten    --      7.3820                24.8157                23.7264

                     46                     47                     48
                      A                      A                      A
 Frequencies --   3077.4417              3085.6398              3091.4711
 Red. masses --      1.0512                 1.0996                 1.0991
 Frc consts  --      5.8657                 6.1685                 6.1889
 IR Inten    --     28.3922                25.7013                25.8632

                     49                     50                     51
                      A                      A                      A
 Frequencies --   3108.7269              3119.2812              3162.9736
 Red. masses --      1.0937                 1.0944                 1.1192
 Frc consts  --      6.2276                 6.2739                 6.5970
 IR Inten    --     15.9885                 6.8345                22.4664

 - Thermochemistry -
 -------------------
 Temperature   298.150 Kelvin.  Pressure   1.00000 Atm.
 Atom     1 has atomic number  8 and mass  15.99491

 Molecular mass:   126.06808 amu.
 Principal axes and moments of inertia in atomic units:
                           1         2         3
     Eigenvalues --   680.127041237.776501644.00664
           X            0.99880   0.04800  -0.00993
           Y           -0.04824   0.99852  -0.02502
           Z            0.00871   0.02547   0.99964
 This molecule is an asymmetric top.
 Rotational symmetry number  1.
 Warning -- assumption of classical behavior for rotation
           may cause significant error
 Rotational temperatures (Kelvin)      0.12735     0.06998     0.05268
 Rotational constants (GHZ):           2.65354     1.45805     1.09777
 Zero-point vibrational energy     419817.5 (Joules/Mol)
                                  100.33879 (Kcal/Mol)
 Warning -- explicit consideration of  11 degrees of freedom as
           vibrations may cause significant error
 Vibrational temperatures:    121.05   145.30   314.23   427.35   491.38
          (Kelvin)            543.35   623.33   631.17   694.94   757.80
                              880.77  1046.57  1096.49  1165.64  1233.30
                             1272.82  1286.55  1346.72  1370.97  1445.55
                             1504.47  1541.95  1585.87  1621.66  1672.18
                             1698.09  1748.39  1778.34  1804.71  1850.24
                             1869.10  1927.15  1953.57  1972.81  2057.65
                             2080.20  2105.42  2123.58  2153.96  2204.06
                             2624.16  4324.49  4336.85  4346.32  4377.52
                             4427.75  4439.54  4447.93  4472.76  4487.94
                             4550.81

 Zero-point correction=                           0.159900 (Hartree/Particle)
 Thermal correction to Energy=                    0.167880
 Thermal correction to Enthalpy=                  0.168824
 Thermal correction to Gibbs Free Energy=         0.127210
 Sum of electronic and zero-point Energies=           -423.046536
 Sum of electronic and thermal Energies=              -423.038557
 Sum of electronic and thermal Enthalpies=            -423.037612
 Sum of electronic and thermal Free Energies=         -423.079226

                     E (Thermal)             CV                S
                      KCal/Mol        Cal/Mol-Kelvin    Cal/Mol-Kelvin
 Total                  105.346             31.076             87.584
 Electronic               0.000              0.000              0.000
 Translational            0.889              2.981             40.409
 Rotational               0.889              2.981             28.717
 Vibrational            103.569             25.115             18.459
 Vibration     1          0.601              1.960              3.792
 Vibration     2          0.604              1.948              3.435
 Vibration     3          0.646              1.813              1.972
 Vibration     4          0.691              1.679              1.434
 Vibration     5          0.721              1.592              1.205
 Vibration     6          0.748              1.518              1.049
 Vibration     7          0.794              1.398              0.848
 Vibration     8          0.799              1.386              0.831
 Vibration     9          0.839              1.288              0.702
 Vibration    10          0.882              1.191              0.595
 Vibration    11          0.971              1.006              0.429

 Optimization completed.
    -- Stationary point found.
 Normal termination of Gaussian 09 at Mon Jan 27 13:51:50 2020.
