 Gaussian 09, Revision D.01,
 Gaussian 09:  ES64L-G09RevD.01 24-Apr-2013

 -----------------------------
 # b3lyp 6-31G(2df,p) opt Freq
 -----------------------------

 -----
 titel
 -----
 Symbolic Z-matrix:
 Charge =  0 Multiplicity = 1

 SCF Done:  E(RB3LYP) =  -423.234334180     A.U. after   14 cycles
 Optimization completed.
    -- Stationary point found.
 Normal termination of Gaussian 09 at Tue Jan 28 00:38:52 2020.

 ----------------------------------------------------------------------
 #N Geom=AllCheck Guess=TCheck SCRF=Check GenChk RB3LYP/6-31G(2df,p) Fr
 eq
 ----------------------------------------------------------------------

 Structure from the checkpoint file:  "/scratch/puck/g09_16bfe8b4-d74d-4029-8271-f15f21d14b8e/Gau-890.chk"
 -----
 titel
 -----
 Charge =  0 Multiplicity = 1

                         Standard orientation:
 ---------------------------------------------------------------------
 Center     Atomic      Atomic             Coordinates (Angstroms)
 Number     Number       Type             X           Y           Z
 ---------------------------------------------------------------------
      1          6           0        1.315492    1.943939    0.382233
      2          6           0        0.542766    0.906795   -0.416692
      3          8           0       -0.873681    1.117495   -0.232328
      4          6           0       -1.554502   -0.068135   -0.140019
      5          8           0       -2.746921   -0.126435   -0.222284
      6          6           0       -0.571484   -1.171530    0.077057
      7          6           0        0.315058   -0.969352    1.297543
      8          6           0        0.803927   -0.558595   -0.058117
      9          6           0        1.968988   -1.254036   -0.717477
     10          1           0        1.134832    1.831180    1.454449
     11          1           0        2.388929    1.836191    0.197398
     12          1           0        1.016557    2.952455    0.085377
     13          1           0        0.749672    1.045219   -1.487274
     14          1           0       -0.838613   -2.168561   -0.246248
     15          1           0        0.024209   -0.219576    2.025961
     16          1           0        0.741829   -1.869928    1.725339
     17          1           0        1.994950   -2.314779   -0.451798
     18          1           0        1.908597   -1.181768   -1.809025
     19          1           0        2.922387   -0.813422   -0.404448
 ---------------------------------------------------------------------

 SCF Done:  E(RB3LYP) =  -423.234334180     A.U. after    1 cycles

 The electronic state is 1-A.
 Alpha  occ. eigenvalues --  -19.17254 -19.11626 -10.29892 -10.25449 -10.22018
 Alpha  occ. eigenvalues --  -10.20918 -10.20809 -10.19843 -10.18956  -1.09241
 Alpha  occ. eigenvalues --   -1.01504  -0.88950  -0.78058  -0.73268  -0.65666
 Alpha  occ. eigenvalues --   -0.65281  -0.58842  -0.55633  -0.52237  -0.47122
 Alpha  occ. eigenvalues --   -0.45902  -0.44927  -0.43266  -0.42467  -0.41961
 Alpha  occ. eigenvalues --   -0.40371  -0.40162  -0.38344  -0.37372  -0.33860
 Alpha  occ. eigenvalues --   -0.31101  -0.30220  -0.28942  -0.25743
 Alpha virt. eigenvalues --    0.01346   0.07287   0.09500   0.10853   0.11811
 Alpha virt. eigenvalues --    0.12030   0.13172   0.13797   0.16223   0.16538
 Alpha virt. eigenvalues --    0.17430   0.18242   0.19387   0.20221   0.21589

 Mulliken charges:
               1
     1  C   -0.403061
     2  C    0.071226
     3  O   -0.248072
     4  C    0.445867
     5  O   -0.347376
     6  C   -0.243147
     7  C   -0.334693
     8  C    0.321235
     9  C   -0.490797
    10  H    0.127589
    11  H    0.122363
    12  H    0.136383
    13  H    0.089551
    14  H    0.115424
    15  H    0.132098
    16  H    0.123824
    17  H    0.126393
    18  H    0.126982
    19  H    0.128209
 Sum of Mulliken charges =   0.00000

 Dipole moment (field-independent basis, Debye):
    X=              4.6090    Y=             -1.0347    Z=              0.2375  Tot=              4.7297
 Quadrupole moment (field-independent basis, Debye-Ang):
   XX=            -63.5084   YY=            -50.7761   ZZ=            -51.2898
   XY=              1.1872   XZ=             -1.3060   YZ=              0.0396

  Exact polarizability:  86.179   2.870  74.959  -0.170  -1.509  64.970
 Approx polarizability: 128.098   5.808 104.823   1.561  -3.187  99.422

                      1                      2                      3
                      A                      A                      A
 Frequencies --    128.8141               140.6990               194.2167
 Red. masses --      4.3507                 3.2351                 1.1378
 Frc consts  --      0.0425                 0.0377                 0.0253
 IR Inten    --      0.0414                 2.0936                 0.1104

                      4                      5                      6
                      A                      A                      A
 Frequencies --    225.2331               242.4976               285.2534
 Red. masses --      1.1123                 2.1131                 2.8851
 Frc consts  --      0.0332                 0.0732                 0.1383
 IR Inten    --      0.0972                 0.2955                 1.5159

                      7                      8                      9
                      A                      A                      A
 Frequencies --    331.6557               380.2958               503.6059
 Red. masses --      3.3232                 2.4878                 3.8020
 Frc consts  --      0.2154                 0.2120                 0.5681
 IR Inten    --      0.6728                 1.8691                 5.8639

                     10                     11                     12
                      A                      A                      A
 Frequencies --    511.5401               562.7608               672.2595
 Red. masses --      3.6061                 4.2880                 4.2900
 Frc consts  --      0.5560                 0.8001                 1.1423
 IR Inten    --      2.4637                 1.8997                 2.9196

                     13                     14                     15
                      A                      A                      A
 Frequencies --    697.8216               766.5229               801.3930
 Red. masses --      3.4818                 3.2798                 2.7414
 Frc consts  --      0.9990                 1.1354                 1.0373
 IR Inten    --      0.4271                 3.6993                 4.1164

                     16                     17                     18
                      A                      A                      A
 Frequencies --    868.3373               896.7741               943.0122
 Red. masses --      2.2491                 2.1668                 1.9021
 Frc consts  --      0.9992                 1.0267                 0.9966
 IR Inten    --      2.8321                12.2277                11.0643

                     19                     20                     21
                      A                      A                      A
 Frequencies --    961.0768               984.7145              1028.7402
 Red. masses --      1.6312                 2.0533                 1.7410
 Frc consts  --      0.8877                 1.1731                 1.0856
 IR Inten    --     26.8025                55.9258                 2.9818

                     22                     23                     24
                      A                      A                      A
 Frequencies --   1055.3175              1070.5544              1083.5867
 Red. masses --      1.8172                 1.5577                 1.3752
 Frc consts  --      1.1924                 1.0518                 0.9514
 IR Inten    --     48.8446                 1.8306                 7.0006

                     25                     26                     27
                      A                      A                      A
 Frequencies --   1105.6596              1119.6320              1145.7788
 Red. masses --      2.4610                 1.9840                 2.2274
 Frc consts  --      1.7726                 1.4654                 1.7229
 IR Inten    --     41.0193                28.4694                 2.3764

                     28                     29                     30
                      A                      A                      A
 Frequencies --   1203.6546              1238.3450              1309.5875
 Red. masses --      2.3740                 1.8135                 2.3725
 Frc consts  --      2.0265                 1.6385                 2.3973
 IR Inten    --     96.1849                 0.8612                17.1487

                     31                     32                     33
                      A                      A                      A
 Frequencies --   1348.7594              1380.7723              1407.5912
 Red. masses --      2.1161                 1.3280                 1.4037
 Frc consts  --      2.2681                 1.4917                 1.6387
 IR Inten    --     34.7669                 7.1443                 2.9068

                     34                     35                     36
                      A                      A                      A
 Frequencies --   1412.6879              1426.0952              1485.6516
 Red. masses --      1.3552                 1.6154                 1.0650
 Frc consts  --      1.5935                 1.9356                 1.3849
 IR Inten    --     14.1345                 1.8889                 1.8573

                     37                     38                     39
                      A                      A                      A
 Frequencies --   1488.8041              1490.7887              1498.2235
 Red. masses --      1.0766                 1.1362                 1.0605
 Frc consts  --      1.4059                 1.4878                 1.4026
 IR Inten    --      5.7468                 2.2876                 7.2143

                     40                     41                     42
                      A                      A                      A
 Frequencies --   1502.8753              1880.9517              3005.1792
 Red. masses --      1.1783                12.6183                 1.0840
 Frc consts  --      1.5680                26.3032                 5.7679
 IR Inten    --      4.4032               443.0709                32.7275

                     43                     44                     45
                      A                      A                      A
 Frequencies --   3029.1845              3046.6234              3089.5699
 Red. masses --      1.0365                 1.0353                 1.1008
 Frc consts  --      5.6038                 5.6619                 6.1911
 IR Inten    --     29.3813                12.0827                20.1516

                     46                     47                     48
                      A                      A                      A
 Frequencies --   3108.4149              3119.1480              3128.7980
 Red. masses --      1.1003                 1.1005                 1.0972
 Frc consts  --      6.2639                 6.3081                 6.3281
 IR Inten    --     16.2807                17.5874                10.9007

                     49                     50                     51
                      A                      A                      A
 Frequencies --   3132.2273              3209.8617              3219.9594
 Red. masses --      1.0593                 1.0970                 1.1124
 Frc consts  --      6.1230                 6.6596                 6.7952
 IR Inten    --     17.6164                 1.3890                 5.7303

 - Thermochemistry -
 -------------------
 Temperature   298.150 Kelvin.  Pressure   1.00000 Atm.
 Atom     1 has atomic number  6 and mass  12.00000

 Molecular mass:   126.06808 amu.
 Principal axes and moments of inertia in atomic units:
                           1         2         3
     Eigenvalues --   734.701791136.067371532.15570
           X            0.99985   0.01226  -0.01233
           Y           -0.01203   0.99976   0.01855
           Z            0.01255  -0.01840   0.99975
 This molecule is an asymmetric top.
 Rotational symmetry number  1.
 Warning -- assumption of classical behavior for rotation
           may cause significant error
 Rotational temperatures (Kelvin)      0.11789     0.07624     0.05653
 Rotational constants (GHZ):           2.45643     1.58859     1.17791
 Zero-point vibrational energy     417924.4 (Joules/Mol)
                                   99.88633 (Kcal/Mol)
 Warning -- explicit consideration of  11 degrees of freedom as
           vibrations may cause significant error
 Vibrational temperatures:    185.33   202.43   279.43   324.06   348.90
          (Kelvin)            410.42   477.18   547.16   724.58   735.99
                              809.69   967.23  1004.01  1102.85  1153.02
                             1249.34  1290.26  1356.78  1382.77  1416.78
                             1480.13  1518.36  1540.29  1559.04  1590.80
                             1610.90  1648.52  1731.79  1781.70  1884.20
                             1940.56  1986.62  2025.21  2032.54  2051.83
                             2137.52  2142.05  2144.91  2155.61  2162.30
                             2706.27  4323.78  4358.32  4383.41  4445.20
                             4472.31  4487.75  4501.64  4506.57  4618.27
                             4632.80

 Zero-point correction=                           0.159179 (Hartree/Particle)
 Thermal correction to Energy=                    0.167649
 Thermal correction to Enthalpy=                  0.168594
 Thermal correction to Gibbs Free Energy=         0.126438
 Sum of electronic and zero-point Energies=           -423.075155
 Sum of electronic and thermal Energies=              -423.066685
 Sum of electronic and thermal Enthalpies=            -423.065741
 Sum of electronic and thermal Free Energies=         -423.107896

                     E (Thermal)             CV                S
                      KCal/Mol        Cal/Mol-Kelvin    Cal/Mol-Kelvin
 Total                  105.202             32.530             88.723
 Electronic               0.000              0.000              0.000
 Translational            0.889              2.981             40.409
 Rotational               0.889              2.981             28.638
 Vibrational            103.424             26.569             19.677
 Vibration     1          0.611              1.924              2.964
 Vibration     2          0.615              1.913              2.794
 Vibration     3          0.635              1.848              2.187
 Vibration     4          0.650              1.803              1.917
 Vibration     5          0.659              1.775              1.784
 Vibration     6          0.683              1.701              1.502
 Vibration     7          0.714              1.612              1.252
 Vibration     8          0.750              1.512              1.038
 Vibration     9          0.859              1.242              0.649
 Vibration    10          0.867              1.224              0.630
 Vibration    11          0.918              1.112              0.518

 Optimization completed.
    -- Stationary point found.
 Normal termination of Gaussian 09 at Tue Jan 28 01:22:14 2020.
