 Gaussian 09, Revision D.01,
 Gaussian 09:  ES64L-G09RevD.01 24-Apr-2013

 -----------------------------
 # b3lyp 6-31G(2df,p) opt Freq
 -----------------------------

 -----
 titel
 -----
 Symbolic Z-matrix:
 Charge =  0 Multiplicity = 1

 SCF Done:  E(RB3LYP) =  -423.141696030     A.U. after   14 cycles
 Optimization completed.
    -- Stationary point found.
 Normal termination of Gaussian 09 at Mon Jan 27 14:01:49 2020.

 ----------------------------------------------------------------------
 #N Geom=AllCheck Guess=TCheck SCRF=Check GenChk RB3LYP/6-31G(2df,p) Fr
 eq
 ----------------------------------------------------------------------

 Structure from the checkpoint file:  "/scratch/puck/g09_e7c14548-9bec-480c-a09d-1593201493e1/Gau-40326.chk"
 -----
 titel
 -----
 Charge =  0 Multiplicity = 1

                         Standard orientation:
 ---------------------------------------------------------------------
 Center     Atomic      Atomic             Coordinates (Angstroms)
 Number     Number       Type             X           Y           Z
 ---------------------------------------------------------------------
      1          6           0        3.719847   -0.273780    0.084831
      2          6           0        2.319186    0.014434   -0.187592
      3          6           0        1.170050    0.280178   -0.441225
      4          6           0       -0.236066    0.552586   -0.694647
      5          8           0       -0.746220    1.695248    0.034758
      6          6           0       -1.461633    0.855297    0.966095
      7          6           0       -1.229758   -0.396756    0.079781
      8          6           0       -2.434743   -0.818582   -0.740872
      9          8           0       -0.693163   -1.537096    0.683838
     10          1           0        3.947071   -1.330918   -0.090129
     11          1           0        4.376235    0.319401   -0.560864
     12          1           0        3.977816   -0.044598    1.124293
     13          1           0       -0.426975    0.655572   -1.769471
     14          1           0       -0.956270    0.792472    1.939094
     15          1           0       -2.495159    1.188622    1.110089
     16          1           0       -2.135122   -1.533948   -1.512276
     17          1           0       -3.175257   -1.301505   -0.095998
     18          1           0       -2.899555    0.047802   -1.219583
     19          1           0        0.220978   -1.338383    0.927846
 ---------------------------------------------------------------------

 SCF Done:  E(RB3LYP) =  -423.141696030     A.U. after    1 cycles

 The electronic state is 1-A.
 Alpha  occ. eigenvalues --  -19.13841 -19.13727 -10.25090 -10.24602 -10.22344
 Alpha  occ. eigenvalues --  -10.21390 -10.19235 -10.17947 -10.17832  -1.04950
 Alpha  occ. eigenvalues --   -1.01728  -0.79138  -0.76386  -0.73892  -0.68153
 Alpha  occ. eigenvalues --   -0.66429  -0.57151  -0.53516  -0.50492  -0.47350
 Alpha  occ. eigenvalues --   -0.46707  -0.43689  -0.43641  -0.43411  -0.40240
 Alpha  occ. eigenvalues --   -0.39889  -0.38896  -0.38438  -0.35555  -0.30685
 Alpha  occ. eigenvalues --   -0.27838  -0.26760  -0.25738  -0.25093
 Alpha virt. eigenvalues --    0.02153   0.04080   0.08937   0.10358   0.11742
 Alpha virt. eigenvalues --    0.13017   0.13435   0.15173   0.16150   0.16453
 Alpha virt. eigenvalues --    0.16944   0.17541   0.18456   0.19826   0.20538

 Mulliken charges:
               1
     1  C   -0.501782
     2  C    0.100749
     3  C    0.080914
     4  C   -0.169110
     5  O   -0.274891
     6  C   -0.124075
     7  C    0.350563
     8  C   -0.423573
     9  O   -0.466292
    10  H    0.155280
    11  H    0.157467
    12  H    0.154880
    13  H    0.098971
    14  H    0.097477
    15  H    0.104211
    16  H    0.126046
    17  H    0.127653
    18  H    0.125816
    19  H    0.279697
 Sum of Mulliken charges =   0.00000

 Dipole moment (field-independent basis, Debye):
    X=              1.3758    Y=             -0.7268    Z=              0.0255  Tot=              1.5562
 Quadrupole moment (field-independent basis, Debye-Ang):
   XX=            -42.2273   YY=            -60.3794   ZZ=            -51.2561
   XY=             -2.3027   XZ=              1.6155   YZ=              0.8616

  Exact polarizability: 113.459  -5.042  63.979   2.511   0.042  65.755
 Approx polarizability: 153.134 -12.127  97.322   6.505  -4.094  97.126

                      1                      2                      3
                      A                      A                      A
 Frequencies --     37.6659                63.4738                86.4627
 Red. masses --      1.0235                 3.1094                 3.9972
 Frc consts  --      0.0009                 0.0074                 0.0176
 IR Inten    --      0.0156                 1.9789                 0.5468

                      4                      5                      6
                      A                      A                      A
 Frequencies --    147.0181               247.2394               248.7467
 Red. masses --      4.4895                 1.9009                 1.4834
 Frc consts  --      0.0572                 0.0685                 0.0541
 IR Inten    --      2.5190                 2.9283                 6.0143

                      7                      8                      9
                      A                      A                      A
 Frequencies --    279.0303               319.5053               357.5384
 Red. masses --      2.6081                 3.0110                 2.5316
 Frc consts  --      0.1196                 0.1811                 0.1907
 IR Inten    --      4.9332                 3.4853                17.1431

                     10                     11                     12
                      A                      A                      A
 Frequencies --    384.7238               411.7990               426.6838
 Red. masses --      1.3628                 3.9905                 2.8763
 Frc consts  --      0.1188                 0.3987                 0.3085
 IR Inten    --     59.7997                22.9416                 2.9079

                     13                     14                     15
                      A                      A                      A
 Frequencies --    497.6778               566.8166               668.3632
 Red. masses --      5.9634                 4.2851                 5.1531
 Frc consts  --      0.8702                 0.8111                 1.3563
 IR Inten    --      2.4216                12.1868                 2.1930

                     16                     17                     18
                      A                      A                      A
 Frequencies --    806.9318               861.5788               910.6696
 Red. masses --      3.8488                 2.9320                 2.0409
 Frc consts  --      1.4765                 1.2824                 0.9972
 IR Inten    --      7.3762                 9.2484                 4.1056

                     19                     20                     21
                      A                      A                      A
 Frequencies --    920.7190               986.5456               995.1963
 Red. masses --      1.9127                 3.0942                 2.5967
 Frc consts  --      0.9553                 1.7743                 1.5153
 IR Inten    --      6.7524                25.7608                68.7902

                     22                     23                     24
                      A                      A                      A
 Frequencies --   1014.1839              1051.3185              1053.8197
 Red. masses --      5.5212                 1.4034                 1.4093
 Frc consts  --      3.3459                 0.9139                 0.9221
 IR Inten    --     63.4271                 2.2672                 0.8662

                     25                     26                     27
                      A                      A                      A
 Frequencies --   1134.0148              1152.1427              1164.9856
 Red. masses --      1.8739                 1.2820                 2.1628
 Frc consts  --      1.4198                 1.0027                 1.7294
 IR Inten    --     13.8185                 2.0421                 6.1535

                     28                     29                     30
                      A                      A                      A
 Frequencies --   1173.0776              1223.6999              1263.3346
 Red. masses --      3.0283                 1.5266                 2.6891
 Frc consts  --      2.4553                 1.3469                 2.5287
 IR Inten    --      8.7344                 5.1798                90.1037

                     31                     32                     33
                      A                      A                      A
 Frequencies --   1329.7082              1347.4746              1395.5758
 Red. masses --      1.3697                 1.4573                 1.2655
 Frc consts  --      1.4268                 1.5590                 1.4522
 IR Inten    --     26.0691                11.1294                28.6800

                     34                     35                     36
                      A                      A                      A
 Frequencies --   1413.1145              1431.6255              1475.3944
 Red. masses --      1.2448                 1.6986                 1.0393
 Frc consts  --      1.4645                 2.0511                 1.3329
 IR Inten    --      7.2594                44.2738                 6.6527

                     37                     38                     39
                      A                      A                      A
 Frequencies --   1477.1270              1484.1619              1495.8615
 Red. masses --      1.0394                 1.0512                 1.0578
 Frc consts  --      1.3362                 1.3642                 1.3946
 IR Inten    --      6.4424                 2.2061                 0.6648

                     40                     41                     42
                      A                      A                      A
 Frequencies --   1516.4429              2353.0754              3010.4387
 Red. masses --      1.1012                11.8519                 1.0586
 Frc consts  --      1.4920                38.6644                 5.6523
 IR Inten    --      1.4299                18.2416                64.1241

                     43                     44                     45
                      A                      A                      A
 Frequencies --   3030.8821              3034.2888              3041.9938
 Red. masses --      1.0346                 1.0808                 1.0380
 Frc consts  --      5.5999                 5.8628                 5.6593
 IR Inten    --     24.5561                15.3770                18.5410

                     46                     47                     48
                      A                      A                      A
 Frequencies --   3071.3404              3094.1385              3094.5548
 Red. masses --      1.1070                 1.1002                 1.1004
 Frc consts  --      6.1525                 6.2058                 6.2089
 IR Inten    --     43.9848                 7.2379                 7.0867

                     49                     50                     51
                      A                      A                      A
 Frequencies --   3115.7744              3122.6969              3745.4229
 Red. masses --      1.1018                 1.1025                 1.0653
 Frc consts  --      6.3023                 6.3340                 8.8048
 IR Inten    --     16.5025                17.5231                56.6737

 - Thermochemistry -
 -------------------
 Temperature   298.150 Kelvin.  Pressure   1.00000 Atm.
 Atom     1 has atomic number  6 and mass  12.00000

 Molecular mass:   126.06808 amu.
 Principal axes and moments of inertia in atomic units:
                           1         2         3
     Eigenvalues --   594.901601818.275062068.21820
           X            0.99992  -0.00367   0.01207
           Y            0.00320   0.99925   0.03853
           Z           -0.01221  -0.03849   0.99918
 This molecule is an asymmetric top.
 Rotational symmetry number  1.
 Warning -- assumption of classical behavior for rotation
           may cause significant error
 Rotational temperatures (Kelvin)      0.14559     0.04764     0.04188
 Rotational constants (GHZ):           3.03368     0.99256     0.87261
 Zero-point vibrational energy     409936.6 (Joules/Mol)
                                   97.97721 (Kcal/Mol)
 Warning -- explicit consideration of  14 degrees of freedom as
           vibrations may cause significant error
 Vibrational temperatures:     54.19    91.32   124.40   211.53   355.72
          (Kelvin)            357.89   401.46   459.70   514.42   553.53
                              592.49   613.90   716.05   815.52   961.62
                             1160.99  1239.62  1310.25  1324.71  1419.42
                             1431.86  1459.18  1512.61  1516.21  1631.59
                             1657.67  1676.15  1687.79  1760.63  1817.65
                             1913.15  1938.71  2007.92  2033.15  2059.79
                             2122.76  2125.25  2135.38  2152.21  2181.82
                             3385.55  4331.34  4360.76  4365.66  4376.75
                             4418.97  4451.77  4452.37  4482.90  4492.86
                             5388.82

 Zero-point correction=                           0.156137 (Hartree/Particle)
 Thermal correction to Energy=                    0.166246
 Thermal correction to Enthalpy=                  0.167190
 Thermal correction to Gibbs Free Energy=         0.120119
 Sum of electronic and zero-point Energies=           -422.985559
 Sum of electronic and thermal Energies=              -422.975450
 Sum of electronic and thermal Enthalpies=            -422.974506
 Sum of electronic and thermal Free Energies=         -423.021577

                     E (Thermal)             CV                S
                      KCal/Mol        Cal/Mol-Kelvin    Cal/Mol-Kelvin
 Total                  104.321             36.020             99.069
 Electronic               0.000              0.000              0.000
 Translational            0.889              2.981             40.409
 Rotational               0.889              2.981             29.194
 Vibrational            102.543             30.059             29.467
 Vibration     1          0.594              1.982              5.378
 Vibration     2          0.597              1.972              4.346
 Vibration     3          0.601              1.959              3.739
 Vibration     4          0.617              1.906              2.710
 Vibration     5          0.661              1.767              1.750
 Vibration     6          0.662              1.765              1.739
 Vibration     7          0.679              1.712              1.540
 Vibration     8          0.705              1.636              1.313
 Vibration     9          0.733              1.560              1.133
 Vibration    10          0.754              1.503              1.021
 Vibration    11          0.776              1.445              0.920
 Vibration    12          0.788              1.412              0.870
 Vibration    13          0.853              1.255              0.664
 Vibration    14          0.923              1.103              0.510

 Optimization completed on the basis of negligible forces.
    -- Stationary point found.
 Normal termination of Gaussian 09 at Mon Jan 27 14:39:03 2020.
