 Gaussian 09, Revision D.01,
 Gaussian 09:  ES64L-G09RevD.01 24-Apr-2013

 -----------------------------
 # b3lyp 6-31G(2df,p) opt Freq
 -----------------------------

 -----
 titel
 -----
 Symbolic Z-matrix:
 Charge =  0 Multiplicity = 1

 SCF Done:  E(RB3LYP) =  -423.176156971     A.U. after   14 cycles
 Optimization completed.
    -- Stationary point found.
 Normal termination of Gaussian 09 at Tue Jan 28 09:47:11 2020.

 ----------------------------------------------------------------------
 #N Geom=AllCheck Guess=TCheck SCRF=Check GenChk RB3LYP/6-31G(2df,p) Fr
 eq
 ----------------------------------------------------------------------

 Structure from the checkpoint file:  "/scratch/puck/g09_0a6a48ed-fd20-47b2-a820-f77906e030ad/Gau-106600.chk"
 -----
 titel
 -----
 Charge =  0 Multiplicity = 1

                         Standard orientation:
 ---------------------------------------------------------------------
 Center     Atomic      Atomic             Coordinates (Angstroms)
 Number     Number       Type             X           Y           Z
 ---------------------------------------------------------------------
      1          6           0        2.855012   -1.015276   -0.105595
      2          6           0        1.512539   -0.365660   -0.004533
      3          6           0        0.358714   -0.790960   -0.532683
      4          6           0       -0.740671    0.193107   -0.292774
      5          6           0       -2.191152   -0.215036   -0.255605
      6          8           0       -2.415457   -1.321626    0.603594
      7          8           0       -0.479884    1.491565   -0.885980
      8          6           0       -0.139216    1.294711    0.488506
      9          6           0        1.325517    0.956703    0.728603
     10          1           0        3.562791   -0.376159   -0.648832
     11          1           0        3.289837   -1.186428    0.887493
     12          1           0        2.798955   -1.975213   -0.625512
     13          1           0        0.218922   -1.707791   -1.092530
     14          1           0       -2.803888    0.658639    0.010467
     15          1           0       -2.508786   -0.544931   -1.251056
     16          1           0       -2.115911   -1.073474    1.484355
     17          1           0       -0.697046    1.903551    1.196837
     18          1           0        1.990519    1.738794    0.341587
     19          1           0        1.542873    0.857966    1.800762
 ---------------------------------------------------------------------

 SCF Done:  E(RB3LYP) =  -423.176156971     A.U. after    1 cycles

 The electronic state is 1-A.
 Alpha  occ. eigenvalues --  -19.14482 -19.13961 -10.23515 -10.23392 -10.23047
 Alpha  occ. eigenvalues --  -10.19521 -10.19264 -10.18639 -10.17599  -1.06632
 Alpha  occ. eigenvalues --   -1.01941  -0.82801  -0.73656  -0.72663  -0.68730
 Alpha  occ. eigenvalues --   -0.62266  -0.56823  -0.53737  -0.52326  -0.47219
 Alpha  occ. eigenvalues --   -0.45009  -0.44451  -0.43567  -0.42332  -0.41249
 Alpha  occ. eigenvalues --   -0.38825  -0.38451  -0.36395  -0.35271  -0.33695
 Alpha  occ. eigenvalues --   -0.29908  -0.28104  -0.25496  -0.23655
 Alpha virt. eigenvalues --    0.00555   0.07558   0.09887   0.10607   0.11693
 Alpha virt. eigenvalues --    0.13771   0.14229   0.14549   0.16200   0.17283
 Alpha virt. eigenvalues --    0.17779   0.17880   0.18979   0.20383   0.22832

 Mulliken charges:
               1
     1  C   -0.485408
     2  C    0.306041
     3  C   -0.233470
     4  C    0.360167
     5  C   -0.165303
     6  O   -0.408271
     7  O   -0.301544
     8  C   -0.042757
     9  C   -0.334106
    10  H    0.131781
    11  H    0.124280
    12  H    0.128264
    13  H    0.098078
    14  H    0.098483
    15  H    0.118746
    16  H    0.283505
    17  H    0.090177
    18  H    0.124090
    19  H    0.107247
 Sum of Mulliken charges =   0.00000

 Dipole moment (field-independent basis, Debye):
    X=              1.4146    Y=              0.0563    Z=              1.9181  Tot=              2.3840
 Quadrupole moment (field-independent basis, Debye-Ang):
   XX=            -52.4314   YY=            -56.5611   ZZ=            -50.8160
   XY=             -2.7175   XZ=             -0.5766   YZ=              3.8982

  Exact polarizability:  94.029  -0.237  73.197   6.677   6.776  64.617
 Approx polarizability: 126.618   6.634 111.323  15.494   7.901 104.911

                      1                      2                      3
                      A                      A                      A
 Frequencies --     78.4838               115.4015               177.0147
 Red. masses --      2.9538                 3.6785                 1.1708
 Frc consts  --      0.0107                 0.0289                 0.0216
 IR Inten    --      1.9674                 0.4575                 0.6078

                      4                      5                      6
                      A                      A                      A
 Frequencies --    196.6967               237.1939               309.8029
 Red. masses --      2.4452                 2.0932                 1.4483
 Frc consts  --      0.0557                 0.0694                 0.0819
 IR Inten    --      0.0852                16.6108                67.6909

                      7                      8                      9
                      A                      A                      A
 Frequencies --    330.7322               389.8619               425.8940
 Red. masses --      2.2192                 2.0602                 3.4248
 Frc consts  --      0.1430                 0.1845                 0.3660
 IR Inten    --     29.2946                23.8406                11.1410

                     10                     11                     12
                      A                      A                      A
 Frequencies --    455.9372               537.9639               586.6672
 Red. masses --      3.3996                 4.1019                 3.9598
 Frc consts  --      0.4164                 0.6994                 0.8030
 IR Inten    --      6.5190                 3.6689                21.6644

                     13                     14                     15
                      A                      A                      A
 Frequencies --    650.5333               775.6410               809.8476
 Red. masses --      3.7601                 4.1634                 2.0741
 Frc consts  --      0.9375                 1.4758                 0.8015
 IR Inten    --      0.5747                 9.7324                 5.6565

                     16                     17                     18
                      A                      A                      A
 Frequencies --    865.9366               877.6563               921.1576
 Red. masses --      2.9306                 2.4035                 2.4742
 Frc consts  --      1.2947                 1.0908                 1.2369
 IR Inten    --     12.6833                17.1557                18.5909

                     19                     20                     21
                      A                      A                      A
 Frequencies --    936.4154               975.1330              1003.3981
 Red. masses --      2.0149                 1.8368                 1.4338
 Frc consts  --      1.0410                 1.0290                 0.8505
 IR Inten    --      1.3557                 0.2554                12.5120

                     22                     23                     24
                      A                      A                      A
 Frequencies --   1021.0037              1042.9180              1079.6461
 Red. masses --      1.6911                 1.9861                 2.7137
 Frc consts  --      1.0387                 1.2728                 1.8637
 IR Inten    --      5.9650                18.0700                48.7011

                     25                     26                     27
                      A                      A                      A
 Frequencies --   1095.6340              1154.6903              1186.1449
 Red. masses --      2.3684                 1.5641                 1.3392
 Frc consts  --      1.6751                 1.2287                 1.1101
 IR Inten    --     18.9896                 4.9722                27.7854

                     28                     29                     30
                      A                      A                      A
 Frequencies --   1193.9001              1244.8406              1296.9493
 Red. masses --      1.3089                 1.8014                 1.4311
 Frc consts  --      1.0993                 1.6447                 1.4183
 IR Inten    --      2.9374                 7.7792                 6.8618

                     31                     32                     33
                      A                      A                      A
 Frequencies --   1329.6232              1330.9971              1366.2827
 Red. masses --      2.3543                 2.2002                 1.4085
 Frc consts  --      2.4523                 2.2965                 1.5492
 IR Inten    --      8.5209                 2.4798                 6.2981

                     34                     35                     36
                      A                      A                      A
 Frequencies --   1412.0810              1417.5865              1441.7812
 Red. masses --      1.2935                 1.3079                 3.1658
 Frc consts  --      1.5196                 1.5485                 3.8773
 IR Inten    --      0.6751                48.8944                 7.2240

                     37                     38                     39
                      A                      A                      A
 Frequencies --   1459.2207              1478.1809              1487.1449
 Red. masses --      1.1243                 1.0467                 1.0789
 Frc consts  --      1.4105                 1.3475                 1.4059
 IR Inten    --      2.4783                 7.0219                 7.7421

                     40                     41                     42
                      A                      A                      A
 Frequencies --   1504.4488              1700.8658              3001.7666
 Red. masses --      1.0843                 6.9803                 1.0667
 Frc consts  --      1.4459                11.8977                 5.6629
 IR Inten    --      0.5805                18.6788                50.2888

                     43                     44                     45
                      A                      A                      A
 Frequencies --   3016.3504              3021.6587              3057.8621
 Red. masses --      1.0428                 1.0572                 1.0990
 Frc consts  --      5.5898                 5.6869                 6.0548
 IR Inten    --     14.7100                43.7618                 7.7241

                     46                     47                     48
                      A                      A                      A
 Frequencies --   3063.6702              3069.1298              3113.6228
 Red. masses --      1.0983                 1.0963                 1.0989
 Frc consts  --      6.0736                 6.0845                 6.2769
 IR Inten    --     23.8784                24.8665                16.8925

                     49                     50                     51
                      A                      A                      A
 Frequencies --   3133.8638              3207.0973              3812.4828
 Red. masses --      1.0908                 1.0943                 1.0661
 Frc consts  --      6.3117                 6.6317                 9.1301
 IR Inten    --     29.3754                 7.6592                12.7722

 - Thermochemistry -
 -------------------
 Temperature   298.150 Kelvin.  Pressure   1.00000 Atm.
 Atom     1 has atomic number  6 and mass  12.00000

 Molecular mass:   126.06808 amu.
 Principal axes and moments of inertia in atomic units:
                           1         2         3
     Eigenvalues --   639.484241466.236371791.36820
           X            0.99966  -0.02582   0.00282
           Y            0.02559   0.99771   0.06267
           Z           -0.00443  -0.06257   0.99803
 This molecule is an asymmetric top.
 Rotational symmetry number  1.
 Warning -- assumption of classical behavior for rotation
           may cause significant error
 Rotational temperatures (Kelvin)      0.13544     0.05907     0.04835
 Rotational constants (GHZ):           2.82218     1.23087     1.00747
 Zero-point vibrational energy     415097.1 (Joules/Mol)
                                   99.21058 (Kcal/Mol)
 Warning -- explicit consideration of  12 degrees of freedom as
           vibrations may cause significant error
 Vibrational temperatures:    112.92   166.04   254.68   283.00   341.27
          (Kelvin)            445.74   475.85   560.92   612.77   655.99
                              774.01   844.08   935.97  1115.97  1165.19
                             1245.89  1262.75  1325.34  1347.29  1403.00
                             1443.66  1468.99  1500.52  1553.37  1576.37
                             1661.34  1706.60  1717.75  1791.05  1866.02
                             1913.03  1915.01  1965.77  2031.67  2039.59
                             2074.40  2099.49  2126.77  2139.67  2164.56
                             2447.16  4318.87  4339.85  4347.49  4399.58
                             4407.93  4415.79  4479.80  4508.93  4614.29
                             5485.31

 Zero-point correction=                           0.158102 (Hartree/Particle)
 Thermal correction to Energy=                    0.166964
 Thermal correction to Enthalpy=                  0.167908
 Thermal correction to Gibbs Free Energy=         0.124526
 Sum of electronic and zero-point Energies=           -423.018055
 Sum of electronic and thermal Energies=              -423.009193
 Sum of electronic and thermal Enthalpies=            -423.008249
 Sum of electronic and thermal Free Energies=         -423.051631

                     E (Thermal)             CV                S
                      KCal/Mol        Cal/Mol-Kelvin    Cal/Mol-Kelvin
 Total                  104.771             33.437             91.305
 Electronic               0.000              0.000              0.000
 Translational            0.889              2.981             40.409
 Rotational               0.889              2.981             28.909
 Vibrational            102.994             27.475             21.988
 Vibration     1          0.600              1.964              3.928
 Vibration     2          0.608              1.937              3.176
 Vibration     3          0.628              1.871              2.360
 Vibration     4          0.636              1.844              2.164
 Vibration     5          0.656              1.784              1.824
 Vibration     6          0.699              1.655              1.363
 Vibration     7          0.713              1.614              1.257
 Vibration     8          0.758              1.492              1.001
 Vibration     9          0.788              1.414              0.872
 Vibration    10          0.814              1.348              0.778
 Vibration    11          0.893              1.166              0.570
 Vibration    12          0.944              1.060              0.473

 Normal termination of Gaussian 09 at Tue Jan 28 10:29:05 2020.
