 Gaussian 09, Revision D.01,
 Gaussian 09:  ES64L-G09RevD.01 24-Apr-2013

 -----------------------------
 # b3lyp 6-31G(2df,p) opt Freq
 -----------------------------

 -----
 titel
 -----
 Symbolic Z-matrix:
 Charge =  0 Multiplicity = 1

 SCF Done:  E(RB3LYP) =  -423.090064291     A.U. after   12 cycles
 Optimization completed.
    -- Stationary point found.
 Normal termination of Gaussian 09 at Tue Jan 28 09:38:41 2020.

 ----------------------------------------------------------------------
 #N Geom=AllCheck Guess=TCheck SCRF=Check GenChk RB3LYP/6-31G(2df,p) Fr
 eq
 ----------------------------------------------------------------------

 Structure from the checkpoint file:  "/scratch/puck/g09_f925e0f4-d2f1-4bbb-a273-fe76e9d8c367/Gau-106278.chk"
 -----
 titel
 -----
 Charge =  0 Multiplicity = 1

                         Standard orientation:
 ---------------------------------------------------------------------
 Center     Atomic      Atomic             Coordinates (Angstroms)
 Number     Number       Type             X           Y           Z
 ---------------------------------------------------------------------
      1          8           0        2.748560   -1.164140    0.353395
      2          6           0        2.118875   -0.245436   -0.533905
      3          6           0        0.769074    0.208789   -0.066650
      4          6           0        0.579193    1.279804    0.975884
      5          6           0        0.006486    1.485043   -0.404687
      6          6           0       -1.273824    0.661345   -0.689671
      7          6           0       -1.738591   -0.206363    0.448760
      8          8           0       -2.910967   -0.946666    0.259946
      9          6           0       -0.520570   -0.626513   -0.333311
     10          1           0        2.160488   -1.918928    0.459231
     11          1           0        2.794194    0.614830   -0.596049
     12          1           0        2.040424   -0.672545   -1.547512
     13          1           0       -0.035844    1.150843    1.858446
     14          1           0        1.478215    1.858782    1.167584
     15          1           0        0.324719    2.304468   -1.037826
     16          1           0       -1.923025    0.855316   -1.535804
     17          1           0       -1.694226    0.105386    1.485483
     18          1           0       -2.982649   -1.180436   -0.671934
     19          1           0       -0.506908   -1.571280   -0.866872
 ---------------------------------------------------------------------

 SCF Done:  E(RB3LYP) =  -423.090064291     A.U. after    1 cycles

 The electronic state is 1-A.
 Alpha  occ. eigenvalues --  -19.14835 -19.13141 -10.24240 -10.22917 -10.20080
 Alpha  occ. eigenvalues --  -10.19925 -10.19606 -10.19457 -10.19101  -1.03465
 Alpha  occ. eigenvalues --   -1.01194  -0.91753  -0.79877  -0.70276  -0.64478
 Alpha  occ. eigenvalues --   -0.62486  -0.58210  -0.53297  -0.52479  -0.50186
 Alpha  occ. eigenvalues --   -0.48845  -0.45885  -0.42774  -0.42705  -0.39971
 Alpha  occ. eigenvalues --   -0.37960  -0.37168  -0.35492  -0.33100  -0.32464
 Alpha  occ. eigenvalues --   -0.29789  -0.26972  -0.24201  -0.21620
 Alpha virt. eigenvalues --    0.05545   0.06723   0.08845   0.10014   0.10985
 Alpha virt. eigenvalues --    0.12765   0.13983   0.15284   0.16113   0.16712
 Alpha virt. eigenvalues --    0.17092   0.18854   0.20884   0.21958   0.23157

 Mulliken charges:
               1
     1  O   -0.413330
     2  C   -0.175055
     3  C    0.328037
     4  C   -0.350630
     5  C   -0.122131
     6  C   -0.123530
     7  C    0.133533
     8  O   -0.442069
     9  C   -0.199260
    10  H    0.283404
    11  H    0.107635
    12  H    0.084986
    13  H    0.118671
    14  H    0.116452
    15  H    0.093538
    16  H    0.087315
    17  H    0.105931
    18  H    0.284824
    19  H    0.081681
 Sum of Mulliken charges =   0.00000

 Dipole moment (field-independent basis, Debye):
    X=             -0.5395    Y=              0.1385    Z=             -1.8008  Tot=              1.8850
 Quadrupole moment (field-independent basis, Debye-Ang):
   XX=            -62.9361   YY=            -50.3090   ZZ=            -51.1861
   XY=              2.0693   XZ=              2.5586   YZ=              1.8199

  Exact polarizability:  84.262   3.289  72.907   1.491   1.018  67.207
 Approx polarizability: 113.478   1.559 112.296   2.600  -1.176 105.012

                      1                      2                      3
                      A                      A                      A
 Frequencies --     76.8369               122.2259               203.8918
 Red. masses --      3.7735                 3.7465                 1.9784
 Frc consts  --      0.0131                 0.0330                 0.0485
 IR Inten    --      1.5811                 1.6902                14.2662

                      4                      5                      6
                      A                      A                      A
 Frequencies --    228.6130               258.7287               294.9633
 Red. masses --      1.1588                 1.5325                 2.3911
 Frc consts  --      0.0357                 0.0604                 0.1226
 IR Inten    --     84.3703                71.4220                15.7704

                      7                      8                      9
                      A                      A                      A
 Frequencies --    319.1192               366.1011               398.7865
 Red. masses --      3.8446                 3.1952                 3.0615
 Frc consts  --      0.2307                 0.2523                 0.2869
 IR Inten    --      4.6793                20.8002                 1.1903

                     10                     11                     12
                      A                      A                      A
 Frequencies --    419.6635               536.1405               670.3793
 Red. masses --      3.0357                 2.5926                 3.0309
 Frc consts  --      0.3150                 0.4391                 0.8025
 IR Inten    --      2.8608                 5.6393                 5.0936

                     13                     14                     15
                      A                      A                      A
 Frequencies --    766.8548               775.5005               841.0600
 Red. masses --      1.7747                 2.4554                 4.8159
 Frc consts  --      0.6149                 0.8700                 2.0071
 IR Inten    --      7.4854                 2.6604                22.2231

                     16                     17                     18
                      A                      A                      A
 Frequencies --    876.6796               894.2032               903.1089
 Red. masses --      1.9098                 2.0224                 2.8915
 Frc consts  --      0.8648                 0.9528                 1.3895
 IR Inten    --      9.5560                 7.1403                13.6231

                     19                     20                     21
                      A                      A                      A
 Frequencies --    923.3988               955.0375               979.1785
 Red. masses --      2.0776                 1.4468                 1.3403
 Frc consts  --      1.0437                 0.7775                 0.7571
 IR Inten    --      2.3460                 1.8588                 1.1870

                     22                     23                     24
                      A                      A                      A
 Frequencies --    998.2993              1032.6861              1049.7919
 Red. masses --      1.8899                 1.8253                 3.3096
 Frc consts  --      1.1097                 1.1469                 2.1490
 IR Inten    --     10.9961                59.4740                87.1751

                     25                     26                     27
                      A                      A                      A
 Frequencies --   1064.8534              1081.1591              1104.9999
 Red. masses --      1.3565                 2.0802                 1.3987
 Frc consts  --      0.9063                 1.4326                 1.0062
 IR Inten    --      2.2455                 8.0990                 3.7230

                     28                     29                     30
                      A                      A                      A
 Frequencies --   1121.9234              1135.5089              1154.7145
 Red. masses --      1.6138                 2.4020                 1.5048
 Frc consts  --      1.1968                 1.8247                 1.1821
 IR Inten    --     33.9406                80.6171                17.7662

                     31                     32                     33
                      A                      A                      A
 Frequencies --   1225.7695              1255.0916              1265.4766
 Red. masses --      1.5816                 1.5862                 1.5587
 Frc consts  --      1.4001                 1.4722                 1.4707
 IR Inten    --     13.6819                12.6207                 6.1797

                     34                     35                     36
                      A                      A                      A
 Frequencies --   1300.2915              1335.4657              1373.7626
 Red. masses --      2.0522                 2.2100                 1.2375
 Frc consts  --      2.0443                 2.3222                 1.3761
 IR Inten    --      1.0708                 4.8386                 2.6563

                     37                     38                     39
                      A                      A                      A
 Frequencies --   1381.2625              1421.2712              1458.6318
 Red. masses --      1.6761                 1.3474                 2.0012
 Frc consts  --      1.8841                 1.6036                 2.5086
 IR Inten    --     15.8321                84.7536                52.5674

                     40                     41                     42
                      A                      A                      A
 Frequencies --   1494.5118              1507.7353              2965.6431
 Red. masses --      1.1351                 1.2041                 1.0705
 Frc consts  --      1.4937                 1.6127                 5.5474
 IR Inten    --      2.5320                 9.8125                65.3835

                     43                     44                     45
                      A                      A                      A
 Frequencies --   3068.0954              3129.9151              3158.4075
 Red. masses --      1.0914                 1.0564                 1.0892
 Frc consts  --      6.0532                 6.0977                 6.4016
 IR Inten    --     25.2251                 9.2521                12.5369

                     46                     47                     48
                      A                      A                      A
 Frequencies --   3172.4594              3176.6734              3184.9082
 Red. masses --      1.0955                 1.0869                 1.0951
 Frc consts  --      6.4964                 6.4623                 6.5446
 IR Inten    --     10.6925                23.2784                13.4149

                     49                     50                     51
                      A                      A                      A
 Frequencies --   3211.3422              3805.7913              3815.2428
 Red. masses --      1.1110                 1.0657                 1.0663
 Frc consts  --      6.7503                 9.0945                 9.1444
 IR Inten    --     16.5937                18.2625                15.0314

 - Thermochemistry -
 -------------------
 Temperature   298.150 Kelvin.  Pressure   1.00000 Atm.
 Atom     1 has atomic number  8 and mass  15.99491

 Molecular mass:   126.06808 amu.
 Principal axes and moments of inertia in atomic units:
                           1         2         3
     Eigenvalues --   561.721731640.221921887.51224
           X            0.99997   0.00707   0.00117
           Y           -0.00711   0.99923   0.03860
           Z           -0.00090  -0.03860   0.99925
 This molecule is an asymmetric top.
 Rotational symmetry number  1.
 Warning -- assumption of classical behavior for rotation
           may cause significant error
 Rotational temperatures (Kelvin)      0.15419     0.05281     0.04589
 Rotational constants (GHZ):           3.21287     1.10030     0.95615
 Zero-point vibrational energy     414279.7 (Joules/Mol)
                                   99.01522 (Kcal/Mol)
 Warning -- explicit consideration of  11 degrees of freedom as
           vibrations may cause significant error
 Vibrational temperatures:    110.55   175.86   293.35   328.92   372.25
          (Kelvin)            424.39   459.14   526.74   573.76   603.80
                              771.39   964.53  1103.33  1115.77  1210.10
                             1261.34  1286.56  1299.37  1328.56  1374.08
                             1408.82  1436.33  1485.80  1510.41  1532.08
                             1555.54  1589.85  1614.20  1633.74  1661.37
                             1763.61  1805.79  1820.74  1870.83  1921.43
                             1976.54  1987.33  2044.89  2098.64  2150.27
                             2169.29  4266.89  4414.30  4503.24  4544.24
                             4564.46  4570.52  4582.37  4620.40  5475.68
                             5489.28

 Zero-point correction=                           0.157791 (Hartree/Particle)
 Thermal correction to Energy=                    0.166622
 Thermal correction to Enthalpy=                  0.167567
 Thermal correction to Gibbs Free Energy=         0.124352
 Sum of electronic and zero-point Energies=           -422.932273
 Sum of electronic and thermal Energies=              -422.923442
 Sum of electronic and thermal Enthalpies=            -422.922498
 Sum of electronic and thermal Free Energies=         -422.965712

                     E (Thermal)             CV                S
                      KCal/Mol        Cal/Mol-Kelvin    Cal/Mol-Kelvin
 Total                  104.557             33.925             90.953
 Electronic               0.000              0.000              0.000
 Translational            0.889              2.981             40.409
 Rotational               0.889              2.981             28.943
 Vibrational            102.780             27.963             21.601
 Vibration     1          0.599              1.965              3.970
 Vibration     2          0.610              1.931              3.065
 Vibration     3          0.640              1.834              2.098
 Vibration     4          0.651              1.797              1.890
 Vibration     5          0.668              1.748              1.670
 Vibration     6          0.689              1.683              1.445
 Vibration     7          0.705              1.637              1.315
 Vibration     8          0.739              1.542              1.096
 Vibration     9          0.765              1.473              0.967
 Vibration    10          0.782              1.428              0.893
 Vibration    11          0.891              1.170              0.574

 Optimization completed.
    -- Stationary point found.
 Normal termination of Gaussian 09 at Tue Jan 28 10:20:23 2020.
