 Gaussian 09, Revision D.01,
 Gaussian 09:  ES64L-G09RevD.01 24-Apr-2013

 -----------------------------
 # b3lyp 6-31G(2df,p) opt Freq
 -----------------------------

 -----
 titel
 -----
 Symbolic Z-matrix:
 Charge =  0 Multiplicity = 1

 SCF Done:  E(RB3LYP) =  -423.136521205     A.U. after   14 cycles
 Optimization completed.
    -- Stationary point found.
 Normal termination of Gaussian 09 at Mon Jan 27 17:11:44 2020.

 ----------------------------------------------------------------------
 #N Geom=AllCheck Guess=TCheck SCRF=Check GenChk RB3LYP/6-31G(2df,p) Fr
 eq
 ----------------------------------------------------------------------

 Structure from the checkpoint file:  "/scratch/puck/g09_ba87098c-e295-4245-be7f-8ebe94fbd3ad/Gau-78773.chk"
 -----
 titel
 -----
 Charge =  0 Multiplicity = 1

                         Standard orientation:
 ---------------------------------------------------------------------
 Center     Atomic      Atomic             Coordinates (Angstroms)
 Number     Number       Type             X           Y           Z
 ---------------------------------------------------------------------
      1          6           0       -2.999083   -0.700484   -0.157379
      2          6           0       -1.637016   -0.124344    0.065207
      3          6           0       -1.185717    1.360077    0.148867
      4          6           0        0.069176    0.458104    0.069348
      5          6           0        1.509957    0.831850   -0.154545
      6          6           0        2.398784   -0.385660   -0.334838
      7          8           0        3.438733   -0.556791    0.247048
      8          6           0       -0.561669   -0.492938    1.120074
      9          8           0       -0.606257   -0.329228   -0.995932
     10          1           0       -3.450995   -0.280238   -1.060803
     11          1           0       -2.942457   -1.787319   -0.269691
     12          1           0       -3.649061   -0.473326    0.693399
     13          1           0       -1.383925    1.953832   -0.745158
     14          1           0       -1.373132    1.905300    1.077818
     15          1           0        1.570113    1.430025   -1.074884
     16          1           0        1.892000    1.434549    0.674337
     17          1           0        2.013889   -1.126415   -1.067764
     18          1           0       -0.213151   -1.526517    1.083265
     19          1           0       -0.689682   -0.121362    2.140141
 ---------------------------------------------------------------------

 SCF Done:  E(RB3LYP) =  -423.136521205     A.U. after    1 cycles

 The electronic state is 1-A.
 Alpha  occ. eigenvalues --  -19.13994 -19.13241 -10.27210 -10.26110 -10.25807
 Alpha  occ. eigenvalues --  -10.20104 -10.19550 -10.19480 -10.18939  -1.05757
 Alpha  occ. eigenvalues --   -1.04631  -0.80068  -0.78161  -0.73767  -0.68633
 Alpha  occ. eigenvalues --   -0.60108  -0.56710  -0.54581  -0.48390  -0.47067
 Alpha  occ. eigenvalues --   -0.45907  -0.45621  -0.44951  -0.43346  -0.41628
 Alpha  occ. eigenvalues --   -0.40988  -0.37678  -0.36193  -0.35302  -0.33090
 Alpha  occ. eigenvalues --   -0.32511  -0.31646  -0.25297  -0.23923
 Alpha virt. eigenvalues --   -0.02356   0.08833   0.09530   0.10653   0.12380
 Alpha virt. eigenvalues --    0.13204   0.13366   0.13795   0.15052   0.15380
 Alpha virt. eigenvalues --    0.16135   0.16471   0.16954   0.19272   0.20571

 Mulliken charges:
               1
     1  C   -0.508955
     2  C    0.406829
     3  C   -0.302739
     4  C    0.402937
     5  C   -0.414985
     6  C    0.157614
     7  O   -0.241255
     8  C   -0.292064
     9  O   -0.375903
    10  H    0.134975
    11  H    0.135689
    12  H    0.128787
    13  H    0.104121
    14  H    0.094918
    15  H    0.134704
    16  H    0.129278
    17  H    0.101966
    18  H    0.107721
    19  H    0.096363
 Sum of Mulliken charges =   0.00000

 Dipole moment (field-independent basis, Debye):
    X=             -2.9081    Y=              1.3241    Z=              0.5711  Tot=              3.2460
 Quadrupole moment (field-independent basis, Debye-Ang):
   XX=            -61.0987   YY=            -51.7776   ZZ=            -53.5382
   XY=              3.0755   XZ=             -3.9811   YZ=             -0.4209

  Exact polarizability:  92.600  -0.646  72.013   2.817   0.233  67.124
 Approx polarizability: 121.445  -3.090 106.378   6.888   2.046 109.077

                      1                      2                      3
                      A                      A                      A
 Frequencies --     51.4641                66.0729               140.0408
 Red. masses --      4.8010                 3.5638                 2.6454
 Frc consts  --      0.0075                 0.0092                 0.0306
 IR Inten    --      5.8326                 2.1621                 2.6454

                      4                      5                      6
                      A                      A                      A
 Frequencies --    193.6815               220.4676               278.4910
 Red. masses --      1.0725                 2.4614                 2.9809
 Frc consts  --      0.0237                 0.0705                 0.1362
 IR Inten    --      0.0416                 2.0378                 4.3409

                      7                      8                      9
                      A                      A                      A
 Frequencies --    363.1677               394.6037               452.8321
 Red. masses --      2.6322                 2.9649                 3.4970
 Frc consts  --      0.2045                 0.2720                 0.4225
 IR Inten    --      3.4050                 2.7081                11.7335

                     10                     11                     12
                      A                      A                      A
 Frequencies --    523.1953               598.1567               621.4291
 Red. masses --      1.7589                 2.5466                 3.3038
 Frc consts  --      0.2837                 0.5368                 0.7517
 IR Inten    --      3.3619                 3.6124                 3.0647

                     13                     14                     15
                      A                      A                      A
 Frequencies --    660.1946               693.8916               781.7620
 Red. masses --      2.4210                 4.9873                 2.5402
 Frc consts  --      0.6217                 1.4148                 0.9147
 IR Inten    --      9.1153                33.8526                 0.3021

                     16                     17                     18
                      A                      A                      A
 Frequencies --    808.4881               892.9499               942.0680
 Red. masses --      1.9286                 2.3581                 2.1857
 Frc consts  --      0.7428                 1.1078                 1.1429
 IR Inten    --      2.4456                 6.7413                 1.8637

                     19                     20                     21
                      A                      A                      A
 Frequencies --    954.7114               985.5477              1010.7291
 Red. masses --      5.4179                 1.4225                 1.2573
 Frc consts  --      2.9096                 0.8140                 0.7567
 IR Inten    --      9.1861                 0.2720                 1.2742

                     22                     23                     24
                      A                      A                      A
 Frequencies --   1035.2525              1080.5952              1098.7089
 Red. masses --      1.7659                 2.1054                 1.6639
 Frc consts  --      1.1151                 1.4485                 1.1834
 IR Inten    --     12.7329                40.1459                15.0979

                     25                     26                     27
                      A                      A                      A
 Frequencies --   1122.6923              1129.7754              1160.0657
 Red. masses --      1.7108                 1.6175                 1.4606
 Frc consts  --      1.2705                 1.2164                 1.1581
 IR Inten    --      1.7733                 6.5879                 0.8361

                     28                     29                     30
                      A                      A                      A
 Frequencies --   1172.4834              1201.0938              1236.2433
 Red. masses --      1.8235                 2.2049                 1.5754
 Frc consts  --      1.4770                 1.8741                 1.4186
 IR Inten    --      7.7308                 5.5680                26.2288

                     31                     32                     33
                      A                      A                      A
 Frequencies --   1277.6364              1311.4918              1373.3487
 Red. masses --      1.9369                 2.0017                 2.1349
 Frc consts  --      1.8629                 2.0285                 2.3724
 IR Inten    --     46.2109                40.0095                 6.0551

                     34                     35                     36
                      A                      A                      A
 Frequencies --   1415.8172              1424.2657              1441.8620
 Red. masses --      1.6046                 1.1998                 1.1007
 Frc consts  --      1.8951                 1.4340                 1.3483
 IR Inten    --      7.7148                 7.6504                 7.2976

                     37                     38                     39
                      A                      A                      A
 Frequencies --   1466.8200              1477.0293              1488.9600
 Red. masses --      1.1271                 1.0472                 1.0467
 Frc consts  --      1.4287                 1.3461                 1.3672
 IR Inten    --      1.9066                 3.6179                 4.7520

                     40                     41                     42
                      A                      A                      A
 Frequencies --   1524.2371              1833.1424              2912.4836
 Red. masses --      1.4527                 9.9039                 1.0840
 Frc consts  --      1.9886                19.6087                 5.4177
 IR Inten    --      1.1532               183.5014                62.2627

                     43                     44                     45
                      A                      A                      A
 Frequencies --   3020.6626              3040.5997              3054.6331
 Red. masses --      1.0643                 1.0348                 1.0559
 Frc consts  --      5.7218                 5.6367                 5.8050
 IR Inten    --      6.9072                16.0030                33.3312

                     46                     47                     48
                      A                      A                      A
 Frequencies --   3064.5698              3102.5946              3115.0794
 Red. masses --      1.0561                 1.0961                 1.1010
 Frc consts  --      5.8435                 6.2168                 6.2947
 IR Inten    --     24.8087                 6.0201                 9.6965

                     49                     50                     51
                      A                      A                      A
 Frequencies --   3116.8153              3137.6003              3142.7800
 Red. masses --      1.1020                 1.1099                 1.1110
 Frc consts  --      6.3072                 6.4379                 6.4651
 IR Inten    --     10.6913                14.5378                34.0289

 - Thermochemistry -
 -------------------
 Temperature   298.150 Kelvin.  Pressure   1.00000 Atm.
 Atom     1 has atomic number  6 and mass  12.00000

 Molecular mass:   126.06808 amu.
 Principal axes and moments of inertia in atomic units:
                           1         2         3
     Eigenvalues --   411.974041952.071642034.39526
           X            0.99990   0.01289  -0.00642
           Y           -0.01296   0.99986  -0.01076
           Z            0.00628   0.01084   0.99992
 This molecule is an asymmetric top.
 Rotational symmetry number  1.
 Rotational temperatures (Kelvin)      0.21024     0.04437     0.04257
 Rotational constants (GHZ):           4.38072     0.92453     0.88711
 Zero-point vibrational energy     410398.6 (Joules/Mol)
                                   98.08761 (Kcal/Mol)
 Warning -- explicit consideration of  11 degrees of freedom as
           vibrations may cause significant error
 Vibrational temperatures:     74.05    95.06   201.49   278.66   317.20
          (Kelvin)            400.69   522.52   567.75   651.52   752.76
                              860.61   894.10   949.87   998.35  1124.78
                             1163.23  1284.75  1355.42  1373.62  1417.98
                             1454.21  1489.50  1554.73  1580.80  1615.30
                             1625.49  1669.07  1686.94  1728.10  1778.68
                             1838.23  1886.94  1975.94  2037.04  2049.20
                             2074.52  2110.42  2125.11  2142.28  2193.03
                             2637.48  4190.41  4346.05  4374.74  4394.93
                             4409.23  4463.94  4481.90  4484.40  4514.30
                             4521.75

 Zero-point correction=                           0.156313 (Hartree/Particle)
 Thermal correction to Energy=                    0.165323
 Thermal correction to Enthalpy=                  0.166267
 Thermal correction to Gibbs Free Energy=         0.121848
 Sum of electronic and zero-point Energies=           -422.980209
 Sum of electronic and thermal Energies=              -422.971198
 Sum of electronic and thermal Enthalpies=            -422.970254
 Sum of electronic and thermal Free Energies=         -423.014673

                     E (Thermal)             CV                S
                      KCal/Mol        Cal/Mol-Kelvin    Cal/Mol-Kelvin
 Total                  103.742             33.330             93.488
 Electronic               0.000              0.000              0.000
 Translational            0.889              2.981             40.409
 Rotational               0.889              2.981             28.883
 Vibrational            101.964             27.368             24.197
 Vibration     1          0.596              1.977              4.760
 Vibration     2          0.597              1.970              4.267
 Vibration     3          0.615              1.913              2.803
 Vibration     4          0.635              1.849              2.192
 Vibration     5          0.647              1.810              1.955
 Vibration     6          0.679              1.713              1.543
 Vibration     7          0.737              1.548              1.109
 Vibration     8          0.762              1.482              0.983
 Vibration     9          0.811              1.355              0.787
 Vibration    10          0.878              1.199              0.603
 Vibration    11          0.956              1.036              0.453

 Optimization completed.
    -- Stationary point found.
 Normal termination of Gaussian 09 at Mon Jan 27 17:58:28 2020.
