 Gaussian 09, Revision D.01,
 Gaussian 09:  ES64L-G09RevD.01 24-Apr-2013

 -----------------------------
 # b3lyp 6-31G(2df,p) opt Freq
 -----------------------------

 -----
 titel
 -----
 Symbolic Z-matrix:
 Charge =  0 Multiplicity = 1

 SCF Done:  E(RB3LYP) =  -423.161086720     A.U. after   14 cycles
 Optimization completed.
    -- Stationary point found.
 Normal termination of Gaussian 09 at Mon Jan 27 16:37:00 2020.

 ----------------------------------------------------------------------
 #N Geom=AllCheck Guess=TCheck SCRF=Check GenChk RB3LYP/6-31G(2df,p) Fr
 eq
 ----------------------------------------------------------------------

 Structure from the checkpoint file:  "/scratch/puck/g09_8e36f14d-3a73-4217-82d8-c017bcc8e4ff/Gau-164564.chk"
 -----
 titel
 -----
 Charge =  0 Multiplicity = 1

                         Standard orientation:
 ---------------------------------------------------------------------
 Center     Atomic      Atomic             Coordinates (Angstroms)
 Number     Number       Type             X           Y           Z
 ---------------------------------------------------------------------
      1          8           0       -0.094238   -1.303245    1.176510
      2          6           0        0.139230   -0.525515    0.015657
      3          6           0       -1.175465   -0.559315   -0.777369
      4          6           0       -2.307674    0.008588    0.056801
      5          8           0       -2.653335    1.163384    0.011753
      6          6           0        1.392061   -0.872029   -0.871344
      7          6           0        1.865494    0.577638   -0.716753
      8          6           0        2.095075    0.871935    0.734638
      9          6           0        0.683828    0.896447    0.205555
     10          1           0        0.607661   -1.115338    1.808071
     11          1           0       -1.071763    0.040210   -1.685070
     12          1           0       -1.394131   -1.599798   -1.042999
     13          1           0       -2.795995   -0.708770    0.748841
     14          1           0        2.056460   -1.636266   -0.454499
     15          1           0        1.121929   -1.158448   -1.890141
     16          1           0        2.281772    1.191519   -1.504719
     17          1           0        2.446498    0.084488    1.400897
     18          1           0        2.504335    1.848912    0.969521
     19          1           0        0.068529    1.785887    0.260886
 ---------------------------------------------------------------------

 SCF Done:  E(RB3LYP) =  -423.161086720     A.U. after    1 cycles

 The electronic state is 1-A.
 Alpha  occ. eigenvalues --  -19.14417 -19.13569 -10.26656 -10.25330 -10.20134
 Alpha  occ. eigenvalues --  -10.19838 -10.19479 -10.19092 -10.18840  -1.04217
 Alpha  occ. eigenvalues --   -1.02938  -0.89786  -0.77744  -0.71245  -0.64295
 Alpha  occ. eigenvalues --   -0.59524  -0.57098  -0.55914  -0.52255  -0.48843
 Alpha  occ. eigenvalues --   -0.47574  -0.44683  -0.42957  -0.41404  -0.40459
 Alpha  occ. eigenvalues --   -0.39311  -0.38912  -0.36729  -0.36160  -0.32328
 Alpha  occ. eigenvalues --   -0.29767  -0.27333  -0.27245  -0.24217
 Alpha virt. eigenvalues --   -0.02058   0.06914   0.09634   0.10916   0.11445
 Alpha virt. eigenvalues --    0.12476   0.13530   0.14745   0.15525   0.16747
 Alpha virt. eigenvalues --    0.17463   0.17972   0.19726   0.21091   0.23014

 Mulliken charges:
               1
     1  O   -0.487519
     2  C    0.395573
     3  C   -0.308170
     4  C    0.153842
     5  O   -0.249890
     6  C   -0.309594
     7  C   -0.027907
     8  C   -0.308539
     9  C   -0.093784
    10  H    0.281846
    11  H    0.122869
    12  H    0.113207
    13  H    0.093571
    14  H    0.096505
    15  H    0.107086
    16  H    0.092260
    17  H    0.095422
    18  H    0.121443
    19  H    0.111779
 Sum of Mulliken charges =   0.00000

 Dipole moment (field-independent basis, Debye):
    X=              2.4212    Y=             -1.0165    Z=             -0.3196  Tot=              2.6453
 Quadrupole moment (field-independent basis, Debye-Ang):
   XX=            -56.5328   YY=            -55.7053   ZZ=            -50.4106
   XY=              5.4358   XZ=              2.3886   YZ=              0.6300

  Exact polarizability:  83.058   1.162  73.632  -0.781   0.904  68.680
 Approx polarizability: 110.817  -3.249 116.102  -1.940  -0.854 104.896

                      1                      2                      3
                      A                      A                      A
 Frequencies --     41.6565                84.4471               161.7091
 Red. masses --      4.7018                 4.9348                 2.6720
 Frc consts  --      0.0048                 0.0207                 0.0412
 IR Inten    --      8.7536                 3.4395                 1.7560

                      4                      5                      6
                      A                      A                      A
 Frequencies --    192.2606               262.5982               289.5679
 Red. masses --      2.4816                 1.4702                 2.2194
 Frc consts  --      0.0540                 0.0597                 0.1096
 IR Inten    --      7.0061                25.9425                38.7017

                      7                      8                      9
                      A                      A                      A
 Frequencies --    353.7141               401.6752               438.7297
 Red. masses --      2.7631                 2.1394                 2.9301
 Frc consts  --      0.2037                 0.2034                 0.3323
 IR Inten    --      6.8870                 3.0080                 2.0693

                     10                     11                     12
                      A                      A                      A
 Frequencies --    516.7142               534.7108               633.7267
 Red. masses --      2.6932                 2.2225                 4.1204
 Frc consts  --      0.4237                 0.3744                 0.9750
 IR Inten    --      8.5757                16.3785                 5.6425

                     13                     14                     15
                      A                      A                      A
 Frequencies --    755.4219               791.2595               843.7670
 Red. masses --      2.2459                 1.9647                 2.2917
 Frc consts  --      0.7551                 0.7247                 0.9613
 IR Inten    --      1.6776                 6.1051                 0.7419

                     16                     17                     18
                      A                      A                      A
 Frequencies --    877.6117               899.1487               946.5484
 Red. masses --      1.9898                 2.0856                 1.6102
 Frc consts  --      0.9029                 0.9934                 0.8500
 IR Inten    --     29.1577                 8.1818                 6.9509

                     19                     20                     21
                      A                      A                      A
 Frequencies --    949.9568               978.0533               990.3021
 Red. masses --      1.9423                 1.4395                 2.0025
 Frc consts  --      1.0327                 0.8113                 1.1571
 IR Inten    --      8.6154                 2.2877                 0.7804

                     22                     23                     24
                      A                      A                      A
 Frequencies --   1012.1785              1025.0479              1068.0694
 Red. masses --      2.6762                 1.5594                 1.2668
 Frc consts  --      1.6154                 0.9654                 0.8514
 IR Inten    --     27.9389                 2.0760                 2.4593

                     25                     26                     27
                      A                      A                      A
 Frequencies --   1084.3962              1104.8767              1112.7160
 Red. masses --      1.4888                 1.6497                 2.3360
 Frc consts  --      1.0315                 1.1865                 1.7041
 IR Inten    --      2.0006                19.2506                 5.1759

                     28                     29                     30
                      A                      A                      A
 Frequencies --   1138.0130              1159.8692              1200.7098
 Red. masses --      1.7205                 1.8737                 1.5206
 Frc consts  --      1.3128                 1.4852                 1.2916
 IR Inten    --      3.4733                86.0450                14.7965

                     31                     32                     33
                      A                      A                      A
 Frequencies --   1239.2968              1267.2428              1284.8998
 Red. masses --      1.5403                 1.5570                 1.7539
 Frc consts  --      1.3938                 1.4732                 1.7061
 IR Inten    --      3.4129                19.3146                 6.3332

                     34                     35                     36
                      A                      A                      A
 Frequencies --   1311.5458              1341.9405              1390.0718
 Red. masses --      1.6067                 2.0961                 1.9787
 Frc consts  --      1.6283                 2.2240                 2.2527
 IR Inten    --      8.6236                11.5978                91.5795

                     37                     38                     39
                      A                      A                      A
 Frequencies --   1425.9852              1461.6223              1478.7032
 Red. masses --      1.1889                 1.1087                 1.1173
 Frc consts  --      1.4243                 1.3955                 1.4394
 IR Inten    --      9.7323                 5.4516                 3.4241

                     40                     41                     42
                      A                      A                      A
 Frequencies --   1498.1825              1821.8383              2914.8434
 Red. masses --      1.1950                 9.8011                 1.0844
 Frc consts  --      1.5803                19.1666                 5.4283
 IR Inten    --      2.6437               140.8057                99.7449

                     43                     44                     45
                      A                      A                      A
 Frequencies --   3044.1617              3046.7280              3087.8898
 Red. masses --      1.0604                 1.0618                 1.0624
 Frc consts  --      5.7898                 5.8071                 5.9684
 IR Inten    --      7.2868                40.1981                24.4704

                     46                     47                     48
                      A                      A                      A
 Frequencies --   3108.4647              3117.3450              3189.8767
 Red. masses --      1.1042                 1.1026                 1.1000
 Frc consts  --      6.2860                 6.3132                 6.5944
 IR Inten    --     16.5262                13.4987                 2.5913

                     49                     50                     51
                      A                      A                      A
 Frequencies --   3191.7079              3205.5450              3817.2969
 Red. masses --      1.0933                 1.0995                 1.0657
 Frc consts  --      6.5621                 6.6568                 9.1492
 IR Inten    --      8.8589                16.4352                15.0574

 - Thermochemistry -
 -------------------
 Temperature   298.150 Kelvin.  Pressure   1.00000 Atm.
 Atom     1 has atomic number  8 and mass  15.99491

 Molecular mass:   126.06808 amu.
 Principal axes and moments of inertia in atomic units:
                           1         2         3
     Eigenvalues --   616.599461498.284131626.46951
           X            0.99965   0.02533   0.00719
           Y           -0.02578   0.99705   0.07236
           Z           -0.00533  -0.07252   0.99735
 This molecule is an asymmetric top.
 Rotational symmetry number  1.
 Warning -- assumption of classical behavior for rotation
           may cause significant error
 Rotational temperatures (Kelvin)      0.14047     0.05781     0.05325
 Rotational constants (GHZ):           2.92693     1.20454     1.10961
 Zero-point vibrational energy     413277.7 (Joules/Mol)
                                   98.77575 (Kcal/Mol)
 Warning -- explicit consideration of  11 degrees of freedom as
           vibrations may cause significant error
 Vibrational temperatures:     59.93   121.50   232.66   276.62   377.82
          (Kelvin)            416.62   508.92   577.92   631.23   743.44
                              769.33   911.79  1086.88  1138.44  1213.99
                             1262.69  1293.67  1361.87  1366.77  1407.20
                             1424.82  1456.30  1474.81  1536.71  1560.20
                             1589.67  1600.95  1637.34  1668.79  1727.55
                             1783.07  1823.28  1848.68  1887.02  1930.75
                             2000.00  2051.67  2102.95  2127.52  2155.55
                             2621.22  4193.80  4379.86  4383.56  4442.78
                             4472.38  4485.16  4589.52  4592.15  4612.06
                             5492.23

 Zero-point correction=                           0.157409 (Hartree/Particle)
 Thermal correction to Energy=                    0.166291
 Thermal correction to Enthalpy=                  0.167236
 Thermal correction to Gibbs Free Energy=         0.123188
 Sum of electronic and zero-point Energies=           -423.003678
 Sum of electronic and thermal Energies=              -422.994795
 Sum of electronic and thermal Enthalpies=            -422.993851
 Sum of electronic and thermal Free Energies=         -423.037899

                     E (Thermal)             CV                S
                      KCal/Mol        Cal/Mol-Kelvin    Cal/Mol-Kelvin
 Total                  104.349             33.307             92.707
 Electronic               0.000              0.000              0.000
 Translational            0.889              2.981             40.409
 Rotational               0.889              2.981             28.798
 Vibrational            102.572             27.346             23.500
 Vibration     1          0.594              1.981              5.179
 Vibration     2          0.601              1.960              3.785
 Vibration     3          0.622              1.889              2.530
 Vibration     4          0.634              1.851              2.206
 Vibration     5          0.670              1.741              1.644
 Vibration     6          0.686              1.693              1.476
 Vibration     7          0.730              1.568              1.150
 Vibration     8          0.767              1.467              0.957
 Vibration     9          0.799              1.386              0.831
 Vibration    10          0.872              1.213              0.618
 Vibration    11          0.890              1.173              0.577

 Optimization completed.
    -- Stationary point found.
 Normal termination of Gaussian 09 at Mon Jan 27 17:22:47 2020.
