 Gaussian 09, Revision D.01,
 Gaussian 09:  ES64L-G09RevD.01 24-Apr-2013

 -----------------------------
 # b3lyp 6-31G(2df,p) opt Freq
 -----------------------------

 -----
 titel
 -----
 Symbolic Z-matrix:
 Charge =  0 Multiplicity = 1

 SCF Done:  E(RB3LYP) =  -423.196427757     A.U. after   14 cycles
 Optimization completed.
    -- Stationary point found.
 Normal termination of Gaussian 09 at Tue Jan 28 02:52:33 2020.

 ----------------------------------------------------------------------
 #N Geom=AllCheck Guess=TCheck SCRF=Check GenChk RB3LYP/6-31G(2df,p) Fr
 eq
 ----------------------------------------------------------------------

 Structure from the checkpoint file:  "/scratch/puck/g09_f5d6b1d7-44ab-4308-ba6b-7e33070fc37e/Gau-196318.chk"
 -----
 titel
 -----
 Charge =  0 Multiplicity = 1

                         Standard orientation:
 ---------------------------------------------------------------------
 Center     Atomic      Atomic             Coordinates (Angstroms)
 Number     Number       Type             X           Y           Z
 ---------------------------------------------------------------------
      1          8           0       -3.116252    0.073043   -0.397992
      2          6           0       -1.704375   -0.005837   -0.499465
      3          6           0       -1.086022    1.232174    0.184117
      4          6           0        0.246577    0.761321    0.738511
      5          6           0        0.248460   -0.735172    0.768547
      6          6           0       -1.085557   -1.226580    0.234388
      7          6           0        1.156127   -0.005170   -0.223024
      8          6           0        2.603848    0.000921    0.068668
      9          8           0        3.479084   -0.016619   -0.761577
     10          1           0       -3.497349   -0.628610   -0.934870
     11          1           0       -1.409836   -0.026434   -1.558145
     12          1           0       -1.005701    2.084008   -0.497124
     13          1           0       -1.743985    1.527628    1.009353
     14          1           0        0.728350    1.343501    1.516648
     15          1           0        0.731675   -1.284834    1.569368
     16          1           0       -1.000840   -2.107023   -0.411572
     17          1           0       -1.740732   -1.487097    1.073838
     18          1           0        0.915152   -0.026017   -1.280837
     19          1           0        2.846261    0.023551    1.159441
 ---------------------------------------------------------------------

 SCF Done:  E(RB3LYP) =  -423.196427757     A.U. after    1 cycles

 The electronic state is 1-A.
 Alpha  occ. eigenvalues --  -19.14364 -19.12873 -10.26584 -10.24182 -10.21018
 Alpha  occ. eigenvalues --  -10.20933 -10.20295 -10.19255 -10.19123  -1.03685
 Alpha  occ. eigenvalues --   -1.02632  -0.89963  -0.77101  -0.72418  -0.66267
 Alpha  occ. eigenvalues --   -0.59562  -0.57552  -0.56632  -0.52352  -0.50229
 Alpha  occ. eigenvalues --   -0.46999  -0.44546  -0.42275  -0.42192  -0.40937
 Alpha  occ. eigenvalues --   -0.38803  -0.37954  -0.37799  -0.36793  -0.32502
 Alpha  occ. eigenvalues --   -0.29673  -0.28919  -0.27349  -0.24595
 Alpha virt. eigenvalues --   -0.01548   0.06451   0.08795   0.09287   0.12424
 Alpha virt. eigenvalues --    0.12682   0.13573   0.13980   0.15910   0.16995
 Alpha virt. eigenvalues --    0.17484   0.18402   0.19407   0.19740   0.23743

 Mulliken charges:
               1
     1  O   -0.436856
     2  C    0.117641
     3  C   -0.232144
     4  C   -0.062403
     5  C   -0.055760
     6  C   -0.264545
     7  C   -0.109840
     8  C    0.155420
     9  O   -0.273888
    10  H    0.283954
    11  H    0.077269
    12  H    0.110832
    13  H    0.121285
    14  H    0.095481
    15  H    0.095352
    16  H    0.100991
    17  H    0.114980
    18  H    0.101467
    19  H    0.060765
 Sum of Mulliken charges =   0.00000

 Dipole moment (field-independent basis, Debye):
    X=             -2.5854    Y=             -0.9386    Z=              0.8577  Tot=              2.8811
 Quadrupole moment (field-independent basis, Debye-Ang):
   XX=            -67.3999   YY=            -51.2105   ZZ=            -51.2864
   XY=              4.1416   XZ=              8.3340   YZ=              1.2276

  Exact polarizability:  97.201   1.110  66.767  -2.219   0.884  68.609
 Approx polarizability: 129.751   0.542  99.872 -12.819   1.830 111.013

                      1                      2                      3
                      A                      A                      A
 Frequencies --     97.9352               100.0818               192.2186
 Red. masses --      4.9837                 5.2327                 3.1544
 Frc consts  --      0.0282                 0.0309                 0.0687
 IR Inten    --      3.4162                 5.2790                 1.7222

                      4                      5                      6
                      A                      A                      A
 Frequencies --    249.0591               281.2149               294.4604
 Red. masses --      2.0752                 1.1370                 2.2271
 Frc consts  --      0.0758                 0.0530                 0.1138
 IR Inten    --      6.2307                88.8298                 3.8091

                      7                      8                      9
                      A                      A                      A
 Frequencies --    343.5321               373.1730               471.1608
 Red. masses --      5.0597                 2.9236                 2.0962
 Frc consts  --      0.3518                 0.2399                 0.2742
 IR Inten    --      8.9147                 9.2766                 1.3050

                     10                     11                     12
                      A                      A                      A
 Frequencies --    511.5395               615.6454               654.0577
 Red. masses --      5.2122                 4.0641                 4.0835
 Frc consts  --      0.8036                 0.9076                 1.0292
 IR Inten    --     30.8413                 0.5058                 0.1995

                     13                     14                     15
                      A                      A                      A
 Frequencies --    802.5465               845.9212               872.2975
 Red. masses --      3.7929                 2.3307                 2.4995
 Frc consts  --      1.4393                 0.9826                 1.1206
 IR Inten    --      3.5862                 0.3325                23.8827

                     16                     17                     18
                      A                      A                      A
 Frequencies --    898.6839               914.0298               997.7692
 Red. masses --      1.4374                 1.9215                 2.2055
 Frc consts  --      0.6840                 0.9458                 1.2936
 IR Inten    --      0.7419                 1.3636                 9.9457

                     19                     20                     21
                      A                      A                      A
 Frequencies --   1007.9933              1013.6022              1053.1668
 Red. masses --      1.5356                 1.6872                 1.9353
 Frc consts  --      0.9192                 1.0213                 1.2647
 IR Inten    --      4.0189                 3.3411                 3.1622

                     22                     23                     24
                      A                      A                      A
 Frequencies --   1065.5673              1089.6028              1098.3669
 Red. masses --      2.2979                 2.0486                 1.1625
 Frc consts  --      1.5373                 1.4330                 0.8263
 IR Inten    --      4.5058               121.6804                13.4755

                     25                     26                     27
                      A                      A                      A
 Frequencies --   1100.0847              1149.5850              1177.8192
 Red. masses --      2.2506                 1.9978                 1.3059
 Frc consts  --      1.6048                 1.5555                 1.0674
 IR Inten    --     68.8237                13.9522                 0.0143

                     28                     29                     30
                      A                      A                      A
 Frequencies --   1204.8788              1222.3760              1256.6976
 Red. masses --      1.7265                 1.3145                 1.4377
 Frc consts  --      1.4767                 1.1572                 1.3378
 IR Inten    --     14.0624                 3.4646                20.9608

                     31                     32                     33
                      A                      A                      A
 Frequencies --   1281.7789              1295.0516              1318.5923
 Red. masses --      1.3380                 1.4652                 1.5124
 Frc consts  --      1.2951                 1.4478                 1.5493
 IR Inten    --     20.4848                 5.1670                15.1261

                     34                     35                     36
                      A                      A                      A
 Frequencies --   1320.1412              1370.7796              1408.5869
 Red. masses --      1.4743                 1.4428                 1.7868
 Frc consts  --      1.5138                 1.5973                 2.0887
 IR Inten    --      0.9840                19.5137                 3.1186

                     37                     38                     39
                      A                      A                      A
 Frequencies --   1440.2205              1446.9458              1484.6348
 Red. masses --      1.4017                 1.5524                 1.0908
 Frc consts  --      1.7130                 1.9149                 1.4166
 IR Inten    --      3.9649                11.9439                 1.8389

                     40                     41                     42
                      A                      A                      A
 Frequencies --   1497.0846              1819.8256              2831.3062
 Red. masses --      1.1005                10.0859                 1.0805
 Frc consts  --      1.4532                19.6800                 5.1034
 IR Inten    --      1.5454               296.3593               102.6793

                     43                     44                     45
                      A                      A                      A
 Frequencies --   2993.2420              3036.1885              3047.4570
 Red. masses --      1.0844                 1.0584                 1.0606
 Frc consts  --      5.7242                 5.7484                 5.8033
 IR Inten    --     32.6011                33.0007                20.5072

                     46                     47                     48
                      A                      A                      A
 Frequencies --   3081.0862              3094.8390              3162.4151
 Red. masses --      1.1050                 1.1035                 1.0880
 Frc consts  --      6.1807                 6.2271                 6.4109
 IR Inten    --     22.9231                22.6761                10.1610

                     49                     50                     51
                      A                      A                      A
 Frequencies --   3169.5063              3172.5091              3822.7137
 Red. masses --      1.0934                 1.0880                 1.0663
 Frc consts  --      6.4719                 6.4519                 9.1806
 IR Inten    --      0.6457                20.0069                24.4588

 - Thermochemistry -
 -------------------
 Temperature   298.150 Kelvin.  Pressure   1.00000 Atm.
 Atom     1 has atomic number  8 and mass  15.99491

 Molecular mass:   126.06808 amu.
 Principal axes and moments of inertia in atomic units:
                           1         2         3
     Eigenvalues --   395.990462096.877402180.24784
           X            0.99989   0.00442   0.01411
           Y           -0.00473   0.99975   0.02173
           Z           -0.01401  -0.02179   0.99966
 This molecule is an asymmetric top.
 Rotational symmetry number  1.
 Rotational temperatures (Kelvin)      0.21873     0.04131     0.03973
 Rotational constants (GHZ):           4.55754     0.86068     0.82777
 Zero-point vibrational energy     418991.9 (Joules/Mol)
                                  100.14146 (Kcal/Mol)
 Warning -- explicit consideration of  11 degrees of freedom as
           vibrations may cause significant error
 Vibrational temperatures:    140.91   144.00   276.56   358.34   404.60
          (Kelvin)            423.66   494.27   536.91   677.89   735.99
                              885.78   941.04  1154.68  1217.09  1255.04
                             1293.00  1315.08  1435.57  1450.28  1458.35
                             1515.27  1533.11  1567.69  1580.30  1582.77
                             1653.99  1694.62  1733.55  1758.72  1808.11
                             1844.19  1863.29  1897.16  1899.39  1972.24
                             2026.64  2072.15  2081.83  2136.06  2153.97
                             2618.32  4073.61  4306.60  4368.39  4384.61
                             4432.99  4452.78  4550.00  4560.21  4564.53
                             5500.03

 Zero-point correction=                           0.159586 (Hartree/Particle)
 Thermal correction to Energy=                    0.167993
 Thermal correction to Enthalpy=                  0.168938
 Thermal correction to Gibbs Free Energy=         0.126413
 Sum of electronic and zero-point Energies=           -423.036842
 Sum of electronic and thermal Energies=              -423.028434
 Sum of electronic and thermal Enthalpies=            -423.027490
 Sum of electronic and thermal Free Energies=         -423.070015

                     E (Thermal)             CV                S
                      KCal/Mol        Cal/Mol-Kelvin    Cal/Mol-Kelvin
 Total                  105.417             31.972             89.501
 Electronic               0.000              0.000              0.000
 Translational            0.889              2.981             40.409
 Rotational               0.889              2.981             28.983
 Vibrational            103.640             26.011             20.109
 Vibration     1          0.603              1.951              3.495
 Vibration     2          0.604              1.949              3.453
 Vibration     3          0.634              1.851              2.206
 Vibration     4          0.662              1.764              1.737
 Vibration     5          0.681              1.708              1.526
 Vibration     6          0.689              1.684              1.448
 Vibration     7          0.722              1.588              1.196
 Vibration     8          0.745              1.527              1.067
 Vibration     9          0.828              1.314              0.734
 Vibration    10          0.867              1.224              0.630
 Vibration    11          0.975              0.999              0.424

 Optimization completed.
    -- Stationary point found.
 Normal termination of Gaussian 09 at Tue Jan 28 03:36:46 2020.
