 Gaussian 09, Revision D.01,
 Gaussian 09:  ES64L-G09RevD.01 24-Apr-2013

 -----------------------------
 # b3lyp 6-31G(2df,p) opt Freq
 -----------------------------

 -----
 titel
 -----
 Symbolic Z-matrix:
 Charge =  0 Multiplicity = 1

 SCF Done:  E(RB3LYP) =  -423.150974461     A.U. after   14 cycles
 Optimization completed.
    -- Stationary point found.
 Normal termination of Gaussian 09 at Mon Jan 27 17:14:50 2020.

 ----------------------------------------------------------------------
 #N Geom=AllCheck Guess=TCheck SCRF=Check GenChk RB3LYP/6-31G(2df,p) Fr
 eq
 ----------------------------------------------------------------------

 Structure from the checkpoint file:  "/scratch/puck/g09_59987be6-2498-4856-b594-5c1c9461ae9f/Gau-179328.chk"
 -----
 titel
 -----
 Charge =  0 Multiplicity = 1

                         Standard orientation:
 ---------------------------------------------------------------------
 Center     Atomic      Atomic             Coordinates (Angstroms)
 Number     Number       Type             X           Y           Z
 ---------------------------------------------------------------------
      1          6           0        1.335144   -1.168488   -1.062101
      2          6           0        0.735852   -0.327674    0.053392
      3          8           0        1.776807    0.337622    0.755400
      4          6           0       -0.420665   -0.900679    0.990391
      5          6           0       -0.767450    0.593108    1.303582
      6          6           0       -0.397731    0.744355   -0.220466
      7          8           0       -0.116794    1.948278   -0.844574
      8          6           0       -1.471894   -0.132246   -0.850503
      9          6           0       -1.487336   -1.211901   -0.059747
     10          1           0        2.023217   -1.915262   -0.643433
     11          1           0        0.577199   -1.699002   -1.636825
     12          1           0        1.907410   -0.527775   -1.741008
     13          1           0        2.535072   -0.251662    0.807410
     14          1           0       -0.213037   -1.625235    1.776422
     15          1           0       -1.803093    0.806272    1.572697
     16          1           0       -0.061429    1.077200    1.978909
     17          1           0        0.687530    2.289324   -0.435022
     18          1           0       -2.021462    0.100531   -1.751126
     19          1           0       -2.067033   -2.120440   -0.141920
 ---------------------------------------------------------------------

 SCF Done:  E(RB3LYP) =  -423.150974461     A.U. after    1 cycles

 The electronic state is 1-A.
 Alpha  occ. eigenvalues --  -19.14630 -19.13761 -10.23934 -10.23543 -10.19022
 Alpha  occ. eigenvalues --  -10.17749 -10.17715 -10.17438 -10.17176  -1.03841
 Alpha  occ. eigenvalues --   -1.01768  -0.88011  -0.73261  -0.71560  -0.66122
 Alpha  occ. eigenvalues --   -0.62014  -0.56255  -0.53001  -0.52162  -0.47273
 Alpha  occ. eigenvalues --   -0.45953  -0.44229  -0.42609  -0.40175  -0.39845
 Alpha  occ. eigenvalues --   -0.37736  -0.36657  -0.35584  -0.33983  -0.33142
 Alpha  occ. eigenvalues --   -0.30575  -0.26840  -0.25246  -0.22355
 Alpha virt. eigenvalues --    0.01253   0.06515   0.10655   0.12113   0.13314
 Alpha virt. eigenvalues --    0.13717   0.15998   0.16372   0.17079   0.17444
 Alpha virt. eigenvalues --    0.18152   0.19638   0.19856   0.21564   0.24326

 Mulliken charges:
               1
     1  C   -0.492724
     2  C    0.405992
     3  O   -0.495862
     4  C   -0.159432
     5  C   -0.281902
     6  C    0.349524
     7  O   -0.501989
     8  C   -0.125604
     9  C   -0.096653
    10  H    0.103964
    11  H    0.134012
    12  H    0.126514
    13  H    0.281778
    14  H    0.060145
    15  H    0.091259
    16  H    0.108163
    17  H    0.287202
    18  H    0.105615
    19  H    0.099997
 Sum of Mulliken charges =   0.00000

 Dipole moment (field-independent basis, Debye):
    X=              1.4659    Y=             -1.6713    Z=              0.4344  Tot=              2.2651
 Quadrupole moment (field-independent basis, Debye-Ang):
   XX=            -49.0910   YY=            -52.8563   ZZ=            -54.3265
   XY=              0.5988   XZ=              0.6662   YZ=              0.7595

  Exact polarizability:  78.430   1.913  75.614   1.794  -1.303  71.604
 Approx polarizability: 112.892   4.510 120.527   5.991 -10.166 110.389

                      1                      2                      3
                      A                      A                      A
 Frequencies --    186.7568               192.2136               236.6786
 Red. masses --      3.3365                 2.2619                 1.0716
 Frc consts  --      0.0686                 0.0492                 0.0354
 IR Inten    --      2.0161                 5.3480                54.1532

                      4                      5                      6
                      A                      A                      A
 Frequencies --    245.4760               286.7711               361.4204
 Red. masses --      1.3536                 2.7111                 2.7530
 Frc consts  --      0.0481                 0.1314                 0.2119
 IR Inten    --     34.7966                 5.6950                 4.1012

                      7                      8                      9
                      A                      A                      A
 Frequencies --    393.7194               410.8875               459.8225
 Red. masses --      1.3261                 3.6602                 2.8150
 Frc consts  --      0.1211                 0.3641                 0.3507
 IR Inten    --     81.2278                 0.6545                23.5445

                     10                     11                     12
                      A                      A                      A
 Frequencies --    486.7238               552.9000               571.7094
 Red. masses --      2.1281                 3.1768                 2.9833
 Frc consts  --      0.2970                 0.5722                 0.5745
 IR Inten    --      1.6344                 5.2428                10.1439

                     13                     14                     15
                      A                      A                      A
 Frequencies --    647.7259               665.8941               709.9465
 Red. masses --      2.7423                 4.1933                 3.2235
 Frc consts  --      0.6779                 1.0955                 0.9572
 IR Inten    --     12.0176                 5.6873                 1.4102

                     16                     17                     18
                      A                      A                      A
 Frequencies --    728.8821               842.4898               892.8649
 Red. masses --      1.9997                 3.1582                 2.6768
 Frc consts  --      0.6259                 1.3207                 1.2573
 IR Inten    --     26.7355                 3.5735                 6.8609

                     19                     20                     21
                      A                      A                      A
 Frequencies --    908.7717               927.3117               938.8307
 Red. masses --      1.3961                 1.9510                 2.9104
 Frc consts  --      0.6793                 0.9885                 1.5114
 IR Inten    --      1.7451                 0.8173                10.6249

                     22                     23                     24
                      A                      A                      A
 Frequencies --    949.1968              1006.6353              1044.5210
 Red. masses --      2.0423                 2.4336                 1.3002
 Frc consts  --      1.0841                 1.4529                 0.8358
 IR Inten    --     22.3256                 6.1646                 9.1873

                     25                     26                     27
                      A                      A                      A
 Frequencies --   1062.3353              1078.5127              1109.7429
 Red. masses --      1.6178                 1.3999                 1.2685
 Frc consts  --      1.0757                 0.9594                 0.9204
 IR Inten    --     12.6021                17.9135                26.6443

                     28                     29                     30
                      A                      A                      A
 Frequencies --   1145.1440              1155.1231              1189.2526
 Red. masses --      2.0133                 1.6756                 2.4961
 Frc consts  --      1.5555                 1.3173                 2.0800
 IR Inten    --     59.0588                 3.1253                11.5190

                     31                     32                     33
                      A                      A                      A
 Frequencies --   1208.2997              1247.4470              1280.8233
 Red. masses --      1.7838                 1.4636                 3.4372
 Frc consts  --      1.5344                 1.3419                 3.3222
 IR Inten    --     48.6017                 6.4193               138.8209

                     34                     35                     36
                      A                      A                      A
 Frequencies --   1309.7051              1363.9817              1400.5041
 Red. masses --      1.6279                 1.7840                 1.3027
 Frc consts  --      1.6453                 1.9555                 1.5054
 IR Inten    --    117.2470                32.3583                12.1100

                     37                     38                     39
                      A                      A                      A
 Frequencies --   1413.8267              1484.5308              1492.0650
 Red. masses --      2.0227                 1.0776                 1.1229
 Frc consts  --      2.3822                 1.3992                 1.4729
 IR Inten    --      5.7569                 1.8710                 7.8183

                     40                     41                     42
                      A                      A                      A
 Frequencies --   1501.1716              1619.1646              3019.4684
 Red. masses --      1.0721                 5.8821                 1.0471
 Frc consts  --      1.4235                 9.0859                 5.6245
 IR Inten    --      9.8623                 3.9963                32.3253

                     43                     44                     45
                      A                      A                      A
 Frequencies --   3079.4468              3086.7637              3128.8023
 Red. masses --      1.0559                 1.0930                 1.0905
 Frc consts  --      5.8997                 6.1357                 6.2896
 IR Inten    --     36.2656                17.2572                32.4936

                     46                     47                     48
                      A                      A                      A
 Frequencies --   3151.8967              3154.4342              3219.7418
 Red. masses --      1.1095                 1.0967                 1.0869
 Frc consts  --      6.4942                 6.4293                 6.6389
 IR Inten    --     13.6665                16.8445                 4.4074

                     49                     50                     51
                      A                      A                      A
 Frequencies --   3247.6424              3790.4891              3825.4933
 Red. masses --      1.1092                 1.0653                 1.0664
 Frc consts  --      6.8926                 9.0182                 9.1947
 IR Inten    --      7.1517                29.8001                24.4801

 - Thermochemistry -
 -------------------
 Temperature   298.150 Kelvin.  Pressure   1.00000 Atm.
 Atom     1 has atomic number  6 and mass  12.00000

 Molecular mass:   126.06808 amu.
 Principal axes and moments of inertia in atomic units:
                           1         2         3
     Eigenvalues --   838.72735 942.930271104.97029
           X            0.99737  -0.05558  -0.04660
           Y            0.05993   0.99341   0.09770
           Z            0.04086  -0.10024   0.99412
 This molecule is an asymmetric top.
 Rotational symmetry number  1.
 Warning -- assumption of classical behavior for rotation
           may cause significant error
 Rotational temperatures (Kelvin)      0.10327     0.09186     0.07839
 Rotational constants (GHZ):           2.15176     1.91397     1.63329
 Zero-point vibrational energy     415187.7 (Joules/Mol)
                                   99.23223 (Kcal/Mol)
 Warning -- explicit consideration of  12 degrees of freedom as
           vibrations may cause significant error
 Vibrational temperatures:    268.70   276.55   340.53   353.18   412.60
          (Kelvin)            520.00   566.47   591.17   661.58   700.29
                              795.50   822.56   931.93   958.07  1021.45
                             1048.70  1212.15  1284.63  1307.52  1334.19
                             1350.77  1365.68  1448.32  1502.83  1528.46
                             1551.74  1596.67  1647.60  1661.96  1711.07
                             1738.47  1794.80  1842.82  1884.37  1962.46
                             2015.01  2034.18  2135.91  2146.75  2159.85
                             2329.61  4344.34  4430.63  4441.16  4501.64
                             4534.87  4538.52  4632.48  4672.63  5453.66
                             5504.02

 Zero-point correction=                           0.158137 (Hartree/Particle)
 Thermal correction to Energy=                    0.166464
 Thermal correction to Enthalpy=                  0.167408
 Thermal correction to Gibbs Free Energy=         0.126266
 Sum of electronic and zero-point Energies=           -422.992838
 Sum of electronic and thermal Energies=              -422.984511
 Sum of electronic and thermal Enthalpies=            -422.983567
 Sum of electronic and thermal Free Energies=         -423.024709

                     E (Thermal)             CV                S
                      KCal/Mol        Cal/Mol-Kelvin    Cal/Mol-Kelvin
 Total                  104.457             34.154             86.590
 Electronic               0.000              0.000              0.000
 Translational            0.889              2.981             40.409
 Rotational               0.889              2.981             28.260
 Vibrational            102.680             28.193             17.922
 Vibration     1          0.632              1.858              2.260
 Vibration     2          0.634              1.851              2.206
 Vibration     3          0.656              1.785              1.828
 Vibration     4          0.660              1.770              1.763
 Vibration     5          0.684              1.698              1.493
 Vibration     6          0.736              1.552              1.116
 Vibration     7          0.761              1.484              0.986
 Vibration     8          0.775              1.447              0.923
 Vibration     9          0.818              1.339              0.767
 Vibration    10          0.843              1.279              0.692
 Vibration    11          0.908              1.133              0.538
 Vibration    12          0.928              1.092              0.501

 Optimization completed.
    -- Stationary point found.
 Normal termination of Gaussian 09 at Mon Jan 27 18:02:00 2020.
