 Gaussian 09, Revision D.01,
 Gaussian 09:  ES64L-G09RevD.01 24-Apr-2013

 -----------------------------
 # b3lyp 6-31G(2df,p) opt Freq
 -----------------------------

 -----
 titel
 -----
 Symbolic Z-matrix:
 Charge =  0 Multiplicity = 1

 SCF Done:  E(RB3LYP) =  -423.129952621     A.U. after   13 cycles
 Optimization completed.
    -- Stationary point found.
 Normal termination of Gaussian 09 at Mon Jan 27 18:43:56 2020.

 ----------------------------------------------------------------------
 #N Geom=AllCheck Guess=TCheck SCRF=Check GenChk RB3LYP/6-31G(2df,p) Fr
 eq
 ----------------------------------------------------------------------

 Structure from the checkpoint file:  "/scratch/puck/g09_5ffd75d7-8be3-415b-a545-7a5eb8061739/Gau-172494.chk"
 -----
 titel
 -----
 Charge =  0 Multiplicity = 1

                         Standard orientation:
 ---------------------------------------------------------------------
 Center     Atomic      Atomic             Coordinates (Angstroms)
 Number     Number       Type             X           Y           Z
 ---------------------------------------------------------------------
      1          6           0       -0.735861    1.969242   -0.508504
      2          6           0       -0.623035    0.572205    0.050627
      3          6           0       -1.889553   -0.133081    0.579942
      4          8           0       -1.628833   -1.326234   -0.192799
      5          6           0       -0.430212   -0.766452   -0.753769
      6          6           0        0.807071   -1.124912    0.089997
      7          6           0        2.106186   -0.465731   -0.399975
      8          8           0        1.834581    0.749436    0.338409
      9          6           0        0.623412    0.203339    0.893703
     10          1           0       -1.034167    2.677317    0.274594
     11          1           0        0.225755    2.301824   -0.907610
     12          1           0       -1.485883    2.019320   -1.304840
     13          1           0       -1.925401   -0.332891    1.659484
     14          1           0       -2.831067    0.342287    0.276041
     15          1           0       -0.381993   -0.871156   -1.842335
     16          1           0        0.846992   -2.127047    0.513206
     17          1           0        3.026614   -0.946305   -0.047220
     18          1           0        2.189060   -0.288408   -1.480183
     19          1           0        0.576059    0.311778    1.981858
 ---------------------------------------------------------------------

 SCF Done:  E(RB3LYP) =  -423.129952621     A.U. after    1 cycles

 The electronic state is 1-A.
 Alpha  occ. eigenvalues --  -19.13827 -19.13558 -10.23652 -10.23588 -10.23496
 Alpha  occ. eigenvalues --  -10.23198 -10.19796 -10.19269 -10.17816  -1.05189
 Alpha  occ. eigenvalues --   -1.03546  -0.81561  -0.75642  -0.69435  -0.68224
 Alpha  occ. eigenvalues --   -0.63146  -0.57318  -0.52692  -0.51148  -0.49715
 Alpha  occ. eigenvalues --   -0.47048  -0.44809  -0.43080  -0.42356  -0.40742
 Alpha  occ. eigenvalues --   -0.40254  -0.39541  -0.35457  -0.33545  -0.31238
 Alpha  occ. eigenvalues --   -0.30374  -0.27689  -0.25645  -0.23962
 Alpha virt. eigenvalues --    0.05599   0.09025   0.09417   0.11633   0.12101
 Alpha virt. eigenvalues --    0.12884   0.14264   0.14949   0.15371   0.16138
 Alpha virt. eigenvalues --    0.16614   0.17768   0.18393   0.19940   0.21123

 Mulliken charges:
               1
     1  C   -0.502930
     2  C    0.267373
     3  C   -0.128773
     4  O   -0.292677
     5  C    0.061402
     6  C   -0.104353
     7  C   -0.097279
     8  O   -0.288933
     9  C    0.058933
    10  H    0.118846
    11  H    0.138277
    12  H    0.118304
    13  H    0.098583
    14  H    0.103028
    15  H    0.075810
    16  H    0.089559
    17  H    0.108280
    18  H    0.101920
    19  H    0.074631
 Sum of Mulliken charges =   0.00000

 Dipole moment (field-independent basis, Debye):
    X=              0.0765    Y=              0.1480    Z=             -0.0112  Tot=              0.1669
 Quadrupole moment (field-independent basis, Debye-Ang):
   XX=            -55.1709   YY=            -56.0707   ZZ=            -50.6917
   XY=             -6.9877   XZ=             -2.4065   YZ=             -0.4137

  Exact polarizability:  82.656  -5.614  71.050  -3.745   0.638  68.874
 Approx polarizability: 111.912  -2.550 104.514  -4.874   4.316 104.919

                      1                      2                      3
                      A                      A                      A
 Frequencies --    112.3895               197.1827               210.9619
 Red. masses --      3.1518                 2.9201                 1.0390
 Frc consts  --      0.0235                 0.0669                 0.0272
 IR Inten    --      4.7248                 0.0021                 0.1763

                      4                      5                      6
                      A                      A                      A
 Frequencies --    241.3692               285.2319               326.3740
 Red. masses --      3.4645                 2.3626                 2.3345
 Frc consts  --      0.1189                 0.1133                 0.1465
 IR Inten    --      4.8578                 2.8555                 0.1804

                      7                      8                      9
                      A                      A                      A
 Frequencies --    393.3135               449.5685               614.7242
 Red. masses --      3.6743                 5.2732                 3.5737
 Frc consts  --      0.3349                 0.6279                 0.7957
 IR Inten    --      5.9982                 0.7990                 0.8978

                     10                     11                     12
                      A                      A                      A
 Frequencies --    686.8695               816.2767               822.5443
 Red. masses --      3.5105                 1.7246                 2.3234
 Frc consts  --      0.9758                 0.6770                 0.9262
 IR Inten    --      0.8341                 1.2510                20.2805

                     13                     14                     15
                      A                      A                      A
 Frequencies --    854.8716               876.5898               930.3802
 Red. masses --      2.0988                 3.1579                 2.0325
 Frc consts  --      0.9037                 1.4297                 1.0366
 IR Inten    --      0.9418                14.5410                 2.0811

                     16                     17                     18
                      A                      A                      A
 Frequencies --    939.4383               971.2673               991.5359
 Red. masses --      2.2864                 2.2190                 1.9468
 Frc consts  --      1.1889                 1.2333                 1.1277
 IR Inten    --      0.5118                 7.7456                 1.9867

                     19                     20                     21
                      A                      A                      A
 Frequencies --   1008.1786              1013.7954              1039.1054
 Red. masses --      4.3058                 3.0193                 3.3970
 Frc consts  --      2.5786                 1.8284                 2.1611
 IR Inten    --     64.7150                30.7738                19.1620

                     22                     23                     24
                      A                      A                      A
 Frequencies --   1053.1422              1085.1810              1132.8405
 Red. masses --      5.0586                 2.1808                 1.8397
 Frc consts  --      3.3057                 1.5131                 1.3910
 IR Inten    --     97.9094                 5.0347                 0.3453

                     25                     26                     27
                      A                      A                      A
 Frequencies --   1157.4135              1160.6446              1176.5778
 Red. masses --      1.2089                 1.5132                 1.7096
 Frc consts  --      0.9542                 1.2010                 1.3944
 IR Inten    --      3.2161                 4.1742                 0.9263

                     28                     29                     30
                      A                      A                      A
 Frequencies --   1201.9380              1214.8023              1232.9349
 Red. masses --      1.7174                 1.8408                 1.8709
 Frc consts  --      1.4618                 1.6005                 1.6756
 IR Inten    --      4.2108                 2.7402                 2.8333

                     31                     32                     33
                      A                      A                      A
 Frequencies --   1262.3704              1286.9426              1303.2198
 Red. masses --      1.5024                 1.6782                 1.5358
 Frc consts  --      1.4106                 1.6376                 1.5368
 IR Inten    --      0.8747                 1.7635                 0.1600

                     34                     35                     36
                      A                      A                      A
 Frequencies --   1319.4582              1360.2846              1376.6738
 Red. masses --      1.7783                 1.4338                 1.8103
 Frc consts  --      1.8241                 1.5631                 2.0214
 IR Inten    --     25.6055                 1.0467                 0.7408

                     37                     38                     39
                      A                      A                      A
 Frequencies --   1407.4213              1486.6857              1499.5353
 Red. masses --      1.2919                 1.0492                 1.0513
 Frc consts  --      1.5078                 1.3663                 1.3927
 IR Inten    --      4.0704                 4.0259                 5.7728

                     40                     41                     42
                      A                      A                      A
 Frequencies --   1521.9170              1523.7066              3000.8790
 Red. masses --      1.0957                 1.0977                 1.0548
 Frc consts  --      1.4953                 1.5016                 5.5967
 IR Inten    --      0.2022                 1.3934                75.4020

                     43                     44                     45
                      A                      A                      A
 Frequencies --   3010.5067              3026.1892              3044.4981
 Red. masses --      1.0555                 1.0390                 1.1094
 Frc consts  --      5.6360                 5.6061                 6.0588
 IR Inten    --     77.0369                26.3238                34.3915

                     46                     47                     48
                      A                      A                      A
 Frequencies --   3053.6180              3057.8496              3060.2524
 Red. masses --      1.1068                 1.0919                 1.0889
 Frc consts  --      6.0808                 6.0152                 6.0083
 IR Inten    --     17.8914               128.8538                 1.3139

                     49                     50                     51
                      A                      A                      A
 Frequencies --   3087.2198              3120.5971              3131.1994
 Red. masses --      1.0984                 1.0997                 1.0905
 Frc consts  --      6.1680                 6.3095                 6.2996
 IR Inten    --     22.1435                10.7087                22.7042

 - Thermochemistry -
 -------------------
 Temperature   298.150 Kelvin.  Pressure   1.00000 Atm.
 Atom     1 has atomic number  6 and mass  12.00000

 Molecular mass:   126.06808 amu.
 Principal axes and moments of inertia in atomic units:
                           1         2         3
     Eigenvalues --   638.144171045.744711375.35157
           X            0.99569  -0.09133  -0.01603
           Y            0.09085   0.99545  -0.02870
           Z            0.01858   0.02712   0.99946
 This molecule is an asymmetric top.
 Rotational symmetry number  1.
 Warning -- assumption of classical behavior for rotation
           may cause significant error
 Rotational temperatures (Kelvin)      0.13573     0.08283     0.06298
 Rotational constants (GHZ):           2.82811     1.72580     1.31220
 Zero-point vibrational energy     419521.2 (Joules/Mol)
                                  100.26797 (Kcal/Mol)
 Warning -- explicit consideration of   9 degrees of freedom as
           vibrations may cause significant error
 Vibrational temperatures:    161.70   283.70   303.53   347.28   410.38
          (Kelvin)            469.58   565.89   646.83   884.45   988.25
                             1174.44  1183.46  1229.97  1261.22  1338.61
                             1351.64  1397.44  1426.60  1450.54  1458.62
                             1495.04  1515.23  1561.33  1629.90  1665.26
                             1669.91  1692.83  1729.32  1747.83  1773.92
                             1816.27  1851.62  1875.04  1898.40  1957.14
                             1980.72  2024.96  2139.01  2157.49  2189.70
                             2192.27  4317.59  4331.44  4354.01  4380.35
                             4393.47  4399.56  4403.02  4441.82  4489.84
                             4505.09

 Zero-point correction=                           0.159787 (Hartree/Particle)
 Thermal correction to Energy=                    0.167434
 Thermal correction to Enthalpy=                  0.168378
 Thermal correction to Gibbs Free Energy=         0.127838
 Sum of electronic and zero-point Energies=           -422.970165
 Sum of electronic and thermal Energies=              -422.962519
 Sum of electronic and thermal Enthalpies=            -422.961575
 Sum of electronic and thermal Free Energies=         -423.002115

                     E (Thermal)             CV                S
                      KCal/Mol        Cal/Mol-Kelvin    Cal/Mol-Kelvin
 Total                  105.066             29.857             85.324
 Electronic               0.000              0.000              0.000
 Translational            0.889              2.981             40.409
 Rotational               0.889              2.981             28.308
 Vibrational            103.289             23.896             16.607
 Vibration     1          0.607              1.939              3.227
 Vibration     2          0.637              1.844              2.159
 Vibration     3          0.643              1.824              2.035
 Vibration     4          0.658              1.777              1.793
 Vibration     5          0.683              1.701              1.502
 Vibration     6          0.710              1.623              1.278
 Vibration     7          0.761              1.484              0.988
 Vibration     8          0.808              1.362              0.797
 Vibration     9          0.974              1.001              0.425

 Optimization completed.
    -- Stationary point found.
 Normal termination of Gaussian 09 at Mon Jan 27 19:27:56 2020.
