 Gaussian 09, Revision D.01,
 Gaussian 09:  ES64L-G09RevD.01 24-Apr-2013

 -----------------------------
 # b3lyp 6-31G(2df,p) opt Freq
 -----------------------------

 -----
 titel
 -----
 Symbolic Z-matrix:
 Charge =  0 Multiplicity = 1

 SCF Done:  E(RB3LYP) =  -423.129223600     A.U. after   14 cycles
 Optimization completed.
    -- Stationary point found.
 Normal termination of Gaussian 09 at Tue Jan 28 08:11:57 2020.

 ----------------------------------------------------------------------
 #N Geom=AllCheck Guess=TCheck SCRF=Check GenChk RB3LYP/6-31G(2df,p) Fr
 eq
 ----------------------------------------------------------------------

 Structure from the checkpoint file:  "/scratch/puck/g09_becd0ca8-f0df-4ba5-ad0c-5dc77fa61dad/Gau-104581.chk"
 -----
 titel
 -----
 Charge =  0 Multiplicity = 1

                         Standard orientation:
 ---------------------------------------------------------------------
 Center     Atomic      Atomic             Coordinates (Angstroms)
 Number     Number       Type             X           Y           Z
 ---------------------------------------------------------------------
      1          6           0       -1.414064    1.672671   -0.476500
      2          6           0       -0.947139    0.376389    0.169262
      3          6           0       -1.805112   -0.226433    1.288198
      4          6           0       -1.761720   -0.888643   -0.058080
      5          8           0       -2.852522   -0.785356   -0.921704
      6          6           0        0.478218    0.215364    0.282560
      7          6           0        1.677032    0.112724    0.374365
      8          6           0        3.125829   -0.064001    0.444401
      9          8           0        3.735672   -0.300353   -0.818837
     10          1           0       -1.126636    2.530937    0.137981
     11          1           0       -0.958905    1.794325   -1.463718
     12          1           0       -2.498007    1.669185   -0.601602
     13          1           0       -1.302443   -0.699270    2.123555
     14          1           0       -2.706978    0.323406    1.537030
     15          1           0       -1.192646   -1.813023   -0.145966
     16          1           0       -3.580577   -1.289361   -0.543316
     17          1           0        3.600318    0.842813    0.836534
     18          1           0        3.357773   -0.873341    1.156076
     19          1           0        3.224635   -0.988415   -1.257480
 ---------------------------------------------------------------------

 SCF Done:  E(RB3LYP) =  -423.129223600     A.U. after    1 cycles

 The electronic state is 1-A.
 Alpha  occ. eigenvalues --  -19.15172 -19.13536 -10.24722 -10.24433 -10.21950
 Alpha  occ. eigenvalues --  -10.19341 -10.17718 -10.17607 -10.17029  -1.03763
 Alpha  occ. eigenvalues --   -1.01692  -0.86798  -0.75972  -0.71794  -0.68576
 Alpha  occ. eigenvalues --   -0.61680  -0.59699  -0.52855  -0.52068  -0.50224
 Alpha  occ. eigenvalues --   -0.46466  -0.44190  -0.43841  -0.41517  -0.40879
 Alpha  occ. eigenvalues --   -0.38398  -0.37637  -0.35258  -0.33600  -0.30836
 Alpha  occ. eigenvalues --   -0.28036  -0.27828  -0.24724  -0.23814
 Alpha virt. eigenvalues --    0.03117   0.05260   0.07899   0.10322   0.11549
 Alpha virt. eigenvalues --    0.11932   0.13343   0.13552   0.15129   0.16603
 Alpha virt. eigenvalues --    0.17708   0.18777   0.19785   0.21137   0.24279

 Mulliken charges:
               1
     1  C   -0.456368
     2  C    0.121514
     3  C   -0.357209
     4  C    0.087192
     5  O   -0.422033
     6  C   -0.025094
     7  C    0.102792
     8  C   -0.192499
     9  O   -0.403604
    10  H    0.122296
    11  H    0.129912
    12  H    0.128431
    13  H    0.122163
    14  H    0.118507
    15  H    0.095939
    16  H    0.291178
    17  H    0.137568
    18  H    0.113784
    19  H    0.285531
 Sum of Mulliken charges =   0.00000

 Dipole moment (field-independent basis, Debye):
    X=             -2.1873    Y=             -1.4830    Z=              1.5299  Tot=              3.0535
 Quadrupole moment (field-independent basis, Debye-Ang):
   XX=            -53.2656   YY=            -49.4828   ZZ=            -54.1723
   XY=              0.4580   XZ=             -0.0868   YZ=              0.7079

  Exact polarizability: 116.101   0.343  67.283   0.837  -0.599  65.877
 Approx polarizability: 162.949   1.228  94.810   1.435   0.456  97.477

                      1                      2                      3
                      A                      A                      A
 Frequencies --     21.0037                75.4066                93.3799
 Red. masses --      3.0378                 5.1787                 2.9146
 Frc consts  --      0.0008                 0.0173                 0.0150
 IR Inten    --      0.8865                 0.6010                 0.7239

                      4                      5                      6
                      A                      A                      A
 Frequencies --    173.3941               178.5301               242.5386
 Red. masses --      2.3961                 1.3115                 2.8707
 Frc consts  --      0.0424                 0.0246                 0.0995
 IR Inten    --      0.5916                 5.1907                17.1320

                      7                      8                      9
                      A                      A                      A
 Frequencies --    254.8524               264.5249               301.0542
 Red. masses --      1.4369                 1.4748                 2.3682
 Frc consts  --      0.0550                 0.0608                 0.1265
 IR Inten    --     85.5088                27.0232                32.1393

                     10                     11                     12
                      A                      A                      A
 Frequencies --    325.5056               361.2849               467.8901
 Red. masses --      2.0425                 3.5212                 2.6183
 Frc consts  --      0.1275                 0.2708                 0.3377
 IR Inten    --     70.7843                 4.5427                 2.3038

                     13                     14                     15
                      A                      A                      A
 Frequencies --    525.8869               540.1352               559.4602
 Red. masses --      5.6943                 3.5835                 6.1119
 Frc consts  --      0.9278                 0.6160                 1.1271
 IR Inten    --      5.3476                11.8767                 9.7861

                     16                     17                     18
                      A                      A                      A
 Frequencies --    659.3158               793.0272               830.5204
 Red. masses --      3.9015                 2.3372                 2.8361
 Frc consts  --      0.9992                 0.8660                 1.1526
 IR Inten    --      3.8956                 2.6799                29.2065

                     19                     20                     21
                      A                      A                      A
 Frequencies --    912.4100               950.9999               985.1673
 Red. masses --      2.2876                 1.3730                 1.7157
 Frc consts  --      1.1220                 0.7316                 0.9811
 IR Inten    --     11.0081                 1.8884                56.5693

                     22                     23                     24
                      A                      A                      A
 Frequencies --   1008.4658              1041.4800              1045.3059
 Red. masses --      2.1636                 2.8329                 1.4354
 Frc consts  --      1.2964                 1.8104                 0.9241
 IR Inten    --     20.2969                54.5328                13.2760

                     25                     26                     27
                      A                      A                      A
 Frequencies --   1088.4620              1104.7870              1121.1645
 Red. masses --      2.2649                 1.3725                 1.8823
 Frc consts  --      1.5810                 0.9870                 1.3940
 IR Inten    --     26.5045                 5.1128                20.1343

                     28                     29                     30
                      A                      A                      A
 Frequencies --   1181.4132              1215.2089              1275.3047
 Red. masses --      2.9505                 1.0851                 1.8980
 Frc consts  --      2.4263                 0.9441                 1.8188
 IR Inten    --     48.3935                14.5599                58.3244

                     31                     32                     33
                      A                      A                      A
 Frequencies --   1299.2683              1326.5259              1352.4417
 Red. masses --      1.6804                 2.2332                 1.2144
 Frc consts  --      1.6713                 2.3153                 1.3087
 IR Inten    --      1.3140                12.7050                 3.0177

                     34                     35                     36
                      A                      A                      A
 Frequencies --   1405.2242              1416.6699              1422.1968
 Red. masses --      1.3148                 1.2568                 1.3136
 Frc consts  --      1.5297                 1.4861                 1.5654
 IR Inten    --      4.2472                65.6448                53.7469

                     37                     38                     39
                      A                      A                      A
 Frequencies --   1475.0096              1487.8905              1492.9746
 Red. masses --      1.3800                 1.0621                 1.0796
 Frc consts  --      1.7689                 1.3854                 1.4178
 IR Inten    --     10.7557                 1.4483                 0.8684

                     40                     41                     42
                      A                      A                      A
 Frequencies --   1500.6854              2349.2748              2968.8734
 Red. masses --      1.0923                11.8997                 1.0719
 Frc consts  --      1.4493                38.6949                 5.5665
 IR Inten    --      7.4960                31.4701                54.1041

                     43                     44                     45
                      A                      A                      A
 Frequencies --   3046.4910              3057.1630              3111.0098
 Red. masses --      1.0357                 1.0875                 1.1022
 Frc consts  --      5.6634                 5.9886                 6.2850
 IR Inten    --     24.3301                21.5739                16.9228

                     46                     47                     48
                      A                      A                      A
 Frequencies --   3112.9055              3133.8362              3141.3095
 Red. masses --      1.0877                 1.0569                 1.0979
 Frc consts  --      6.2098                 6.1154                 6.3830
 IR Inten    --     24.9889                 4.7757                14.3884

                     49                     50                     51
                      A                      A                      A
 Frequencies --   3229.8579              3805.7657              3817.1942
 Red. masses --      1.1176                 1.0663                 1.0662
 Frc consts  --      6.8691                 9.0995                 9.1536
 IR Inten    --      5.8429                25.9843                17.9568

 - Thermochemistry -
 -------------------
 Temperature   298.150 Kelvin.  Pressure   1.00000 Atm.
 Atom     1 has atomic number  6 and mass  12.00000

 Molecular mass:   126.06808 amu.
 Principal axes and moments of inertia in atomic units:
                           1         2         3
     Eigenvalues --   513.129692679.537622726.11592
           X            0.99997  -0.00789   0.00262
           Y            0.00824   0.98337  -0.18145
           Z           -0.00115   0.18147   0.98340
 This molecule is an asymmetric top.
 Rotational symmetry number  1.
 Warning -- assumption of classical behavior for rotation
           may cause significant error
 Rotational temperatures (Kelvin)      0.16880     0.03232     0.03177
 Rotational constants (GHZ):           3.51712     0.67353     0.66202
 Zero-point vibrational energy     410022.7 (Joules/Mol)
                                   97.99778 (Kcal/Mol)
 Warning -- explicit consideration of  15 degrees of freedom as
           vibrations may cause significant error
 Vibrational temperatures:     30.22   108.49   134.35   249.48   256.86
          (Kelvin)            348.96   366.68   380.59   433.15   468.33
                              519.81   673.19   756.63   777.13   804.94
                              948.61  1140.99  1194.93  1312.75  1368.28
                             1417.43  1450.96  1498.46  1503.96  1566.05
                             1589.54  1613.10  1699.79  1748.41  1834.88
                             1869.36  1908.57  1945.86  2021.80  2038.27
                             2046.22  2122.21  2140.74  2148.05  2159.15
                             3380.08  4271.54  4383.22  4398.57  4476.04
                             4478.77  4508.89  4519.64  4647.04  5475.64
                             5492.08

 Zero-point correction=                           0.156169 (Hartree/Particle)
 Thermal correction to Energy=                    0.166768
 Thermal correction to Enthalpy=                  0.167712
 Thermal correction to Gibbs Free Energy=         0.119172
 Sum of electronic and zero-point Energies=           -422.973054
 Sum of electronic and thermal Energies=              -422.962456
 Sum of electronic and thermal Enthalpies=            -422.961511
 Sum of electronic and thermal Free Energies=         -423.010052

                     E (Thermal)             CV                S
                      KCal/Mol        Cal/Mol-Kelvin    Cal/Mol-Kelvin
 Total                  104.648             37.464            102.162
 Electronic               0.000              0.000              0.000
 Translational            0.889              2.981             40.409
 Rotational               0.889              2.981             29.706
 Vibrational            102.871             31.503             32.047
 Vibration     1          0.593              1.986              6.537
 Vibration     2          0.599              1.965              4.007
 Vibration     3          0.602              1.954              3.588
 Vibration     4          0.627              1.875              2.398
 Vibration     5          0.629              1.869              2.344
 Vibration     6          0.659              1.775              1.784
 Vibration     7          0.665              1.755              1.697
 Vibration     8          0.671              1.738              1.632
 Vibration     9          0.693              1.672              1.411
 Vibration    10          0.710              1.624              1.282
 Vibration    11          0.735              1.552              1.117
 Vibration    12          0.825              1.321              0.743
 Vibration    13          0.881              1.193              0.596
 Vibration    14          0.895              1.161              0.565
 Vibration    15          0.915              1.119              0.525

 Optimization completed.
    -- Stationary point found.
 Normal termination of Gaussian 09 at Tue Jan 28 08:45:01 2020.
