 Gaussian 09, Revision D.01,
 Gaussian 09:  ES64L-G09RevD.01 24-Apr-2013

 -----------------------------
 # b3lyp 6-31G(2df,p) opt Freq
 -----------------------------

 -----
 titel
 -----
 Symbolic Z-matrix:
 Charge =  0 Multiplicity = 1

 SCF Done:  E(RB3LYP) =  -423.109879240     A.U. after   14 cycles
 Optimization completed.
    -- Stationary point found.
 Normal termination of Gaussian 09 at Tue Jan 28 09:04:29 2020.

 ----------------------------------------------------------------------
 #N Geom=AllCheck Guess=TCheck SCRF=Check GenChk RB3LYP/6-31G(2df,p) Fr
 eq
 ----------------------------------------------------------------------

 Structure from the checkpoint file:  "/scratch/puck/g09_d375f2ce-f955-4e35-894e-db331ec2953d/Gau-94854.chk"
 -----
 titel
 -----
 Charge =  0 Multiplicity = 1

                         Standard orientation:
 ---------------------------------------------------------------------
 Center     Atomic      Atomic             Coordinates (Angstroms)
 Number     Number       Type             X           Y           Z
 ---------------------------------------------------------------------
      1          8           0       -1.441584    2.064531   -0.329279
      2          6           0       -1.552881    0.988495    0.581884
      3          6           0       -0.962715   -0.280319    0.006467
      4          6           0       -1.401228   -1.637983    0.488454
      5          6           0       -1.781712   -1.147831   -0.895789
      6          8           0        0.375219   -0.116729   -0.411796
      7          6           0        1.328873   -0.126980    0.649536
      8          6           0        2.669944   -0.017351    0.093490
      9          6           0        3.785701    0.075750   -0.340161
     10          1           0       -0.570291    1.981106   -0.735687
     11          1           0       -1.068181    1.231794    1.542991
     12          1           0       -2.617484    0.840584    0.790788
     13          1           0       -0.648052   -2.416006    0.544794
     14          1           0       -2.166772   -1.694169    1.255210
     15          1           0       -1.265180   -1.595818   -1.736265
     16          1           0       -2.808955   -0.858670   -1.086563
     17          1           0        1.152503    0.704912    1.347437
     18          1           0        1.236556   -1.056201    1.230896
     19          1           0        4.770880    0.157370   -0.728292
 ---------------------------------------------------------------------

 SCF Done:  E(RB3LYP) =  -423.109879240     A.U. after    1 cycles

 The electronic state is 1-A.
 Alpha  occ. eigenvalues --  -19.16163 -19.12870 -10.26208 -10.24509 -10.22992
 Alpha  occ. eigenvalues --  -10.19542 -10.19030 -10.18971 -10.18339  -1.05592
 Alpha  occ. eigenvalues --   -1.00974  -0.86149  -0.77529  -0.70518  -0.69499
 Alpha  occ. eigenvalues --   -0.61374  -0.57854  -0.53907  -0.52393  -0.50914
 Alpha  occ. eigenvalues --   -0.48200  -0.46943  -0.46619  -0.43192  -0.42184
 Alpha  occ. eigenvalues --   -0.38820  -0.37361  -0.33351  -0.32508  -0.29352
 Alpha  occ. eigenvalues --   -0.28336  -0.27571  -0.27134  -0.25609
 Alpha virt. eigenvalues --    0.02635   0.04806   0.08479   0.09760   0.09952
 Alpha virt. eigenvalues --    0.12031   0.12221   0.13738   0.13889   0.16635
 Alpha virt. eigenvalues --    0.16794   0.19506   0.19983   0.21167   0.22028

 Mulliken charges:
               1
     1  O   -0.422669
     2  C   -0.113504
     3  C    0.417394
     4  C   -0.332426
     5  C   -0.307833
     6  O   -0.304132
     7  C   -0.234113
     8  C    0.286076
     9  C   -0.420677
    10  H    0.289720
    11  H    0.084142
    12  H    0.105548
    13  H    0.122553
    14  H    0.118572
    15  H    0.129348
    16  H    0.122269
    17  H    0.129131
    18  H    0.126885
    19  H    0.203715
 Sum of Mulliken charges =   0.00000

 Dipole moment (field-independent basis, Debye):
    X=              0.5874    Y=             -1.4818    Z=              1.2229  Tot=              2.0090
 Quadrupole moment (field-independent basis, Debye-Ang):
   XX=            -48.6225   YY=            -57.1521   ZZ=            -52.2436
   XY=              4.2359   XZ=             -2.3527   YZ=              0.0221

  Exact polarizability: 102.625   4.346  67.064  -6.241  -0.841  65.117
 Approx polarizability: 139.906   5.206  94.060 -13.963  -3.827 100.662

                      1                      2                      3
                      A                      A                      A
 Frequencies --     28.7643                71.7844               127.0375
 Red. masses --      3.4703                 3.9514                 3.5815
 Frc consts  --      0.0017                 0.0120                 0.0341
 IR Inten    --      0.2169                 1.4731                 0.5099

                      4                      5                      6
                      A                      A                      A
 Frequencies --    146.6414               214.7868               248.5057
 Red. masses --      3.1289                 2.9176                 3.8731
 Frc consts  --      0.0396                 0.0793                 0.1409
 IR Inten    --      4.7632                 3.5243                 4.5246

                      7                      8                      9
                      A                      A                      A
 Frequencies --    322.3604               329.0800               355.6482
 Red. masses --      2.9591                 2.4189                 2.7495
 Frc consts  --      0.1812                 0.1543                 0.2049
 IR Inten    --      1.5187                 3.4497                10.0623

                     10                     11                     12
                      A                      A                      A
 Frequencies --    400.4515               441.0534               505.7022
 Red. masses --      1.2151                 3.5852                 4.9098
 Frc consts  --      0.1148                 0.4109                 0.7398
 IR Inten    --     75.0175                 7.5980                 1.2535

                     13                     14                     15
                      A                      A                      A
 Frequencies --    576.5202               612.8713               678.7665
 Red. masses --      3.4826                 1.1971                 1.2471
 Frc consts  --      0.6820                 0.2649                 0.3385
 IR Inten    --      8.2598                42.8904                33.5970

                     16                     17                     18
                      A                      A                      A
 Frequencies --    764.8798               777.3980               902.9800
 Red. masses --      2.0250                 1.3690                 1.9746
 Frc consts  --      0.6980                 0.4875                 0.9486
 IR Inten    --      8.4988                 5.6878                 3.3963

                     19                     20                     21
                      A                      A                      A
 Frequencies --    913.5822               925.8604               966.8221
 Red. masses --      1.9551                 1.7081                 3.2847
 Frc consts  --      0.9614                 0.8627                 1.8090
 IR Inten    --      2.8124                 1.4640                 3.1140

                     22                     23                     24
                      A                      A                      A
 Frequencies --   1006.3231              1033.4409              1050.5768
 Red. masses --      2.2567                 1.6890                 1.5734
 Frc consts  --      1.3465                 1.0628                 1.0231
 IR Inten    --      8.6852                 3.4730                 1.5854

                     25                     26                     27
                      A                      A                      A
 Frequencies --   1059.9996              1073.5585              1078.7977
 Red. masses --      3.9349                 3.0407                 2.8682
 Frc consts  --      2.6049                 2.0648                 1.9667
 IR Inten    --     80.5823               109.8791                85.9879

                     28                     29                     30
                      A                      A                      A
 Frequencies --   1083.4219              1186.7133              1198.7620
 Red. masses --      1.8289                 1.2762                 1.3034
 Frc consts  --      1.2648                 1.0589                 1.1035
 IR Inten    --      9.5864                 1.8749                29.5786

                     31                     32                     33
                      A                      A                      A
 Frequencies --   1249.0307              1292.1589              1340.4164
 Red. masses --      1.0696                 2.3692                 2.1520
 Frc consts  --      0.9831                 2.3307                 2.2781
 IR Inten    --      1.8950                85.0753                33.0219

                     34                     35                     36
                      A                      A                      A
 Frequencies --   1360.6139              1403.7344              1443.2949
 Red. masses --      1.2182                 1.3781                 1.3097
 Frc consts  --      1.3288                 1.5999                 1.6074
 IR Inten    --     21.5531                24.5291                62.0144

                     37                     38                     39
                      A                      A                      A
 Frequencies --   1454.6577              1496.9393              1500.7208
 Red. masses --      1.0957                 1.4801                 1.0821
 Frc consts  --      1.3661                 1.9542                 1.4358
 IR Inten    --      7.5231                 5.4114                 1.3193

                     40                     41                     42
                      A                      A                      A
 Frequencies --   1513.6983              2248.7624              2955.2734
 Red. masses --      1.1057                 5.8916                 1.0721
 Frc consts  --      1.4927                17.5537                 5.5166
 IR Inten    --      5.6926                 1.8149                54.9347

                     43                     44                     45
                      A                      A                      A
 Frequencies --   2989.6508              3014.8309              3071.3513
 Red. masses --      1.0551                 1.1035                 1.0893
 Frc consts  --      5.5561                 5.9094                 6.0541
 IR Inten    --     37.3604                22.3799                29.1366

                     46                     47                     48
                      A                      A                      A
 Frequencies --   3132.8197              3143.8349              3217.2947
 Red. masses --      1.0534                 1.0556                 1.1178
 Frc consts  --      6.0912                 6.1469                 6.8173
 IR Inten    --      9.5769                 6.9991                 3.8513

                     49                     50                     51
                      A                      A                      A
 Frequencies --   3236.9639              3505.6971              3783.3194
 Red. masses --      1.1165                 1.1640                 1.0655
 Frc consts  --      6.8929                 8.4289                 8.9860
 IR Inten    --      8.0328                64.9806                32.5660

 - Thermochemistry -
 -------------------
 Temperature   298.150 Kelvin.  Pressure   1.00000 Atm.
 Atom     1 has atomic number  8 and mass  15.99491

 Molecular mass:   126.06808 amu.
 Principal axes and moments of inertia in atomic units:
                           1         2         3
     Eigenvalues --   679.243721806.578922192.40842
           X            0.99985   0.01685  -0.00364
           Y           -0.01682   0.99983   0.00762
           Z            0.00377  -0.00755   0.99996
 This molecule is an asymmetric top.
 Rotational symmetry number  1.
 Warning -- assumption of classical behavior for rotation
           may cause significant error
 Rotational temperatures (Kelvin)      0.12752     0.04794     0.03951
 Rotational constants (GHZ):           2.65699     0.99898     0.82318
 Zero-point vibrational energy     409351.1 (Joules/Mol)
                                   97.83725 (Kcal/Mol)
 Warning -- explicit consideration of  14 degrees of freedom as
           vibrations may cause significant error
 Vibrational temperatures:     41.39   103.28   182.78   210.98   309.03
          (Kelvin)            357.54   463.80   473.47   511.70   576.16
                              634.58   727.59   829.48   881.78   976.59
                             1100.49  1118.50  1299.19  1314.44  1332.11
                             1391.04  1447.87  1486.89  1511.54  1525.10
                             1544.61  1552.15  1558.80  1707.41  1724.75
                             1797.07  1859.13  1928.56  1957.62  2019.66
                             2076.58  2092.93  2153.76  2159.20  2177.87
                             3235.46  4251.97  4301.44  4337.66  4418.98
                             4507.42  4523.27  4628.96  4657.26  5043.91
                             5443.35

 Zero-point correction=                           0.155914 (Hartree/Particle)
 Thermal correction to Energy=                    0.165849
 Thermal correction to Enthalpy=                  0.166793
 Thermal correction to Gibbs Free Energy=         0.120038
 Sum of electronic and zero-point Energies=           -422.953966
 Sum of electronic and thermal Energies=              -422.944030
 Sum of electronic and thermal Enthalpies=            -422.943086
 Sum of electronic and thermal Free Energies=         -422.989841

                     E (Thermal)             CV                S
                      KCal/Mol        Cal/Mol-Kelvin    Cal/Mol-Kelvin
 Total                  104.072             36.200             98.404
 Electronic               0.000              0.000              0.000
 Translational            0.889              2.981             40.409
 Rotational               0.889              2.981             29.377
 Vibrational            102.294             30.239             28.618
 Vibration     1          0.593              1.984              5.913
 Vibration     2          0.598              1.967              4.104
 Vibration     3          0.611              1.926              2.990
 Vibration     4          0.617              1.906              2.715
 Vibration     5          0.645              1.818              2.003
 Vibration     6          0.662              1.765              1.741
 Vibration     7          0.707              1.631              1.298
 Vibration     8          0.712              1.617              1.265
 Vibration     9          0.731              1.564              1.141
 Vibration    10          0.766              1.469              0.961
 Vibration    11          0.801              1.381              0.823
 Vibration    12          0.861              1.237              0.644
 Vibration    13          0.933              1.082              0.492
 Vibration    14          0.972              1.005              0.428

 Optimization completed.
    -- Stationary point found.
 Normal termination of Gaussian 09 at Tue Jan 28 09:42:27 2020.
