 Gaussian 09, Revision D.01,
 Gaussian 09:  ES64L-G09RevD.01 24-Apr-2013

 -----------------------------
 # b3lyp 6-31G(2df,p) opt Freq
 -----------------------------

 -----
 titel
 -----
 Symbolic Z-matrix:
 Charge =  0 Multiplicity = 1

 SCF Done:  E(RB3LYP) =  -423.134644807     A.U. after   12 cycles
 Optimization completed.
    -- Stationary point found.
 Normal termination of Gaussian 09 at Mon Jan 27 17:19:42 2020.

 ----------------------------------------------------------------------
 #N Geom=AllCheck Guess=TCheck SCRF=Check GenChk RB3LYP/6-31G(2df,p) Fr
 eq
 ----------------------------------------------------------------------

 Structure from the checkpoint file:  "/scratch/puck/g09_2cf66ce6-7176-4ead-8ae9-84f6dece6cb5/Gau-179508.chk"
 -----
 titel
 -----
 Charge =  0 Multiplicity = 1

                         Standard orientation:
 ---------------------------------------------------------------------
 Center     Atomic      Atomic             Coordinates (Angstroms)
 Number     Number       Type             X           Y           Z
 ---------------------------------------------------------------------
      1          8           0        1.474487   -1.304344   -0.626874
      2          6           0        0.498083   -0.733940    0.196562
      3          6           0        0.917540    0.010923    1.454108
      4          6           0        0.453936    0.770457    0.222108
      5          8           0        1.363941    1.522692   -0.512578
      6          6           0       -1.039879    1.008255   -0.057316
      7          6           0       -1.250907   -0.006701   -1.239273
      8          6           0       -0.981061   -1.051557   -0.095823
      9          6           0       -1.752975   -0.059020    0.817569
     10          1           0        1.850608   -2.070246   -0.182198
     11          1           0        0.354164   -0.040977    2.378212
     12          1           0        1.993434    0.059290    1.593181
     13          1           0        1.907009    0.894130   -1.008360
     14          1           0       -1.378612    2.042653   -0.102384
     15          1           0       -2.278063   -0.029775   -1.612756
     16          1           0       -0.540628    0.030364   -2.067923
     17          1           0       -1.265066   -2.101568   -0.177516
     18          1           0       -2.824985   -0.087126    0.611561
     19          1           0       -1.593702   -0.074031    1.896191
 ---------------------------------------------------------------------

 SCF Done:  E(RB3LYP) =  -423.134644807     A.U. after    1 cycles

 The electronic state is 1-A.
 Alpha  occ. eigenvalues --  -19.15643 -19.13397 -10.23088 -10.22670 -10.19490
 Alpha  occ. eigenvalues --  -10.19150 -10.18424 -10.18389 -10.18106  -1.04622
 Alpha  occ. eigenvalues --   -1.01436  -0.89622  -0.79595  -0.67291  -0.66181
 Alpha  occ. eigenvalues --   -0.61818  -0.56903  -0.54255  -0.52861  -0.48929
 Alpha  occ. eigenvalues --   -0.47777  -0.45133  -0.41972  -0.39172  -0.38712
 Alpha  occ. eigenvalues --   -0.37499  -0.36714  -0.34832  -0.32430  -0.31545
 Alpha  occ. eigenvalues --   -0.31321  -0.29226  -0.25472  -0.22856
 Alpha virt. eigenvalues --    0.06168   0.10782   0.10990   0.11650   0.12614
 Alpha virt. eigenvalues --    0.13247   0.14641   0.15308   0.16881   0.16992
 Alpha virt. eigenvalues --    0.19135   0.19852   0.20716   0.22651   0.22982

 Mulliken charges:
               1
     1  O   -0.477444
     2  C    0.308218
     3  C   -0.441791
     4  C    0.415145
     5  O   -0.488518
     6  C   -0.081473
     7  C   -0.223736
     8  C   -0.088913
     9  C   -0.241522
    10  H    0.291220
    11  H    0.112677
    12  H    0.110789
    13  H    0.289595
    14  H    0.069601
    15  H    0.090097
    16  H    0.102639
    17  H    0.057839
    18  H    0.101338
    19  H    0.094238
 Sum of Mulliken charges =   0.00000

 Dipole moment (field-independent basis, Debye):
    X=             -0.2271    Y=             -2.1471    Z=              0.7775  Tot=              2.2948
 Quadrupole moment (field-independent basis, Debye-Ang):
   XX=            -49.7275   YY=            -53.9640   ZZ=            -53.0873
   XY=             -4.2866   XZ=              0.5515   YZ=             -0.8388

  Exact polarizability:  79.632  -1.363  69.109   1.934  -0.454  72.780
 Approx polarizability: 110.323  -1.795 109.366   0.164  -0.817 110.701

                      1                      2                      3
                      A                      A                      A
 Frequencies --    198.6262               206.1960               272.9674
 Red. masses --      4.7723                 4.1206                 1.3453
 Frc consts  --      0.1109                 0.1032                 0.0591
 IR Inten    --      2.3594                 4.2243                28.4783

                      4                      5                      6
                      A                      A                      A
 Frequencies --    303.2133               331.5657               393.7428
 Red. masses --      2.5084                 1.5424                 1.9299
 Frc consts  --      0.1359                 0.0999                 0.1763
 IR Inten    --     17.5197                70.8078                28.5551

                      7                      8                      9
                      A                      A                      A
 Frequencies --    480.0711               515.3605               529.8394
 Red. masses --      2.1638                 2.5346                 3.9645
 Frc consts  --      0.2938                 0.3966                 0.6557
 IR Inten    --      3.7882                 0.9074                 3.9795

                     10                     11                     12
                      A                      A                      A
 Frequencies --    548.9969               552.6246               735.9260
 Red. masses --      2.9937                 2.3810                 3.4391
 Frc consts  --      0.5316                 0.4284                 1.0974
 IR Inten    --     12.9126                 1.4700                 1.1887

                     13                     14                     15
                      A                      A                      A
 Frequencies --    770.3943               814.0570               839.9777
 Red. masses --      3.8222                 4.2936                 2.0816
 Frc consts  --      1.3366                 1.6764                 0.8653
 IR Inten    --      9.6903                18.1791                 2.3394

                     16                     17                     18
                      A                      A                      A
 Frequencies --    847.2157               891.7427               901.6739
 Red. masses --      2.4017                 2.1435                 1.4532
 Frc consts  --      1.0157                 1.0043                 0.6961
 IR Inten    --      3.8767                 0.4551                 1.1380

                     19                     20                     21
                      A                      A                      A
 Frequencies --    916.2741               941.2576              1006.8159
 Red. masses --      3.6857                 1.7122                 1.5685
 Frc consts  --      1.8231                 0.8938                 0.9368
 IR Inten    --      9.7796                 3.6788                 5.0598

                     22                     23                     24
                      A                      A                      A
 Frequencies --   1025.8994              1039.7511              1049.9616
 Red. masses --      2.4686                 1.4220                 1.1091
 Frc consts  --      1.5307                 0.9057                 0.7204
 IR Inten    --      0.5744                 2.9637                 5.4001

                     25                     26                     27
                      A                      A                      A
 Frequencies --   1074.2870              1082.0842              1105.3904
 Red. masses --      1.2215                 1.9808                 1.4261
 Frc consts  --      0.8306                 1.3665                 1.0267
 IR Inten    --     10.5398                13.4712                 2.9543

                     28                     29                     30
                      A                      A                      A
 Frequencies --   1155.2772              1197.5856              1217.4504
 Red. masses --      1.9563                 2.7987                 1.4178
 Frc consts  --      1.5384                 2.3649                 1.2382
 IR Inten    --      5.7219               122.5271                10.4928

                     31                     32                     33
                      A                      A                      A
 Frequencies --   1219.6891              1237.8509              1247.6796
 Red. masses --      1.9411                 1.6134                 1.7212
 Frc consts  --      1.7014                 1.4566                 1.5787
 IR Inten    --     38.0877                 0.3906                16.9556

                     34                     35                     36
                      A                      A                      A
 Frequencies --   1267.2862              1280.8079              1332.2012
 Red. masses --      1.4381                 2.3285                 2.0431
 Frc consts  --      1.3608                 2.2506                 2.1364
 IR Inten    --     31.3180                 7.6284                64.4734

                     37                     38                     39
                      A                      A                      A
 Frequencies --   1386.5003              1392.1915              1478.7921
 Red. masses --      1.6552                 1.8293                 1.4702
 Frc consts  --      1.8748                 2.0890                 1.8942
 IR Inten    --     34.6232                 4.9791                 8.0328

                     40                     41                     42
                      A                      A                      A
 Frequencies --   1496.8182              1535.9581              3061.8555
 Red. masses --      1.1314                 1.1163                 1.0562
 Frc consts  --      1.4935                 1.5516                 5.8340
 IR Inten    --      5.3744                 3.3947                38.9462

                     43                     44                     45
                      A                      A                      A
 Frequencies --   3075.9428              3105.3350              3123.3161
 Red. masses --      1.0580                 1.0888                 1.0950
 Frc consts  --      5.8977                 6.1863                 6.2933
 IR Inten    --     24.5272                58.7124                 6.7786

                     46                     47                     48
                      A                      A                      A
 Frequencies --   3123.8352              3127.4040              3134.7098
 Red. masses --      1.0932                 1.1026                 1.0704
 Frc consts  --      6.2855                 6.3537                 6.1974
 IR Inten    --     29.6954                41.2583                33.7409

                     49                     50                     51
                      A                      A                      A
 Frequencies --   3216.9763              3739.6592              3814.1180
 Red. masses --      1.1157                 1.0658                 1.0667
 Frc consts  --      6.8028                 8.7820                 9.1430
 IR Inten    --     10.6577                34.8058                34.1966

 - Thermochemistry -
 -------------------
 Temperature   298.150 Kelvin.  Pressure   1.00000 Atm.
 Atom     1 has atomic number  8 and mass  15.99491

 Molecular mass:   126.06808 amu.
 Principal axes and moments of inertia in atomic units:
                           1         2         3
     Eigenvalues --   717.41890 981.599951100.92754
           X            0.99955  -0.02258   0.01987
           Y            0.02295   0.99957  -0.01840
           Z           -0.01945   0.01884   0.99963
 This molecule is an asymmetric top.
 Rotational symmetry number  1.
 Warning -- assumption of classical behavior for rotation
           may cause significant error
 Rotational temperatures (Kelvin)      0.12073     0.08824     0.07867
 Rotational constants (GHZ):           2.51560     1.83857     1.63929
 Zero-point vibrational energy     420757.4 (Joules/Mol)
                                  100.56344 (Kcal/Mol)
 Warning -- explicit consideration of  11 degrees of freedom as
           vibrations may cause significant error
 Vibrational temperatures:    285.78   296.67   392.74   436.26   477.05
          (Kelvin)            566.51   690.71   741.49   762.32   789.88
                              795.10  1058.83  1108.42  1171.25  1208.54
                             1218.95  1283.02  1297.31  1318.31  1354.26
                             1448.58  1476.04  1495.97  1510.66  1545.66
                             1556.88  1590.41  1662.18  1723.06  1751.64
                             1754.86  1780.99  1795.13  1823.34  1842.79
                             1916.74  1994.86  2003.05  2127.65  2153.58
                             2209.90  4405.32  4425.59  4467.88  4493.75
                             4494.50  4499.63  4510.14  4628.51  5380.53
                             5487.66

 Zero-point correction=                           0.160258 (Hartree/Particle)
 Thermal correction to Energy=                    0.167779
 Thermal correction to Enthalpy=                  0.168723
 Thermal correction to Gibbs Free Energy=         0.129054
 Sum of electronic and zero-point Energies=           -422.974387
 Sum of electronic and thermal Energies=              -422.966866
 Sum of electronic and thermal Enthalpies=            -422.965922
 Sum of electronic and thermal Free Energies=         -423.005591

                     E (Thermal)             CV                S
                      KCal/Mol        Cal/Mol-Kelvin    Cal/Mol-Kelvin
 Total                  105.283             31.617             83.490
 Electronic               0.000              0.000              0.000
 Translational            0.889              2.981             40.409
 Rotational               0.889              2.981             28.141
 Vibrational            103.505             25.656             14.941
 Vibration     1          0.637              1.842              2.146
 Vibration     2          0.641              1.831              2.077
 Vibration     3          0.676              1.723              1.577
 Vibration     4          0.695              1.668              1.399
 Vibration     5          0.714              1.612              1.252
 Vibration     6          0.761              1.484              0.986
 Vibration     7          0.836              1.294              0.710
 Vibration     8          0.870              1.216              0.621
 Vibration     9          0.885              1.184              0.588
 Vibration    10          0.904              1.142              0.546
 Vibration    11          0.908              1.134              0.539

 Optimization completed.
    -- Stationary point found.
 Normal termination of Gaussian 09 at Mon Jan 27 18:07:30 2020.
