 Gaussian 09, Revision D.01,
 Gaussian 09:  ES64L-G09RevD.01 24-Apr-2013

 -----------------------------
 # b3lyp 6-31G(2df,p) opt Freq
 -----------------------------

 -----
 titel
 -----
 Symbolic Z-matrix:
 Charge =  0 Multiplicity = 1

 SCF Done:  E(RB3LYP) =  -423.156713358     A.U. after   13 cycles
 Optimization completed.
    -- Stationary point found.
 Normal termination of Gaussian 09 at Mon Jan 27 12:18:39 2020.

 ----------------------------------------------------------------------
 #N Geom=AllCheck Guess=TCheck SCRF=Check GenChk RB3LYP/6-31G(2df,p) Fr
 eq
 ----------------------------------------------------------------------

 Structure from the checkpoint file:  "/scratch/puck/g09_ee6950c3-8a80-43e5-bd3a-17e6914ff459/Gau-35494.chk"
 -----
 titel
 -----
 Charge =  0 Multiplicity = 1

                         Standard orientation:
 ---------------------------------------------------------------------
 Center     Atomic      Atomic             Coordinates (Angstroms)
 Number     Number       Type             X           Y           Z
 ---------------------------------------------------------------------
      1          6           0        1.559675   -1.018521   -0.617228
      2          8           0        2.255640   -0.003306    0.146362
      3          6           0        1.047096    0.386403    0.840482
      4          6           0        0.377497    1.640491    0.242705
      5          6           0       -0.402322    0.725639   -0.755432
      6          8           0       -1.804258    0.646542   -0.572429
      7          6           0       -2.088356   -0.331687    0.426541
      8          6           0       -0.981332   -1.395008    0.305592
      9          6           0        0.208128   -0.546541   -0.084974
     10          1           0        1.733529   -0.926531   -1.697018
     11          1           0        1.849662   -2.027607   -0.293286
     12          1           0        1.143634    0.289388    1.926404
     13          1           0       -0.295395    2.155568    0.934384
     14          1           0        1.070365    2.360752   -0.197418
     15          1           0       -0.208917    0.897132   -1.818030
     16          1           0       -2.075596    0.120042    1.431376
     17          1           0       -3.095211   -0.714325    0.240823
     18          1           0       -0.836900   -1.959991    1.230837
     19          1           0       -1.218547   -2.104967   -0.495653
 ---------------------------------------------------------------------

 SCF Done:  E(RB3LYP) =  -423.156713358     A.U. after    1 cycles

 The electronic state is 1-A.
 Alpha  occ. eigenvalues --  -19.14037 -19.13363 -10.23247 -10.23236 -10.23199
 Alpha  occ. eigenvalues --  -10.23084 -10.19596 -10.19277 -10.17840  -1.04494
 Alpha  occ. eigenvalues --   -1.03197  -0.81962  -0.77252  -0.71275  -0.64836
 Alpha  occ. eigenvalues --   -0.63250  -0.58904  -0.52841  -0.51351  -0.49503
 Alpha  occ. eigenvalues --   -0.46953  -0.44990  -0.43293  -0.42534  -0.41744
 Alpha  occ. eigenvalues --   -0.39791  -0.37348  -0.35868  -0.34263  -0.31227
 Alpha  occ. eigenvalues --   -0.30653  -0.27961  -0.25003  -0.24419
 Alpha virt. eigenvalues --    0.06575   0.09105   0.09676   0.10706   0.12611
 Alpha virt. eigenvalues --    0.13017   0.13392   0.15031   0.16500   0.16656
 Alpha virt. eigenvalues --    0.17310   0.18290   0.19872   0.20268   0.21757

 Mulliken charges:
               1
     1  C   -0.163924
     2  O   -0.296538
     3  C    0.068426
     4  C   -0.274042
     5  C    0.083209
     6  O   -0.262930
     7  C   -0.087558
     8  C   -0.350675
     9  C    0.283394
    10  H    0.102315
    11  H    0.099585
    12  H    0.071800
    13  H    0.108677
    14  H    0.112061
    15  H    0.079476
    16  H    0.094212
    17  H    0.112710
    18  H    0.108344
    19  H    0.111459
 Sum of Mulliken charges =   0.00000

 Dipole moment (field-independent basis, Debye):
    X=             -0.8671    Y=             -1.3329    Z=              0.5543  Tot=              1.6839
 Quadrupole moment (field-independent basis, Debye-Ang):
   XX=            -60.3520   YY=            -51.3842   ZZ=            -51.0588
   XY=              1.7481   XZ=             -3.1035   YZ=              0.9285

  Exact polarizability:  77.931   1.031  75.450  -3.153   1.721  68.620
 Approx polarizability: 108.395   0.954 106.770  -1.746   1.965 105.471

                      1                      2                      3
                      A                      A                      A
 Frequencies --    101.0794               186.6025               233.8660
 Red. masses --      3.3975                 2.4126                 2.4119
 Frc consts  --      0.0205                 0.0495                 0.0777
 IR Inten    --      3.7859                 1.2177                 1.8164

                      4                      5                      6
                      A                      A                      A
 Frequencies --    330.4554               359.4194               426.4809
 Red. masses --      2.4658                 2.9462                 2.3055
 Frc consts  --      0.1586                 0.2242                 0.2471
 IR Inten    --      0.5417                 4.4800                 2.0727

                      7                      8                      9
                      A                      A                      A
 Frequencies --    461.0521               649.3148               652.3629
 Red. masses --      3.3357                 2.5606                 3.4899
 Frc consts  --      0.4178                 0.6361                 0.8751
 IR Inten    --      0.4962                 2.6151                 3.0208

                     10                     11                     12
                      A                      A                      A
 Frequencies --    702.0723               793.6893               859.1721
 Red. masses --      2.8489                 2.5026                 2.6516
 Frc consts  --      0.8273                 0.9289                 1.1532
 IR Inten    --      0.8379                11.5309                12.0092

                     13                     14                     15
                      A                      A                      A
 Frequencies --    863.6984               887.8667               899.2298
 Red. masses --      2.2470                 2.1588                 2.1727
 Frc consts  --      0.9876                 1.0027                 1.0351
 IR Inten    --     13.0968                 7.6424                 7.9551

                     16                     17                     18
                      A                      A                      A
 Frequencies --    960.5751               972.9920               980.5086
 Red. masses --      1.9204                 2.4305                 2.7290
 Frc consts  --      1.0440                 1.3557                 1.5458
 IR Inten    --      5.4497                 8.5056                25.7115

                     19                     20                     21
                      A                      A                      A
 Frequencies --   1000.3080              1013.2469              1045.4254
 Red. masses --      3.3946                 2.4864                 3.6128
 Frc consts  --      2.0013                 1.5040                 2.3264
 IR Inten    --     31.6013                 8.2838                50.0728

                     22                     23                     24
                      A                      A                      A
 Frequencies --   1098.9511              1127.3975              1140.9584
 Red. masses --      3.1660                 1.8186                 1.6288
 Frc consts  --      2.2528                 1.3619                 1.2493
 IR Inten    --     58.4879                 1.0416                 4.1495

                     25                     26                     27
                      A                      A                      A
 Frequencies --   1155.3366              1170.7906              1191.1121
 Red. masses --      1.8055                 1.8605                 1.7151
 Frc consts  --      1.4199                 1.5026                 1.4336
 IR Inten    --     14.2174                37.1957                 3.3981

                     28                     29                     30
                      A                      A                      A
 Frequencies --   1229.7636              1237.3329              1253.6924
 Red. masses --      1.3465                 1.6159                 1.3726
 Frc consts  --      1.1998                 1.4576                 1.2711
 IR Inten    --      1.1025                 5.8310                 7.6660

                     31                     32                     33
                      A                      A                      A
 Frequencies --   1268.5469              1270.9152              1312.9282
 Red. masses --      1.7493                 1.6056                 1.4490
 Frc consts  --      1.6585                 1.5280                 1.4717
 IR Inten    --      2.7113                 2.6963                14.7797

                     34                     35                     36
                      A                      A                      A
 Frequencies --   1325.1322              1353.4242              1370.8436
 Red. masses --      1.4530                 1.3126                 1.6579
 Frc consts  --      1.5033                 1.4166                 1.8356
 IR Inten    --      3.5109                 4.1924                 0.1460

                     37                     38                     39
                      A                      A                      A
 Frequencies --   1397.8235              1451.3234              1480.0928
 Red. masses --      1.5424                 1.1106                 1.1051
 Frc consts  --      1.7757                 1.3783                 1.4264
 IR Inten    --      6.1771                 5.6509                 2.6515

                     40                     41                     42
                      A                      A                      A
 Frequencies --   1520.4200              1522.5807              2976.0473
 Red. masses --      1.0915                 1.1001                 1.0720
 Frc consts  --      1.4866                 1.5026                 5.5940
 IR Inten    --      0.9732                 0.3536                53.1898

                     43                     44                     45
                      A                      A                      A
 Frequencies --   2998.0723              3038.3834              3044.6197
 Red. masses --      1.0566                 1.0631                 1.1082
 Frc consts  --      5.5955                 5.7823                 6.0526
 IR Inten    --     78.6335                25.9017                36.1751

                     46                     47                     48
                      A                      A                      A
 Frequencies --   3053.0079              3063.6622              3068.7513
 Red. masses --      1.0780                 1.0748                 1.0832
 Frc consts  --      5.9198                 5.9437                 6.0102
 IR Inten    --     38.8199                63.8897                14.7081

                     49                     50                     51
                      A                      A                      A
 Frequencies --   3092.0341              3098.3466              3125.7353
 Red. masses --      1.0922                 1.1012                 1.1071
 Frc consts  --      6.1525                 6.2283                 6.3730
 IR Inten    --     29.7395                30.8043                16.9594

 - Thermochemistry -
 -------------------
 Temperature   298.150 Kelvin.  Pressure   1.00000 Atm.
 Atom     1 has atomic number  6 and mass  12.00000

 Molecular mass:   126.06808 amu.
 Principal axes and moments of inertia in atomic units:
                           1         2         3
     Eigenvalues --   560.991271119.842881364.52310
           X            0.99953   0.01878  -0.02424
           Y           -0.01837   0.99969   0.01710
           Z            0.02455  -0.01665   0.99956
 This molecule is an asymmetric top.
 Rotational symmetry number  1.
 Warning -- assumption of classical behavior for rotation
           may cause significant error
 Rotational temperatures (Kelvin)      0.15439     0.07734     0.06348
 Rotational constants (GHZ):           3.21706     1.61160     1.32262
 Zero-point vibrational energy     423582.4 (Joules/Mol)
                                  101.23862 (Kcal/Mol)
 Warning -- explicit consideration of   7 degrees of freedom as
           vibrations may cause significant error
 Vibrational temperatures:    145.43   268.48   336.48   475.45   517.12
          (Kelvin)            613.61   663.35   934.22   938.60  1010.12
                             1141.94  1236.16  1242.67  1277.44  1293.79
                             1382.05  1399.92  1410.73  1439.22  1457.83
                             1504.13  1581.14  1622.07  1641.58  1662.27
                             1684.50  1713.74  1769.35  1780.24  1803.78
                             1825.15  1828.56  1889.01  1906.57  1947.27
                             1972.34  2011.15  2088.13  2129.52  2187.54
                             2190.65  4281.86  4313.55  4371.55  4380.52
                             4392.59  4407.92  4415.24  4448.74  4457.82
                             4497.23

 Zero-point correction=                           0.161334 (Hartree/Particle)
 Thermal correction to Energy=                    0.168445
 Thermal correction to Enthalpy=                  0.169389
 Thermal correction to Gibbs Free Energy=         0.129816
 Sum of electronic and zero-point Energies=           -422.995379
 Sum of electronic and thermal Energies=              -422.988268
 Sum of electronic and thermal Enthalpies=            -422.987324
 Sum of electronic and thermal Free Energies=         -423.026897

                     E (Thermal)             CV                S
                      KCal/Mol        Cal/Mol-Kelvin    Cal/Mol-Kelvin
 Total                  105.701             28.501             83.289
 Electronic               0.000              0.000              0.000
 Translational            0.889              2.981             40.409
 Rotational               0.889              2.981             28.241
 Vibrational            103.923             22.539             14.640
 Vibration     1          0.604              1.948              3.433
 Vibration     2          0.632              1.858              2.261
 Vibration     3          0.654              1.789              1.849
 Vibration     4          0.713              1.615              1.258
 Vibration     5          0.734              1.556              1.125
 Vibration     6          0.788              1.413              0.870
 Vibration     7          0.819              1.336              0.763

 Optimization completed.
    -- Stationary point found.
 Normal termination of Gaussian 09 at Mon Jan 27 13:06:00 2020.
