 Gaussian 09, Revision D.01,
 Gaussian 09:  ES64L-G09RevD.01 24-Apr-2013

 -----------------------------
 # b3lyp 6-31G(2df,p) opt Freq
 -----------------------------

 -----
 titel
 -----
 Symbolic Z-matrix:
 Charge =  0 Multiplicity = 1

 SCF Done:  E(RB3LYP) =  -423.216033413     A.U. after   14 cycles
 Optimization completed.
    -- Stationary point found.
 Normal termination of Gaussian 09 at Tue Jan 28 08:47:52 2020.

 ----------------------------------------------------------------------
 #N Geom=AllCheck Guess=TCheck SCRF=Check GenChk RB3LYP/6-31G(2df,p) Fr
 eq
 ----------------------------------------------------------------------

 Structure from the checkpoint file:  "/scratch/puck/g09_20ece691-fee8-4de7-b6a2-641df5c21d0a/Gau-129542.chk"
 -----
 titel
 -----
 Charge =  0 Multiplicity = 1

                         Standard orientation:
 ---------------------------------------------------------------------
 Center     Atomic      Atomic             Coordinates (Angstroms)
 Number     Number       Type             X           Y           Z
 ---------------------------------------------------------------------
      1          6           0        2.701085    0.377380   -0.480525
      2          6           0        1.335398   -0.196171   -0.865737
      3          6           0        0.288567   -0.086319    0.268811
      4          8           0        0.737384   -0.774126    1.427641
      5          6           0       -0.119057    1.331267    0.586297
      6          6           0       -1.344160    1.623113    0.145074
      7          6           0       -2.031232    0.449226   -0.508711
      8          6           0       -1.053720   -0.687225   -0.207920
      9          8           0       -1.267488   -1.872116   -0.242712
     10          1           0        3.437339    0.183702   -1.266108
     11          1           0        2.654608    1.460831   -0.330060
     12          1           0        3.056007   -0.079675    0.446455
     13          1           0        0.950900    0.302960   -1.764170
     14          1           0        1.429851   -1.261645   -1.111697
     15          1           0        0.507628   -1.703552    1.288760
     16          1           0        0.543143    2.017022    1.100282
     17          1           0       -1.822257    2.591412    0.239129
     18          1           0       -3.027232    0.224505   -0.110869
     19          1           0       -2.150442    0.566755   -1.594886
 ---------------------------------------------------------------------

 SCF Done:  E(RB3LYP) =  -423.216033413     A.U. after    1 cycles

 The electronic state is 1-A.
 Alpha  occ. eigenvalues --  -19.14680 -19.13774 -10.27481 -10.24293 -10.20388
 Alpha  occ. eigenvalues --  -10.19998 -10.19144 -10.18799 -10.17441  -1.06006
 Alpha  occ. eigenvalues --   -1.01791  -0.84982  -0.77353  -0.71173  -0.68475
 Alpha  occ. eigenvalues --   -0.61234  -0.56933  -0.54186  -0.49253  -0.47988
 Alpha  occ. eigenvalues --   -0.45928  -0.45065  -0.44427  -0.41480  -0.40037
 Alpha  occ. eigenvalues --   -0.39033  -0.38240  -0.37094  -0.35929  -0.34229
 Alpha  occ. eigenvalues --   -0.33758  -0.27908  -0.26508  -0.24498
 Alpha virt. eigenvalues --   -0.02750   0.00374   0.08773   0.10486   0.11638
 Alpha virt. eigenvalues --    0.13843   0.14742   0.15838   0.16692   0.16914
 Alpha virt. eigenvalues --    0.17419   0.17873   0.19970   0.22135   0.23328

 Mulliken charges:
               1
     1  C   -0.396168
     2  C   -0.204607
     3  C    0.258455
     4  O   -0.477609
     5  C   -0.092874
     6  C   -0.085131
     7  C   -0.377804
     8  C    0.350977
     9  O   -0.329143
    10  H    0.113416
    11  H    0.115041
    12  H    0.137125
    13  H    0.095528
    14  H    0.104872
    15  H    0.288705
    16  H    0.112153
    17  H    0.106862
    18  H    0.139950
    19  H    0.140252
 Sum of Mulliken charges =   0.00000

 Dipole moment (field-independent basis, Debye):
    X=             -0.2774    Y=              1.9218    Z=             -1.1346  Tot=              2.2489
 Quadrupole moment (field-independent basis, Debye-Ang):
   XX=            -51.6560   YY=            -54.0475   ZZ=            -54.8343
   XY=             -4.2008   XZ=             -0.7568   YZ=             -0.8468

  Exact polarizability:  91.004  -3.116  77.817   5.376   0.861  61.136
 Approx polarizability: 126.306  -3.544 119.727  13.300  -0.321  95.881

                      1                      2                      3
                      A                      A                      A
 Frequencies --     59.7296               103.4389               160.3090
 Red. masses --      3.7206                 2.1917                 3.4195
 Frc consts  --      0.0078                 0.0138                 0.0518
 IR Inten    --      1.5984                 1.5701                 0.5279

                      4                      5                      6
                      A                      A                      A
 Frequencies --    211.5781               248.4638               270.3673
 Red. masses --      1.4365                 1.9311                 3.4711
 Frc consts  --      0.0379                 0.0702                 0.1495
 IR Inten    --      0.2899                 1.2462                16.3152

                      7                      8                      9
                      A                      A                      A
 Frequencies --    320.4749               363.8473               381.9572
 Red. masses --      2.8794                 2.6099                 1.3802
 Frc consts  --      0.1742                 0.2036                 0.1186
 IR Inten    --     17.9917                42.0121                28.5678

                     10                     11                     12
                      A                      A                      A
 Frequencies --    478.6014               547.8151               591.0290
 Red. masses --      2.0207                 3.4995                 3.8546
 Frc consts  --      0.2727                 0.6188                 0.7933
 IR Inten    --      7.6945                 6.3189                 3.5279

                     13                     14                     15
                      A                      A                      A
 Frequencies --    630.0913               695.7028               740.0310
 Red. masses --      3.4011                 5.0219                 1.3620
 Frc consts  --      0.7956                 1.4321                 0.4395
 IR Inten    --      0.3689                 1.2540                23.9314

                     16                     17                     18
                      A                      A                      A
 Frequencies --    769.3762               797.5422               916.8114
 Red. masses --      4.0018                 1.2475                 3.0114
 Frc consts  --      1.3957                 0.4675                 1.4913
 IR Inten    --     13.5110                 4.3640                 4.5560

                     19                     20                     21
                      A                      A                      A
 Frequencies --    953.6154               977.1445               982.2655
 Red. masses --      2.4465                 2.2489                 1.5951
 Frc consts  --      1.3108                 1.2651                 0.9068
 IR Inten    --      1.2530                14.6452                 6.4060

                     22                     23                     24
                      A                      A                      A
 Frequencies --    990.8556              1023.3941              1080.3961
 Red. masses --      1.4815                 1.8870                 2.4983
 Frc consts  --      0.8570                 1.1644                 1.7182
 IR Inten    --      3.1726                35.0658                21.9508

                     25                     26                     27
                      A                      A                      A
 Frequencies --   1093.0086              1133.5356              1149.4376
 Red. masses --      2.5773                 1.3495                 1.7088
 Frc consts  --      1.8141                 1.0216                 1.3302
 IR Inten    --     37.8576                 9.9544                72.0684

                     28                     29                     30
                      A                      A                      A
 Frequencies --   1162.8469              1207.6686              1280.9385
 Red. masses --      1.4774                 2.8529                 1.6486
 Frc consts  --      1.1771                 2.4515                 1.5938
 IR Inten    --      9.2560                 7.9720                 5.5119

                     31                     32                     33
                      A                      A                      A
 Frequencies --   1292.6466              1351.1930              1366.5487
 Red. masses --      1.2669                 1.4507                 1.5811
 Frc consts  --      1.2472                 1.5605                 1.7397
 IR Inten    --     15.3383                12.5710                14.4613

                     34                     35                     36
                      A                      A                      A
 Frequencies --   1403.6088              1419.7427              1447.2860
 Red. masses --      1.2446                 1.7721                 1.0893
 Frc consts  --      1.4446                 2.1045                 1.3443
 IR Inten    --      3.4693                16.1816                 8.3418

                     37                     38                     39
                      A                      A                      A
 Frequencies --   1478.3729              1497.3374              1508.6151
 Red. masses --      1.0846                 1.0409                 1.0548
 Frc consts  --      1.3966                 1.3750                 1.4144
 IR Inten    --      0.7227                 4.5029                 3.2511

                     40                     41                     42
                      A                      A                      A
 Frequencies --   1674.9404              1846.7211              3019.4334
 Red. masses --      6.6088                12.6688                 1.0603
 Frc consts  --     10.9237                25.4560                 5.6954
 IR Inten    --      1.5308               165.0860                 7.1823

                     43                     44                     45
                      A                      A                      A
 Frequencies --   3020.8172              3041.7329              3058.5964
 Red. masses --      1.0645                 1.0368                 1.1012
 Frc consts  --      5.7233                 5.6515                 6.0697
 IR Inten    --     22.1170                24.6362                18.1660

                     46                     47                     48
                      A                      A                      A
 Frequencies --   3068.1883              3106.1131              3127.3230
 Red. masses --      1.0938                 1.1012                 1.1014
 Frc consts  --      6.0667                 6.2597                 6.3464
 IR Inten    --      8.9553                32.6019                17.3853

                     49                     50                     51
                      A                      A                      A
 Frequencies --   3192.3980              3217.7219              3748.9184
 Red. masses --      1.0864                 1.1022                 1.0654
 Frc consts  --      6.5233                 6.7236                 8.8223
 IR Inten    --      5.2587                10.3728                33.4444

 - Thermochemistry -
 -------------------
 Temperature   298.150 Kelvin.  Pressure   1.00000 Atm.
 Atom     1 has atomic number  6 and mass  12.00000

 Molecular mass:   126.06808 amu.
 Principal axes and moments of inertia in atomic units:
                           1         2         3
     Eigenvalues --   759.214191228.463891516.98843
           X            0.99958  -0.02606  -0.01248
           Y            0.02602   0.99966  -0.00285
           Z            0.01255   0.00252   0.99992
 This molecule is an asymmetric top.
 Rotational symmetry number  1.
 Warning -- assumption of classical behavior for rotation
           may cause significant error
 Rotational temperatures (Kelvin)      0.11408     0.07051     0.05710
 Rotational constants (GHZ):           2.37712     1.46910     1.18969
 Zero-point vibrational energy     413970.9 (Joules/Mol)
                                   98.94142 (Kcal/Mol)
 Warning -- explicit consideration of  12 degrees of freedom as
           vibrations may cause significant error
 Vibrational temperatures:     85.94   148.83   230.65   304.41   357.48
          (Kelvin)            389.00   461.09   523.49   549.55   688.60
                              788.18   850.36   906.56  1000.96  1064.74
                             1106.96  1147.48  1319.09  1372.04  1405.89
                             1413.26  1425.62  1472.43  1554.45  1572.59
                             1630.90  1653.78  1673.08  1737.56  1842.98
                             1859.83  1944.06  1966.16  2019.48  2042.69
                             2082.32  2127.05  2154.33  2170.56  2409.86
                             2657.02  4344.29  4346.28  4376.37  4400.63
                             4414.43  4469.00  4499.51  4593.14  4629.58
                             5393.85

 Zero-point correction=                           0.157673 (Hartree/Particle)
 Thermal correction to Energy=                    0.166809
 Thermal correction to Enthalpy=                  0.167753
 Thermal correction to Gibbs Free Energy=         0.123732
 Sum of electronic and zero-point Energies=           -423.058360
 Sum of electronic and thermal Energies=              -423.049224
 Sum of electronic and thermal Enthalpies=            -423.048280
 Sum of electronic and thermal Free Energies=         -423.092301

                     E (Thermal)             CV                S
                      KCal/Mol        Cal/Mol-Kelvin    Cal/Mol-Kelvin
 Total                  104.674             34.282             92.650
 Electronic               0.000              0.000              0.000
 Translational            0.889              2.981             40.409
 Rotational               0.889              2.981             28.738
 Vibrational            102.897             28.320             23.503
 Vibration     1          0.597              1.974              4.466
 Vibration     2          0.605              1.946              3.388
 Vibration     3          0.622              1.891              2.546
 Vibration     4          0.643              1.823              2.030
 Vibration     5          0.662              1.765              1.741
 Vibration     6          0.674              1.728              1.594
 Vibration     7          0.706              1.634              1.308
 Vibration     8          0.737              1.547              1.106
 Vibration     9          0.751              1.509              1.031
 Vibration    10          0.835              1.298              0.714
 Vibration    11          0.903              1.144              0.549
 Vibration    12          0.948              1.051              0.465

 Normal termination of Gaussian 09 at Tue Jan 28 09:30:23 2020.
