 Gaussian 09, Revision D.01,
 Gaussian 09:  ES64L-G09RevD.01 24-Apr-2013

 -----------------------------
 # b3lyp 6-31G(2df,p) opt Freq
 -----------------------------

 -----
 titel
 -----
 Symbolic Z-matrix:
 Charge =  0 Multiplicity = 1

 SCF Done:  E(RB3LYP) =  -423.154877400     A.U. after   14 cycles
 SCF Done:  E(RB3LYP) =  -423.154877114     A.U. after    7 cycles
 SCF Done:  E(RB3LYP) =  -423.154877385     A.U. after    7 cycles
 Optimization completed.
    -- Stationary point found.
 Normal termination of Gaussian 09 at Tue Jan 28 08:20:26 2020.

 ----------------------------------------------------------------------
 #N Geom=AllCheck Guess=TCheck SCRF=Check GenChk RB3LYP/6-31G(2df,p) Fr
 eq
 ----------------------------------------------------------------------

 Structure from the checkpoint file:  "/scratch/puck/g09_52c592f3-ce9d-4a9d-8054-0888fc696c91/Gau-186200.chk"
 -----
 titel
 -----
 Charge =  0 Multiplicity = 1

                         Standard orientation:
 ---------------------------------------------------------------------
 Center     Atomic      Atomic             Coordinates (Angstroms)
 Number     Number       Type             X           Y           Z
 ---------------------------------------------------------------------
      1          6           0       -2.906787   -0.311282   -0.198260
      2          6           0       -1.546338   -0.769039   -0.725936
      3          6           0       -0.341365   -0.211656    0.069720
      4          8           0       -0.419138   -0.607429    1.446212
      5          6           0        0.970942   -0.832416   -0.450072
      6          6           0        2.212454   -0.265754    0.213089
      7          8           0        3.266205   -0.124265   -0.352296
      8          6           0       -0.287981    1.255775   -0.032929
      9          6           0       -0.254856    2.455809   -0.101899
     10          1           0       -3.714273   -0.734646   -0.801912
     11          1           0       -3.061438   -0.643259    0.833403
     12          1           0       -2.999874    0.778687   -0.228832
     13          1           0       -1.478545   -1.862028   -0.682808
     14          1           0       -1.431212   -0.476661   -1.775628
     15          1           0       -1.037348   -0.019045    1.891859
     16          1           0        0.931025   -1.905259   -0.217385
     17          1           0        1.063982   -0.720975   -1.532673
     18          1           0        2.086772   -0.007572    1.284901
     19          1           0       -0.212042    3.515688   -0.164530
 ---------------------------------------------------------------------

 SCF Done:  E(RB3LYP) =  -423.154877385     A.U. after    1 cycles

 The electronic state is 1-A.
 Alpha  occ. eigenvalues --  -19.15568 -19.13358 -10.27670 -10.26604 -10.19795
 Alpha  occ. eigenvalues --  -10.19596 -10.19503 -10.19195 -10.18489  -1.04229
 Alpha  occ. eigenvalues --   -1.03810  -0.82156  -0.76133  -0.75118  -0.67172
 Alpha  occ. eigenvalues --   -0.61466  -0.57545  -0.56362  -0.52054  -0.47684
 Alpha  occ. eigenvalues --   -0.46847  -0.44928  -0.44073  -0.42220  -0.40097
 Alpha  occ. eigenvalues --   -0.38168  -0.37505  -0.36824  -0.35387  -0.35100
 Alpha  occ. eigenvalues --   -0.30293  -0.28591  -0.28047  -0.24261
 Alpha virt. eigenvalues --   -0.01846   0.02311   0.04119   0.07277   0.10768
 Alpha virt. eigenvalues --    0.11396   0.12933   0.13348   0.15247   0.15863
 Alpha virt. eigenvalues --    0.16834   0.17133   0.19277   0.20689   0.21730

 Mulliken charges:
               1
     1  C   -0.414052
     2  C   -0.182879
     3  C    0.142132
     4  O   -0.450998
     5  C   -0.291114
     6  C    0.158892
     7  O   -0.249739
     8  C    0.331805
     9  C   -0.489931
    10  H    0.122871
    11  H    0.116657
    12  H    0.130418
    13  H    0.106101
    14  H    0.109069
    15  H    0.291373
    16  H    0.136538
    17  H    0.127956
    18  H    0.096021
    19  H    0.208881
 Sum of Mulliken charges =   0.00000

 Dipole moment (field-independent basis, Debye):
    X=             -3.4601    Y=              0.4569    Z=              0.2599  Tot=              3.4998
 Quadrupole moment (field-independent basis, Debye-Ang):
   XX=            -63.7322   YY=            -47.9076   ZZ=            -52.5794
   XY=             -0.7270   XZ=              1.3985   YZ=              1.8027

  Exact polarizability:  84.147   2.100  84.551  -1.686   0.670  64.314
 Approx polarizability: 108.931   3.428 135.836  -6.794  -3.345  99.333

                      1                      2                      3
                      A                      A                      A
 Frequencies --     59.1540                98.2878               108.2421
 Red. masses --      5.8555                 2.8221                 2.3294
 Frc consts  --      0.0121                 0.0161                 0.0161
 IR Inten    --      4.4637                 1.6160                 0.6660

                      4                      5                      6
                      A                      A                      A
 Frequencies --    138.7869               160.2220               194.7778
 Red. masses --      3.0936                 2.2305                 2.7334
 Frc consts  --      0.0351                 0.0337                 0.0611
 IR Inten    --      2.8040                 0.8682                 2.9348

                      7                      8                      9
                      A                      A                      A
 Frequencies --    236.8244               284.5097               289.0035
 Red. masses --      1.3876                 1.7935                 1.6206
 Frc consts  --      0.0459                 0.0855                 0.0798
 IR Inten    --     11.9220                63.9053                25.0072

                     10                     11                     12
                      A                      A                      A
 Frequencies --    355.8930               400.5028               412.2551
 Red. masses --      4.0348                 2.8842                 3.2861
 Frc consts  --      0.3011                 0.2726                 0.3291
 IR Inten    --      0.4801                19.5365                 0.7129

                     13                     14                     15
                      A                      A                      A
 Frequencies --    472.4662               570.3695               640.9746
 Red. masses --      3.7754                 5.4079                 2.2698
 Frc consts  --      0.4965                 1.0365                 0.5494
 IR Inten    --     14.8123                 4.9273                 5.5627

                     16                     17                     18
                      A                      A                      A
 Frequencies --    646.8799               672.2919               691.7486
 Red. masses --      1.5393                 1.2509                 2.3527
 Frc consts  --      0.3795                 0.3331                 0.6633
 IR Inten    --     41.7969                34.9140                 6.4652

                     19                     20                     21
                      A                      A                      A
 Frequencies --    782.0478               808.5190               941.0506
 Red. masses --      1.3068                 2.0450                 1.9870
 Frc consts  --      0.4709                 0.7876                 1.0368
 IR Inten    --      2.4481                 7.0426                13.1369

                     22                     23                     24
                      A                      A                      A
 Frequencies --    958.2137              1013.3831              1046.2419
 Red. masses --      2.8430                 2.0642                 3.0071
 Frc consts  --      1.5380                 1.2490                 1.9394
 IR Inten    --     11.7189                31.1750                33.8538

                     25                     26                     27
                      A                      A                      A
 Frequencies --   1056.7708              1095.2287              1145.5452
 Red. masses --      1.5404                 2.6744                 2.8163
 Frc consts  --      1.0136                 1.8901                 2.1775
 IR Inten    --      2.2473                25.1071                68.8107

                     28                     29                     30
                      A                      A                      A
 Frequencies --   1169.7763              1236.1354              1297.8012
 Red. masses --      1.9356                 1.3509                 1.3787
 Frc consts  --      1.5605                 1.2162                 1.3681
 IR Inten    --      4.5342                 4.3910                 5.4530

                     31                     32                     33
                      A                      A                      A
 Frequencies --   1322.1700              1345.0533              1383.1697
 Red. masses --      1.4145                 1.4526                 1.5176
 Frc consts  --      1.4569                 1.5484                 1.7106
 IR Inten    --      9.7457                28.6977                41.7654

                     34                     35                     36
                      A                      A                      A
 Frequencies --   1409.5821              1421.1770              1436.6543
 Red. masses --      1.2761                 1.2210                 1.0854
 Frc consts  --      1.4938                 1.4530                 1.3199
 IR Inten    --      9.1970                 5.8482                 5.2341

                     37                     38                     39
                      A                      A                      A
 Frequencies --   1473.0590              1499.4276              1510.7254
 Red. masses --      1.0816                 1.0404                 1.0511
 Frc consts  --      1.3828                 1.3781                 1.4134
 IR Inten    --      3.0499                 5.0522                 3.3060

                     40                     41                     42
                      A                      A                      A
 Frequencies --   1831.9851              2227.1261              2924.0939
 Red. masses --     10.0831                 5.8941                 1.0840
 Frc consts  --     19.9383                17.2250                 5.4610
 IR Inten    --    176.2965                 2.2905                64.8507

                     43                     44                     45
                      A                      A                      A
 Frequencies --   3029.6869              3037.7952              3040.6959
 Red. masses --      1.0644                 1.0585                 1.0366
 Frc consts  --      5.7565                 5.7549                 5.6471
 IR Inten    --      1.7587                15.1184                28.1779

                     46                     47                     48
                      A                      A                      A
 Frequencies --   3078.4659              3110.6442              3116.0427
 Red. masses --      1.1027                 1.1013                 1.1011
 Frc consts  --      6.1571                 6.2782                 6.2994
 IR Inten    --      7.1340                23.8390                21.8649

                     49                     50                     51
                      A                      A                      A
 Frequencies --   3117.8431              3497.2991              3823.5598
 Red. masses --      1.0969                 1.1625                 1.0663
 Frc consts  --      6.2826                 8.3777                 9.1848
 IR Inten    --     14.7012                65.5888                26.3672

 - Thermochemistry -
 -------------------
 Temperature   298.150 Kelvin.  Pressure   1.00000 Atm.
 Atom     1 has atomic number  6 and mass  12.00000

 Molecular mass:   126.06808 amu.
 Principal axes and moments of inertia in atomic units:
                           1         2         3
     Eigenvalues --   697.774231708.010051991.47620
           X            0.99991   0.00890   0.01035
           Y           -0.00928   0.99928   0.03668
           Z           -0.01002  -0.03677   0.99927
 This molecule is an asymmetric top.
 Rotational symmetry number  1.
 Warning -- assumption of classical behavior for rotation
           may cause significant error
 Rotational temperatures (Kelvin)      0.12413     0.05071     0.04349
 Rotational constants (GHZ):           2.58643     1.05663     0.90623
 Zero-point vibrational energy     404458.4 (Joules/Mol)
                                   96.66787 (Kcal/Mol)
 Warning -- explicit consideration of  14 degrees of freedom as
           vibrations may cause significant error
 Vibrational temperatures:     85.11   141.41   155.74   199.68   230.52
          (Kelvin)            280.24   340.74   409.35   415.81   512.05
                              576.23   593.14   679.77   820.63   922.22
                              930.71   967.28   995.27  1125.19  1163.28
                             1353.96  1378.65  1458.03  1505.31  1520.46
                             1575.79  1648.18  1683.05  1778.52  1867.24
                             1902.31  1935.23  1990.07  2028.07  2044.75
                             2067.02  2119.40  2157.34  2173.59  2635.81
                             3204.33  4207.11  4359.04  4370.70  4374.88
                             4429.22  4475.52  4483.28  4485.88  5031.83
                             5501.24

 Zero-point correction=                           0.154050 (Hartree/Particle)
 Thermal correction to Energy=                    0.164791
 Thermal correction to Enthalpy=                  0.165735
 Thermal correction to Gibbs Free Energy=         0.118107
 Sum of electronic and zero-point Energies=           -423.000827
 Sum of electronic and thermal Energies=              -422.990087
 Sum of electronic and thermal Enthalpies=            -422.989142
 Sum of electronic and thermal Free Energies=         -423.036770

                     E (Thermal)             CV                S
                      KCal/Mol        Cal/Mol-Kelvin    Cal/Mol-Kelvin
 Total                  103.408             38.367            100.241
 Electronic               0.000              0.000              0.000
 Translational            0.889              2.981             40.409
 Rotational               0.889              2.981             29.252
 Vibrational            101.630             32.406             30.580
 Vibration     1          0.597              1.974              4.485
 Vibration     2          0.604              1.950              3.488
 Vibration     3          0.606              1.943              3.300
 Vibration     4          0.614              1.915              2.821
 Vibration     5          0.622              1.891              2.547
 Vibration     6          0.635              1.847              2.182
 Vibration     7          0.656              1.784              1.827
 Vibration     8          0.683              1.702              1.506
 Vibration     9          0.686              1.694              1.480
 Vibration    10          0.731              1.563              1.140
 Vibration    11          0.766              1.469              0.961
 Vibration    12          0.776              1.444              0.919
 Vibration    13          0.829              1.311              0.731
 Vibration    14          0.926              1.095              0.504

 Optimization completed.
    -- Stationary point found.
 Normal termination of Gaussian 09 at Tue Jan 28 08:51:55 2020.
