 Gaussian 09, Revision D.01,
 Gaussian 09:  ES64L-G09RevD.01 24-Apr-2013

 -----------------------------
 # b3lyp 6-31G(2df,p) opt Freq
 -----------------------------

 -----
 titel
 -----
 Symbolic Z-matrix:
 Charge =  0 Multiplicity = 1

 SCF Done:  E(RB3LYP) =  -423.120157189     A.U. after   13 cycles
 Optimization completed.
    -- Stationary point found.
 Normal termination of Gaussian 09 at Tue Jan 28 03:37:24 2020.

 ----------------------------------------------------------------------
 #N Geom=AllCheck Guess=TCheck SCRF=Check GenChk RB3LYP/6-31G(2df,p) Fr
 eq
 ----------------------------------------------------------------------

 Structure from the checkpoint file:  "/scratch/puck/g09_6041755e-b7c3-4767-86d0-fa48188e4901/Gau-116429.chk"
 -----
 titel
 -----
 Charge =  0 Multiplicity = 1

                         Standard orientation:
 ---------------------------------------------------------------------
 Center     Atomic      Atomic             Coordinates (Angstroms)
 Number     Number       Type             X           Y           Z
 ---------------------------------------------------------------------
      1          6           0        2.503928   -0.635423   -0.364352
      2          6           0        1.472616    0.061050    0.491575
      3          8           0        1.036275    1.353471   -0.063809
      4          6           0       -0.319987    1.094283    0.391491
      5          6           0       -1.611552    1.031761   -0.456914
      6          6           0       -1.707367   -0.530801   -0.447527
      7          6           0       -1.275095   -1.057494    0.973484
      8          6           0        0.004851   -0.394970    0.441835
      9          8           0       -0.362668   -0.840959   -0.899188
     10          1           0        2.101208   -0.827646   -1.359942
     11          1           0        3.396237   -0.008652   -0.454728
     12          1           0        2.797773   -1.585674    0.093588
     13          1           0        1.827481    0.204790    1.521791
     14          1           0       -0.479504    1.580817    1.361482
     15          1           0       -2.447472    1.557722    0.011370
     16          1           0       -1.494241    1.378525   -1.485029
     17          1           0       -2.498605   -1.015724   -1.020157
     18          1           0       -1.735514   -0.647011    1.876083
     19          1           0       -1.260586   -2.147676    0.981971
 ---------------------------------------------------------------------

 SCF Done:  E(RB3LYP) =  -423.120157189     A.U. after    1 cycles

 The electronic state is 1-A.
 Alpha  occ. eigenvalues --  -19.13638 -19.13186 -10.24708 -10.24163 -10.23778
 Alpha  occ. eigenvalues --  -10.22410 -10.20107 -10.18936 -10.17344  -1.06927
 Alpha  occ. eigenvalues --   -1.01546  -0.78984  -0.75459  -0.71602  -0.69538
 Alpha  occ. eigenvalues --   -0.61579  -0.57007  -0.54365  -0.51339  -0.48102
 Alpha  occ. eigenvalues --   -0.46329  -0.44200  -0.42981  -0.40511  -0.39452
 Alpha  occ. eigenvalues --   -0.37621  -0.37379  -0.36428  -0.35541  -0.32537
 Alpha  occ. eigenvalues --   -0.30855  -0.29318  -0.25133  -0.24203
 Alpha virt. eigenvalues --    0.08054   0.08840   0.10302   0.11521   0.11865
 Alpha virt. eigenvalues --    0.12819   0.14791   0.15089   0.15317   0.16385
 Alpha virt. eigenvalues --    0.17076   0.18346   0.18893   0.19576   0.20257

 Mulliken charges:
               1
     1  C   -0.411745
     2  C    0.012406
     3  O   -0.328892
     4  C    0.144669
     5  C   -0.275714
     6  C    0.062968
     7  C   -0.342241
     8  C    0.363694
     9  O   -0.303588
    10  H    0.147865
    11  H    0.127495
    12  H    0.117911
    13  H    0.078933
    14  H    0.072136
    15  H    0.098399
    16  H    0.129035
    17  H    0.087101
    18  H    0.101449
    19  H    0.118119
 Sum of Mulliken charges =   0.00000

 Dipole moment (field-independent basis, Debye):
    X=             -1.4013    Y=             -0.8252    Z=              1.6696  Tot=              2.3308
 Quadrupole moment (field-independent basis, Debye-Ang):
   XX=            -48.7669   YY=            -55.5224   ZZ=            -52.8528
   XY=             -2.2873   XZ=              1.1164   YZ=             -0.4535

  Exact polarizability:  88.457  -1.940  70.546   1.089  -0.105  66.986
 Approx polarizability: 118.330  -1.116 106.247   0.296   1.581 105.207

                      1                      2                      3
                      A                      A                      A
 Frequencies --    158.7713               201.4923               213.3943
 Red. masses --      3.0239                 1.2349                 2.1721
 Frc consts  --      0.0449                 0.0295                 0.0583
 IR Inten    --      2.5020                 1.0128                 1.0461

                      4                      5                      6
                      A                      A                      A
 Frequencies --    305.3106               393.6657               419.4911
 Red. masses --      3.5876                 1.9971                 2.9454
 Frc consts  --      0.1970                 0.1823                 0.3054
 IR Inten    --      1.9969                 2.0529                 2.2201

                      7                      8                      9
                      A                      A                      A
 Frequencies --    486.1450               515.9717               613.1277
 Red. masses --      3.3842                 3.1689                 3.5449
 Frc consts  --      0.4712                 0.4971                 0.7851
 IR Inten    --      6.5076                 1.9339                 2.6102

                     10                     11                     12
                      A                      A                      A
 Frequencies --    664.4436               742.2450               800.4769
 Red. masses --      3.3692                 3.4737                 3.2071
 Frc consts  --      0.8764                 1.1276                 1.2108
 IR Inten    --      4.1267                13.3946                 1.7876

                     13                     14                     15
                      A                      A                      A
 Frequencies --    825.5096               833.8415               860.4771
 Red. masses --      2.9855                 3.0773                 3.0828
 Frc consts  --      1.1987                 1.2606                 1.3448
 IR Inten    --     25.5983                35.6153                 6.1187

                     16                     17                     18
                      A                      A                      A
 Frequencies --    874.8284               929.4473               973.4783
 Red. masses --      2.4184                 2.5044                 2.3785
 Frc consts  --      1.0905                 1.2747                 1.3280
 IR Inten    --      4.3617                23.8891                11.8469

                     19                     20                     21
                      A                      A                      A
 Frequencies --    979.3758               998.2613              1035.6692
 Red. masses --      2.2359                 2.2972                 2.6785
 Frc consts  --      1.2635                 1.3488                 1.6927
 IR Inten    --     19.1097                18.9337                64.1400

                     22                     23                     24
                      A                      A                      A
 Frequencies --   1062.0978              1074.6115              1098.0030
 Red. masses --      1.7201                 2.4198                 1.6827
 Frc consts  --      1.1433                 1.6464                 1.1952
 IR Inten    --      8.6893                 5.7282                12.3301

                     25                     26                     27
                      A                      A                      A
 Frequencies --   1124.4924              1158.6051              1162.8663
 Red. masses --      1.7788                 1.9487                 1.4163
 Frc consts  --      1.3253                 1.5413                 1.1284
 IR Inten    --      0.2028                 7.1677                 3.2267

                     28                     29                     30
                      A                      A                      A
 Frequencies --   1191.7414              1218.7553              1247.1567
 Red. masses --      1.5350                 1.7450                 1.6081
 Frc consts  --      1.2845                 1.5272                 1.4737
 IR Inten    --      8.8201                21.9855                 6.0560

                     31                     32                     33
                      A                      A                      A
 Frequencies --   1263.8683              1282.2849              1303.6602
 Red. masses --      1.7109                 1.7190                 1.5115
 Frc consts  --      1.6102                 1.6653                 1.5135
 IR Inten    --      3.2298                 5.7921                 1.9321

                     34                     35                     36
                      A                      A                      A
 Frequencies --   1314.5225              1368.6431              1393.1236
 Red. masses --      1.6177                 1.4081                 1.2816
 Frc consts  --      1.6470                 1.5541                 1.4655
 IR Inten    --      4.4924                14.5801                 1.0995

                     37                     38                     39
                      A                      A                      A
 Frequencies --   1411.9600              1469.6215              1481.1493
 Red. masses --      1.5444                 1.0990                 1.0581
 Frc consts  --      1.8141                 1.3985                 1.3677
 IR Inten    --     16.1723                 2.7834                 4.8722

                     40                     41                     42
                      A                      A                      A
 Frequencies --   1486.6568              1496.5779              3007.7328
 Red. masses --      1.1594                 1.0517                 1.0835
 Frc consts  --      1.5098                 1.3879                 5.7752
 IR Inten    --      0.4611                 4.3479                33.9472

                     43                     44                     45
                      A                      A                      A
 Frequencies --   3025.1396              3045.1559              3066.6369
 Red. masses --      1.0848                 1.0370                 1.0589
 Frc consts  --      5.8490                 5.6659                 5.8670
 IR Inten    --     49.8552                19.0574                34.4236

                     46                     47                     48
                      A                      A                      A
 Frequencies --   3072.6693              3111.1511              3120.5505
 Red. masses --      1.0609                 1.1007                 1.0916
 Frc consts  --      5.9013                 6.2769                 6.2626
 IR Inten    --     31.0425                15.4137                48.1198

                     49                     50                     51
                      A                      A                      A
 Frequencies --   3132.3943              3146.3440              3147.9925
 Red. masses --      1.1054                 1.1080                 1.1006
 Frc consts  --      6.3904                 6.4626                 6.4263
 IR Inten    --     11.1129                20.9804                11.0160

 - Thermochemistry -
 -------------------
 Temperature   298.150 Kelvin.  Pressure   1.00000 Atm.
 Atom     1 has atomic number  6 and mass  12.00000

 Molecular mass:   126.06808 amu.
 Principal axes and moments of inertia in atomic units:
                           1         2         3
     Eigenvalues --   568.878001094.340821291.96203
           X            0.99912  -0.04125  -0.00820
           Y            0.04112   0.99904  -0.01492
           Z            0.00880   0.01457   0.99986
 This molecule is an asymmetric top.
 Rotational symmetry number  1.
 Warning -- assumption of classical behavior for rotation
           may cause significant error
 Rotational temperatures (Kelvin)      0.15225     0.07915     0.06704
 Rotational constants (GHZ):           3.17246     1.64916     1.39690
 Zero-point vibrational energy     420556.7 (Joules/Mol)
                                  100.51546 (Kcal/Mol)
 Warning -- explicit consideration of   9 degrees of freedom as
           vibrations may cause significant error
 Vibrational temperatures:    228.44   289.90   307.03   439.27   566.40
          (Kelvin)            603.55   699.45   742.37   882.15   955.98
                             1067.92  1151.71  1187.72  1199.71  1238.03
                             1258.68  1337.27  1400.62  1409.10  1436.27
                             1490.10  1528.12  1546.12  1579.78  1617.89
                             1666.97  1673.10  1714.65  1753.51  1794.38
                             1818.42  1844.92  1875.67  1891.30  1969.17
                             2004.39  2031.49  2114.45  2131.04  2138.96
                             2153.24  4327.45  4352.50  4381.29  4412.20
                             4420.88  4476.25  4489.77  4506.81  4526.88
                             4529.25

 Zero-point correction=                           0.160182 (Hartree/Particle)
 Thermal correction to Energy=                    0.167405
 Thermal correction to Enthalpy=                  0.168350
 Thermal correction to Gibbs Free Energy=         0.128916
 Sum of electronic and zero-point Energies=           -422.959976
 Sum of electronic and thermal Energies=              -422.952752
 Sum of electronic and thermal Enthalpies=            -422.951808
 Sum of electronic and thermal Free Energies=         -422.991242

                     E (Thermal)             CV                S
                      KCal/Mol        Cal/Mol-Kelvin    Cal/Mol-Kelvin
 Total                  105.048             29.631             82.996
 Electronic               0.000              0.000              0.000
 Translational            0.889              2.981             40.409
 Rotational               0.889              2.981             28.177
 Vibrational            103.271             23.669             14.410
 Vibration     1          0.621              1.893              2.564
 Vibration     2          0.638              1.838              2.119
 Vibration     3          0.644              1.821              2.014
 Vibration     4          0.696              1.664              1.388
 Vibration     5          0.761              1.484              0.986
 Vibration     6          0.782              1.428              0.894
 Vibration     7          0.842              1.281              0.694
 Vibration     8          0.871              1.215              0.619
 Vibration     9          0.972              1.004              0.428

 Optimization completed.
    -- Stationary point found.
 Normal termination of Gaussian 09 at Tue Jan 28 04:21:24 2020.
