 Gaussian 09, Revision D.01,
 Gaussian 09:  ES64L-G09RevD.01 24-Apr-2013

 -----------------------------
 # b3lyp 6-31G(2df,p) opt Freq
 -----------------------------

 -----
 titel
 -----
 Symbolic Z-matrix:
 Charge =  0 Multiplicity = 1

 SCF Done:  E(RB3LYP) =  -423.134853224     A.U. after   13 cycles
 Optimization completed.
    -- Stationary point found.
 Normal termination of Gaussian 09 at Tue Jan 28 14:03:27 2020.

 ----------------------------------------------------------------------
 #N Geom=AllCheck Guess=TCheck SCRF=Check GenChk RB3LYP/6-31G(2df,p) Fr
 eq
 ----------------------------------------------------------------------

 Structure from the checkpoint file:  "/scratch/puck/g09_4f0e794f-a878-415a-a521-96111d896c13/Gau-90686.chk"
 -----
 titel
 -----
 Charge =  0 Multiplicity = 1

                         Standard orientation:
 ---------------------------------------------------------------------
 Center     Atomic      Atomic             Coordinates (Angstroms)
 Number     Number       Type             X           Y           Z
 ---------------------------------------------------------------------
      1          8           0        2.862820   -0.047468   -0.381263
      2          6           0        1.826480   -0.480675    0.492320
      3          6           0        0.487547   -0.626899   -0.225277
      4          6           0       -0.740787   -0.900117    0.676002
      5          6           0       -1.858422   -1.108867   -0.378797
      6          6           0       -1.653164    0.387030   -0.667917
      7          6           0       -1.240763    0.624836    0.799173
      8          8           0       -0.174187    1.511292    0.443696
      9          6           0       -0.104976    0.695339   -0.767840
     10          1           0        2.754784    0.900031   -0.507389
     11          1           0        2.140484   -1.459081    0.872516
     12          1           0        1.719106    0.193858    1.349818
     13          1           0        0.581881   -1.379224   -1.015309
     14          1           0       -0.623093   -1.555836    1.537490
     15          1           0       -1.680314   -1.844972   -1.167370
     16          1           0       -2.841496   -1.280565    0.069539
     17          1           0       -2.342282    1.025024   -1.218281
     18          1           0       -1.871928    0.944037    1.626878
     19          1           0        0.358305    1.202242   -1.613345
 ---------------------------------------------------------------------

 SCF Done:  E(RB3LYP) =  -423.134853224     A.U. after    1 cycles

 The electronic state is 1-A.
 Alpha  occ. eigenvalues --  -19.13885 -19.12909 -10.24075 -10.23984 -10.21864
 Alpha  occ. eigenvalues --  -10.19652 -10.19535 -10.18964 -10.18560  -1.05766
 Alpha  occ. eigenvalues --   -1.00855  -0.85997  -0.75254  -0.69090  -0.64993
 Alpha  occ. eigenvalues --   -0.64355  -0.55576  -0.53644  -0.52308  -0.50645
 Alpha  occ. eigenvalues --   -0.46777  -0.44922  -0.44446  -0.41086  -0.39607
 Alpha  occ. eigenvalues --   -0.38181  -0.34992  -0.34108  -0.32355  -0.32067
 Alpha  occ. eigenvalues --   -0.31094  -0.29445  -0.26019  -0.24594
 Alpha virt. eigenvalues --    0.06267   0.09173   0.10677   0.12094   0.12714
 Alpha virt. eigenvalues --    0.13848   0.14492   0.15335   0.15755   0.16581
 Alpha virt. eigenvalues --    0.16751   0.17576   0.19385   0.20478   0.22050

 Mulliken charges:
               1
     1  O   -0.425805
     2  C   -0.107098
     3  C    0.029321
     4  C   -0.112648
     5  C   -0.258636
     6  C   -0.069980
     7  C    0.112016
     8  O   -0.296033
     9  C    0.039688
    10  H    0.288237
    11  H    0.102931
    12  H    0.106293
    13  H    0.077042
    14  H    0.068536
    15  H    0.099749
    16  H    0.101866
    17  H    0.078780
    18  H    0.087019
    19  H    0.078723
 Sum of Mulliken charges =   0.00000

 Dipole moment (field-independent basis, Debye):
    X=             -1.9498    Y=             -0.3405    Z=             -0.1038  Tot=              1.9820
 Quadrupole moment (field-independent basis, Debye-Ang):
   XX=            -56.6629   YY=            -53.8924   ZZ=            -51.3993
   XY=              2.5419   XZ=              0.1713   YZ=             -2.4162

  Exact polarizability:  81.677   0.866  71.001  -1.116  -2.019  67.725
 Approx polarizability: 109.562   1.801 111.013  -4.017  -0.961 106.486

                      1                      2                      3
                      A                      A                      A
 Frequencies --     58.4851               172.7042               246.3594
 Red. masses --      3.6085                 4.4151                 2.2729
 Frc consts  --      0.0073                 0.0776                 0.0813
 IR Inten    --      3.0767                 1.4280                 8.4282

                      4                      5                      6
                      A                      A                      A
 Frequencies --    304.7877               369.5665               424.8060
 Red. masses --      1.1144                 4.1862                 2.3215
 Frc consts  --      0.0610                 0.3369                 0.2468
 IR Inten    --    106.9805                 2.0402                 0.5200

                      7                      8                      9
                      A                      A                      A
 Frequencies --    492.7402               601.5294               693.8837
 Red. masses --      3.6250                 3.8658                 4.4876
 Frc consts  --      0.5186                 0.8242                 1.2730
 IR Inten    --     10.6019                 3.2769                 1.7506

                     10                     11                     12
                      A                      A                      A
 Frequencies --    722.9808               772.2714               832.4697
 Red. masses --      3.7996                 2.3914                 2.3170
 Frc consts  --      1.1701                 0.8403                 0.9460
 IR Inten    --      0.3156                 5.2882                 1.9325

                     13                     14                     15
                      A                      A                      A
 Frequencies --    848.2667               852.9935               878.9488
 Red. masses --      2.0203                 2.6063                 2.8183
 Frc consts  --      0.8565                 1.1173                 1.2828
 IR Inten    --     12.6156                14.6878                12.5901

                     16                     17                     18
                      A                      A                      A
 Frequencies --    927.7121               940.4752               974.2375
 Red. masses --      2.3929                 2.6721                 1.9525
 Frc consts  --      1.2134                 1.3925                 1.0919
 IR Inten    --      9.3095                31.2888                 1.5280

                     19                     20                     21
                      A                      A                      A
 Frequencies --    990.4743              1002.5504              1034.8495
 Red. masses --      2.4018                 1.6632                 1.9804
 Frc consts  --      1.3883                 0.9849                 1.2496
 IR Inten    --     16.0201                25.7062                 3.7464

                     22                     23                     24
                      A                      A                      A
 Frequencies --   1047.4312              1058.0910              1069.0057
 Red. masses --      1.7471                 2.7691                 2.2365
 Frc consts  --      1.1293                 1.8266                 1.5059
 IR Inten    --     17.7600                13.7403                38.1249

                     25                     26                     27
                      A                      A                      A
 Frequencies --   1094.5772              1129.9680              1160.3836
 Red. masses --      2.0612                 1.5030                 1.6034
 Frc consts  --      1.4550                 1.1307                 1.2720
 IR Inten    --     36.3138                 6.9259                 6.1139

                     28                     29                     30
                      A                      A                      A
 Frequencies --   1185.3015              1192.8311              1212.8578
 Red. masses --      1.5695                 1.4306                 1.3850
 Frc consts  --      1.2992                 1.1993                 1.2004
 IR Inten    --      2.9839                10.2443                 0.0502

                     31                     32                     33
                      A                      A                      A
 Frequencies --   1231.0468              1240.5088              1261.6383
 Red. masses --      1.6386                 1.3236                 1.5518
 Frc consts  --      1.4631                 1.2001                 1.4553
 IR Inten    --      5.9843                 0.4470                 5.1568

                     34                     35                     36
                      A                      A                      A
 Frequencies --   1289.6825              1298.8376              1334.9841
 Red. masses --      1.6041                 1.7423                 1.5752
 Frc consts  --      1.5719                 1.7318                 1.6540
 IR Inten    --      2.8296                 1.3902                 8.2445

                     37                     38                     39
                      A                      A                      A
 Frequencies --   1367.9614              1405.1938              1412.5366
 Red. masses --      1.5337                 1.1831                 1.3502
 Frc consts  --      1.6910                 1.3764                 1.5873
 IR Inten    --      1.0920                24.4193                27.4996

                     40                     41                     42
                      A                      A                      A
 Frequencies --   1498.2311              1500.8177              3031.5626
 Red. masses --      1.0882                 1.1082                 1.0578
 Frc consts  --      1.4391                 1.4707                 5.7279
 IR Inten    --      4.1282                 0.4690                31.4411

                     43                     44                     45
                      A                      A                      A
 Frequencies --   3050.8783              3054.6557              3080.1477
 Red. masses --      1.0634                 1.0786                 1.1055
 Frc consts  --      5.8319                 5.9296                 6.1795
 IR Inten    --     21.7297                26.1738                35.6284

                     46                     47                     48
                      A                      A                      A
 Frequencies --   3105.2341              3125.8815              3127.2822
 Red. masses --      1.1085                 1.0894                 1.0905
 Frc consts  --      6.2979                 6.2719                 6.2838
 IR Inten    --     27.9965                14.1766                24.2303

                     49                     50                     51
                      A                      A                      A
 Frequencies --   3133.3579              3144.0046              3826.5295
 Red. masses --      1.0881                 1.0964                 1.0663
 Frc consts  --      6.2942                 6.3853                 9.1993
 IR Inten    --     77.0228                23.1711                18.2788

 - Thermochemistry -
 -------------------
 Temperature   298.150 Kelvin.  Pressure   1.00000 Atm.
 Atom     1 has atomic number  8 and mass  15.99491

 Molecular mass:   126.06808 amu.
 Principal axes and moments of inertia in atomic units:
                           1         2         3
     Eigenvalues --   525.913401288.107801452.39829
           X            0.99987   0.01393   0.00804
           Y           -0.01357   0.99896  -0.04355
           Z           -0.00864   0.04343   0.99902
 This molecule is an asymmetric top.
 Rotational symmetry number  1.
 Warning -- assumption of classical behavior for rotation
           may cause significant error
 Rotational temperatures (Kelvin)      0.16469     0.06724     0.05964
 Rotational constants (GHZ):           3.43163     1.40108     1.24259
 Zero-point vibrational energy     423564.8 (Joules/Mol)
                                  101.23443 (Kcal/Mol)
 Warning -- explicit consideration of   8 degrees of freedom as
           vibrations may cause significant error
 Vibrational temperatures:     84.15   248.48   354.46   438.52   531.72
          (Kelvin)            611.20   708.94   865.47   998.34  1040.21
                             1111.12  1197.74  1220.47  1227.27  1264.61
                             1334.77  1353.13  1401.71  1425.07  1442.44
                             1488.92  1507.02  1522.36  1538.06  1574.85
                             1625.77  1669.53  1705.38  1716.22  1745.03
                             1771.20  1784.81  1815.21  1855.56  1868.74
                             1920.74  1968.19  2021.76  2032.32  2155.62
                             2159.34  4361.74  4389.53  4394.96  4431.64
                             4467.73  4497.44  4499.46  4508.20  4523.52
                             5505.52

 Zero-point correction=                           0.161327 (Hartree/Particle)
 Thermal correction to Energy=                    0.168622
 Thermal correction to Enthalpy=                  0.169567
 Thermal correction to Gibbs Free Energy=         0.129265
 Sum of electronic and zero-point Energies=           -422.973526
 Sum of electronic and thermal Energies=              -422.966231
 Sum of electronic and thermal Enthalpies=            -422.965287
 Sum of electronic and thermal Free Energies=         -423.005588

                     E (Thermal)             CV                S
                      KCal/Mol        Cal/Mol-Kelvin    Cal/Mol-Kelvin
 Total                  105.812             29.293             84.822
 Electronic               0.000              0.000              0.000
 Translational            0.889              2.981             40.409
 Rotational               0.889              2.981             28.377
 Vibrational            104.035             23.331             16.036
 Vibration     1          0.596              1.974              4.508
 Vibration     2          0.626              1.876              2.406
 Vibration     3          0.661              1.769              1.756
 Vibration     4          0.696              1.665              1.390
 Vibration     5          0.742              1.535              1.082
 Vibration     6          0.787              1.416              0.876
 Vibration     7          0.848              1.266              0.677
 Vibration     8          0.960              1.029              0.447

 Optimization completed.
    -- Stationary point found.
 Normal termination of Gaussian 09 at Tue Jan 28 14:52:28 2020.
