 Gaussian 09, Revision D.01,
 Gaussian 09:  ES64L-G09RevD.01 24-Apr-2013

 -----------------------------
 # b3lyp 6-31G(2df,p) opt Freq
 -----------------------------

 -----
 titel
 -----
 Symbolic Z-matrix:
 Charge =  0 Multiplicity = 1

 SCF Done:  E(RB3LYP) =  -423.156750331     A.U. after   13 cycles
 Optimization completed.
    -- Stationary point found.
 Normal termination of Gaussian 09 at Mon Jan 27 18:28:56 2020.

 ----------------------------------------------------------------------
 #N Geom=AllCheck Guess=TCheck SCRF=Check GenChk RB3LYP/6-31G(2df,p) Fr
 eq
 ----------------------------------------------------------------------

 Structure from the checkpoint file:  "/scratch/puck/g09_b9c5e1c7-46b1-42df-a1e6-9746d78e9003/Gau-18462.chk"
 -----
 titel
 -----
 Charge =  0 Multiplicity = 1

                         Standard orientation:
 ---------------------------------------------------------------------
 Center     Atomic      Atomic             Coordinates (Angstroms)
 Number     Number       Type             X           Y           Z
 ---------------------------------------------------------------------
      1          6           0        0.858844    2.171969    0.119194
      2          6           0        0.264878    0.796922    0.096822
      3          6           0       -0.050311   -0.061797   -1.089392
      4          8           0       -1.404891   -0.462209   -1.149464
      5          6           0       -2.011803   -0.026038    0.074600
      6          6           0       -0.832535    0.189340    1.023584
      7          6           0        0.002583   -1.131202    1.141176
      8          6           0        0.848901   -0.633031   -0.022231
      9          8           0        2.115065   -1.064030   -0.366938
     10          1           0        1.683843    2.247970   -0.596769
     11          1           0        0.119648    2.936829   -0.147591
     12          1           0        1.255250    2.426908    1.109317
     13          1           0        0.393861    0.137830   -2.057880
     14          1           0       -2.576441    0.905194   -0.087847
     15          1           0       -2.706223   -0.803327    0.410544
     16          1           0       -1.071098    0.707317    1.952346
     17          1           0        0.575734   -1.156943    2.073785
     18          1           0       -0.533036   -2.079002    1.016908
     19          1           0        2.693727   -0.949841    0.395888
 ---------------------------------------------------------------------

 SCF Done:  E(RB3LYP) =  -423.156750331     A.U. after    1 cycles

 The electronic state is 1-A.
 Alpha  occ. eigenvalues --  -19.15041 -19.13295 -10.23478 -10.22461 -10.22358
 Alpha  occ. eigenvalues --  -10.19599 -10.18950 -10.18537 -10.18483  -1.04343
 Alpha  occ. eigenvalues --   -1.02725  -0.87727  -0.75748  -0.72778  -0.67083
 Alpha  occ. eigenvalues --   -0.61583  -0.57188  -0.54710  -0.50621  -0.47678
 Alpha  occ. eigenvalues --   -0.46877  -0.43407  -0.41896  -0.41052  -0.40415
 Alpha  occ. eigenvalues --   -0.39539  -0.39195  -0.36819  -0.33456  -0.32581
 Alpha  occ. eigenvalues --   -0.30918  -0.29437  -0.23330  -0.22327
 Alpha virt. eigenvalues --    0.07104   0.09655   0.11251   0.11735   0.12924
 Alpha virt. eigenvalues --    0.13828   0.14500   0.15231   0.16060   0.16901
 Alpha virt. eigenvalues --    0.17413   0.18941   0.19956   0.20234   0.21872

 Mulliken charges:
               1
     1  C   -0.525552
     2  C    0.208489
     3  C    0.028207
     4  O   -0.271700
     5  C   -0.078965
     6  C   -0.124622
     7  C   -0.298810
     8  C    0.303715
     9  O   -0.460754
    10  H    0.128548
    11  H    0.124928
    12  H    0.114709
    13  H    0.105641
    14  H    0.089978
    15  H    0.106177
    16  H    0.074117
    17  H    0.090467
    18  H    0.102584
    19  H    0.282844
 Sum of Mulliken charges =   0.00000

 Dipole moment (field-independent basis, Debye):
    X=              0.7240    Y=              1.3707    Z=              2.4578  Tot=              2.9058
 Quadrupole moment (field-independent basis, Debye-Ang):
   XX=            -51.1005   YY=            -54.0836   ZZ=            -53.1967
   XY=              0.0876   XZ=              0.3508   YZ=             -2.6922

  Exact polarizability:  80.375  -0.302  74.678  -0.902  -1.991  68.862
 Approx polarizability: 113.382  -3.023 107.560  -0.209   1.360 106.391

                      1                      2                      3
                      A                      A                      A
 Frequencies --    159.4688               179.7613               206.9651
 Red. masses --      2.3941                 1.1131                 2.5236
 Frc consts  --      0.0359                 0.0212                 0.0637
 IR Inten    --      0.7626                 1.4262                 1.5188

                      4                      5                      6
                      A                      A                      A
 Frequencies --    242.8806               294.8718               321.9698
 Red. masses --      2.9279                 1.9472                 2.8948
 Frc consts  --      0.1018                 0.0998                 0.1768
 IR Inten    --      3.1813                24.9087                 5.3397

                      7                      8                      9
                      A                      A                      A
 Frequencies --    355.8376               429.6784               542.4107
 Red. masses --      1.6825                 2.2019                 3.5424
 Frc consts  --      0.1255                 0.2395                 0.6141
 IR Inten    --     58.5721                22.9634                 1.9695

                     10                     11                     12
                      A                      A                      A
 Frequencies --    554.1695               643.5013               723.7176
 Red. masses --      4.2449                 3.5924                 3.4406
 Frc consts  --      0.7681                 0.8765                 1.0617
 IR Inten    --      3.1358                 1.1523                 7.9752

                     13                     14                     15
                      A                      A                      A
 Frequencies --    726.6860               784.4038               833.1387
 Red. masses --      4.4286                 4.5946                 3.0815
 Frc consts  --      1.3779                 1.6656                 1.2602
 IR Inten    --      4.2155                 5.8548                 0.3236

                     16                     17                     18
                      A                      A                      A
 Frequencies --    868.0869               940.2080               945.0206
 Red. masses --      2.2635                 3.0406                 2.5177
 Frc consts  --      1.0050                 1.5836                 1.3248
 IR Inten    --     11.9316                 3.6460                19.7852

                     19                     20                     21
                      A                      A                      A
 Frequencies --    968.5637              1006.0952              1017.8343
 Red. masses --      1.4431                 1.7406                 1.6710
 Frc consts  --      0.7976                 1.0381                 1.0200
 IR Inten    --      5.9723                 6.9063                 7.3363

                     22                     23                     24
                      A                      A                      A
 Frequencies --   1066.7279              1072.9362              1107.0821
 Red. masses --      3.0085                 1.6185                 1.7838
 Frc consts  --      2.0170                 1.0977                 1.2881
 IR Inten    --    109.2665                 4.8681                 3.9095

                     25                     26                     27
                      A                      A                      A
 Frequencies --   1127.8676              1150.1100              1162.7969
 Red. masses --      2.3168                 1.5669                 1.5167
 Frc consts  --      1.7364                 1.2211                 1.2082
 IR Inten    --     44.8381                 3.0370                 6.1885

                     28                     29                     30
                      A                      A                      A
 Frequencies --   1204.1357              1226.7180              1238.0396
 Red. masses --      2.1339                 1.2211                 2.1039
 Frc consts  --      1.8230                 1.0826                 1.9000
 IR Inten    --     10.4405                 0.3069                25.7597

                     31                     32                     33
                      A                      A                      A
 Frequencies --   1263.5727              1284.8287              1334.5157
 Red. masses --      1.5473                 1.5914                 2.1847
 Frc consts  --      1.4555                 1.5478                 2.2924
 IR Inten    --     37.1855                20.2130               103.9562

                     34                     35                     36
                      A                      A                      A
 Frequencies --   1357.2626              1379.3202              1413.9755
 Red. masses --      2.0278                 1.5081                 1.2847
 Frc consts  --      2.2009                 1.6904                 1.5133
 IR Inten    --      1.1223                 2.1669                 0.2168

                     37                     38                     39
                      A                      A                      A
 Frequencies --   1465.0743              1487.2682              1496.6363
 Red. masses --      1.8526                 1.0474                 1.0722
 Frc consts  --      2.3429                 1.3651                 1.4150
 IR Inten    --      2.4723                 5.2391                 2.0968

                     40                     41                     42
                      A                      A                      A
 Frequencies --   1511.8240              1518.0505              2983.3760
 Red. masses --      1.5866                 1.1059                 1.0689
 Frc consts  --      2.1366                 1.5016                 5.6054
 IR Inten    --     10.4132                 0.7065                76.5555

                     43                     44                     45
                      A                      A                      A
 Frequencies --   3018.0338              3032.5605              3069.2675
 Red. masses --      1.0360                 1.0567                 1.0952
 Frc consts  --      5.5600                 5.7257                 6.0786
 IR Inten    --     48.5124                44.0995                31.1833

                     46                     47                     48
                      A                      A                      A
 Frequencies --   3073.6123              3084.3058              3094.2783
 Red. masses --      1.1010                 1.1077                 1.0993
 Frc consts  --      6.1280                 6.2085                 6.2013
 IR Inten    --     24.8515                33.5203                15.5767

                     49                     50                     51
                      A                      A                      A
 Frequencies --   3116.7849              3189.5179              3782.7664
 Red. masses --      1.0895                 1.0915                 1.0658
 Frc consts  --      6.2356                 6.5419                 8.9859
 IR Inten    --     30.7151                 9.0069                13.9295

 - Thermochemistry -
 -------------------
 Temperature   298.150 Kelvin.  Pressure   1.00000 Atm.
 Atom     1 has atomic number  6 and mass  12.00000

 Molecular mass:   126.06808 amu.
 Principal axes and moments of inertia in atomic units:
                           1         2         3
     Eigenvalues --   770.386591027.044031217.58603
           X            0.99829   0.05645  -0.01544
           Y           -0.05728   0.99659  -0.05943
           Z            0.01203   0.06021   0.99811
 This molecule is an asymmetric top.
 Rotational symmetry number  1.
 Warning -- assumption of classical behavior for rotation
           may cause significant error
 Rotational temperatures (Kelvin)      0.11243     0.08433     0.07114
 Rotational constants (GHZ):           2.34264     1.75722     1.48223
 Zero-point vibrational energy     419043.0 (Joules/Mol)
                                  100.15368 (Kcal/Mol)
 Warning -- explicit consideration of  10 degrees of freedom as
           vibrations may cause significant error
 Vibrational temperatures:    229.44   258.64   297.78   349.45   424.25
          (Kelvin)            463.24   511.97   618.21   780.41   797.33
                              925.85  1041.27  1045.54  1128.58  1198.70
                             1248.98  1352.75  1359.67  1393.55  1447.54
                             1464.43  1534.78  1543.71  1592.84  1622.75
                             1654.75  1673.00  1732.48  1764.97  1781.26
                             1818.00  1848.58  1920.07  1952.80  1984.53
                             2034.39  2107.91  2139.84  2153.32  2175.17
                             2184.13  4292.41  4342.27  4363.17  4415.99
                             4422.24  4437.62  4451.97  4484.35  4589.00
                             5442.55

 Zero-point correction=                           0.159605 (Hartree/Particle)
 Thermal correction to Energy=                    0.167575
 Thermal correction to Enthalpy=                  0.168519
 Thermal correction to Gibbs Free Energy=         0.127642
 Sum of electronic and zero-point Energies=           -422.997145
 Sum of electronic and thermal Energies=              -422.989175
 Sum of electronic and thermal Enthalpies=            -422.988231
 Sum of electronic and thermal Free Energies=         -423.029109

                     E (Thermal)             CV                S
                      KCal/Mol        Cal/Mol-Kelvin    Cal/Mol-Kelvin
 Total                  105.155             31.610             86.034
 Electronic               0.000              0.000              0.000
 Translational            0.889              2.981             40.409
 Rotational               0.889              2.981             28.357
 Vibrational            103.377             25.649             17.269
 Vibration     1          0.621              1.892              2.556
 Vibration     2          0.629              1.867              2.331
 Vibration     3          0.641              1.830              2.070
 Vibration     4          0.659              1.775              1.782
 Vibration     5          0.689              1.683              1.446
 Vibration     6          0.707              1.631              1.300
 Vibration     7          0.731              1.563              1.140
 Vibration     8          0.791              1.406              0.860
 Vibration     9          0.898              1.156              0.560
 Vibration    10          0.910              1.131              0.536

 Optimization completed.
    -- Stationary point found.
 Normal termination of Gaussian 09 at Mon Jan 27 20:17:15 2020.
