 Gaussian 09, Revision D.01,
 Gaussian 09:  ES64L-G09RevD.01 24-Apr-2013

 -----------------------------
 # b3lyp 6-31G(2df,p) opt Freq
 -----------------------------

 -----
 titel
 -----
 Symbolic Z-matrix:
 Charge =  0 Multiplicity = 1

 SCF Done:  E(RB3LYP) =  -423.162210313     A.U. after   13 cycles
 Optimization completed.
    -- Stationary point found.
 Normal termination of Gaussian 09 at Mon Jan 27 16:02:08 2020.

 ----------------------------------------------------------------------
 #N Geom=AllCheck Guess=TCheck SCRF=Check GenChk RB3LYP/6-31G(2df,p) Fr
 eq
 ----------------------------------------------------------------------

 Structure from the checkpoint file:  "/scratch/puck/g09_9db027ae-97f5-495a-86c6-f2379e288f90/Gau-175814.chk"
 -----
 titel
 -----
 Charge =  0 Multiplicity = 1

                         Standard orientation:
 ---------------------------------------------------------------------
 Center     Atomic      Atomic             Coordinates (Angstroms)
 Number     Number       Type             X           Y           Z
 ---------------------------------------------------------------------
      1          6           0       -2.369506    0.229819    0.334299
      2          6           0       -0.954650   -0.116991   -0.098485
      3          8           0       -1.029773   -1.318693   -0.835315
      4          6           0       -0.205762    1.047152   -0.752575
      5          6           0        1.282491    0.783115   -0.649497
      6          8           0        1.720877   -0.558237   -0.487832
      7          6           0        1.253711   -0.988607    0.807210
      8          6           0        0.085131   -0.057028    1.098225
      9          6           0        0.574917    1.305261    0.547555
     10          1           0       -2.794218   -0.596827    0.912045
     11          1           0       -2.383856    1.133979    0.948525
     12          1           0       -3.003416    0.391177   -0.542885
     13          1           0       -0.161916   -1.450683   -1.237644
     14          1           0       -0.621751    1.758717   -1.458718
     15          1           0        1.965710    1.391210   -1.229413
     16          1           0        0.956382   -2.037907    0.727201
     17          1           0        2.056543   -0.893751    1.551955
     18          1           0       -0.321017   -0.116361    2.107623
     19          1           0        0.780706    2.219567    1.086099
 ---------------------------------------------------------------------

 SCF Done:  E(RB3LYP) =  -423.162210313     A.U. after    1 cycles

 The electronic state is 1-A.
 Alpha  occ. eigenvalues --  -19.14720 -19.12684 -10.23992 -10.23924 -10.22870
 Alpha  occ. eigenvalues --  -10.19725 -10.19295 -10.19093 -10.17234  -1.05011
 Alpha  occ. eigenvalues --   -1.00990  -0.88411  -0.76369  -0.73073  -0.62987
 Alpha  occ. eigenvalues --   -0.62641  -0.58100  -0.54562  -0.53023  -0.48762
 Alpha  occ. eigenvalues --   -0.47180  -0.45017  -0.42805  -0.40818  -0.39678
 Alpha  occ. eigenvalues --   -0.38562  -0.37533  -0.35293  -0.33756  -0.32773
 Alpha  occ. eigenvalues --   -0.31898  -0.27441  -0.25718  -0.23654
 Alpha virt. eigenvalues --    0.08790   0.10064   0.10970   0.11764   0.12866
 Alpha virt. eigenvalues --    0.13630   0.14497   0.15393   0.16173   0.17243
 Alpha virt. eigenvalues --    0.17410   0.18181   0.19674   0.21227   0.22055

 Mulliken charges:
               1
     1  C   -0.430256
     2  C    0.438314
     3  O   -0.488026
     4  C   -0.170718
     5  C    0.084435
     6  O   -0.289054
     7  C   -0.104228
     8  C   -0.150726
     9  C   -0.112474
    10  H    0.122442
    11  H    0.115233
    12  H    0.121484
    13  H    0.290888
    14  H    0.082096
    15  H    0.107699
    16  H    0.118534
    17  H    0.098914
    18  H    0.072605
    19  H    0.092837
 Sum of Mulliken charges =   0.00000

 Dipole moment (field-independent basis, Debye):
    X=              0.3693    Y=              1.6444    Z=              1.1326  Tot=              2.0306
 Quadrupole moment (field-independent basis, Debye-Ang):
   XX=            -56.0013   YY=            -52.2320   ZZ=            -51.2963
   XY=             -0.7470   XZ=             -0.2747   YZ=             -2.1693

  Exact polarizability:  78.325  -0.242  71.739   1.275  -3.119  69.128
 Approx polarizability: 108.440  -0.082 107.685   1.570  -0.505 109.011

                      1                      2                      3
                      A                      A                      A
 Frequencies --    176.1971               238.6316               239.4153
 Red. masses --      4.5236                 1.2155                 2.2939
 Frc consts  --      0.0827                 0.0408                 0.0775
 IR Inten    --      3.4997                 0.2046                 0.3435

                      4                      5                      6
                      A                      A                      A
 Frequencies --    288.2541               341.2730               397.3947
 Red. masses --      2.4291                 3.2994                 3.2379
 Frc consts  --      0.1189                 0.2264                 0.3013
 IR Inten    --      8.8321                 1.1023                 4.2534

                      7                      8                      9
                      A                      A                      A
 Frequencies --    484.6574               554.4822               586.0041
 Red. masses --      3.0378                 1.1667                 3.0468
 Frc consts  --      0.4204                 0.2113                 0.6164
 IR Inten    --      5.9027                56.1871                 7.5909

                     10                     11                     12
                      A                      A                      A
 Frequencies --    623.2959               693.5082               742.9053
 Red. masses --      4.1775                 3.9804                 4.5887
 Frc consts  --      0.9562                 1.1279                 1.4921
 IR Inten    --     13.5673                 0.5948                 5.8029

                     13                     14                     15
                      A                      A                      A
 Frequencies --    775.6852               807.6094               848.1140
 Red. masses --      2.3238                 2.1158                 2.1679
 Frc consts  --      0.8238                 0.8131                 0.9188
 IR Inten    --      4.3066                12.7310                 9.0921

                     16                     17                     18
                      A                      A                      A
 Frequencies --    895.6458               922.2540               929.3408
 Red. masses --      1.7941                 2.5772                 2.8713
 Frc consts  --      0.8480                 1.2915                 1.4611
 IR Inten    --      5.0225                13.3395                19.0062

                     19                     20                     21
                      A                      A                      A
 Frequencies --    960.4936               980.0900              1000.2131
 Red. masses --      1.6985                 1.9669                 1.5434
 Frc consts  --      0.9232                 1.1132                 0.9097
 IR Inten    --     20.6637                17.0086                 0.9923

                     22                     23                     24
                      A                      A                      A
 Frequencies --   1012.4976              1040.0920              1061.2406
 Red. masses --      1.7264                 2.7542                 2.1426
 Frc consts  --      1.0428                 1.7554                 1.4218
 IR Inten    --     17.9907                29.7000                10.0469

                     25                     26                     27
                      A                      A                      A
 Frequencies --   1062.2310              1098.1457              1129.8648
 Red. masses --      1.4832                 2.2154                 2.0777
 Frc consts  --      0.9860                 1.5741                 1.5627
 IR Inten    --      0.4920                47.6301                37.0656

                     28                     29                     30
                      A                      A                      A
 Frequencies --   1171.2731              1186.2109              1216.2822
 Red. masses --      2.3794                 1.4013                 2.7818
 Frc consts  --      1.9233                 1.1617                 2.4247
 IR Inten    --      5.7881                 1.7029                66.8756

                     31                     32                     33
                      A                      A                      A
 Frequencies --   1235.0584              1247.9130              1267.9900
 Red. masses --      1.3932                 1.5844                 1.6985
 Frc consts  --      1.2521                 1.4537                 1.6090
 IR Inten    --      3.3909                 5.9256                23.7017

                     34                     35                     36
                      A                      A                      A
 Frequencies --   1311.8054              1356.4539              1394.1982
 Red. masses --      1.5532                 1.7220                 1.4681
 Frc consts  --      1.5748                 1.8668                 1.6814
 IR Inten    --      0.4867                 4.6594                50.9712

                     37                     38                     39
                      A                      A                      A
 Frequencies --   1403.1394              1438.4331              1481.8335
 Red. masses --      1.5071                 1.8379                 1.0522
 Frc consts  --      1.7482                 2.2405                 1.3612
 IR Inten    --      3.1206                64.9866                 2.7646

                     40                     41                     42
                      A                      A                      A
 Frequencies --   1497.7980              1511.5034              3005.8907
 Red. masses --      1.0608                 1.0981                 1.0680
 Frc consts  --      1.4021                 1.4782                 5.6853
 IR Inten    --      0.8719                 1.8170                69.5364

                     43                     44                     45
                      A                      A                      A
 Frequencies --   3040.8426              3093.3397              3111.7939
 Red. masses --      1.0346                 1.0964                 1.1017
 Frc consts  --      5.6366                 6.1815                 6.2857
 IR Inten    --     18.5719                18.2705                14.3841

                     46                     47                     48
                      A                      A                      A
 Frequencies --   3120.2022              3123.5701              3161.0125
 Red. masses --      1.0930                 1.0983                 1.0914
 Frc consts  --      6.2693                 6.3136                 6.4250
 IR Inten    --     23.2967                22.4539                18.2586

                     49                     50                     51
                      A                      A                      A
 Frequencies --   3195.1605              3213.2522              3772.3862
 Red. masses --      1.0906                 1.0978                 1.0655
 Frc consts  --      6.5597                 6.6786                 8.9341
 IR Inten    --     12.4428                12.6043                33.2396

 - Thermochemistry -
 -------------------
 Temperature   298.150 Kelvin.  Pressure   1.00000 Atm.
 Atom     1 has atomic number  6 and mass  12.00000

 Molecular mass:   126.06808 amu.
 Principal axes and moments of inertia in atomic units:
                           1         2         3
     Eigenvalues --   625.669321029.978981157.35538
           X            0.99977  -0.02131  -0.00213
           Y            0.02108   0.99670  -0.07837
           Z            0.00379   0.07831   0.99692
 This molecule is an asymmetric top.
 Rotational symmetry number  1.
 Warning -- assumption of classical behavior for rotation
           may cause significant error
 Rotational temperatures (Kelvin)      0.13843     0.08409     0.07484
 Rotational constants (GHZ):           2.88450     1.75221     1.55937
 Zero-point vibrational energy     421365.9 (Joules/Mol)
                                  100.70887 (Kcal/Mol)
 Warning -- explicit consideration of   9 degrees of freedom as
           vibrations may cause significant error
 Vibrational temperatures:    253.51   343.34   344.46   414.73   491.02
          (Kelvin)            571.76   697.31   797.78   843.13   896.78
                              997.80  1068.87  1116.04  1161.97  1220.25
                             1288.63  1326.92  1337.11  1381.93  1410.13
                             1439.08  1456.76  1496.46  1526.89  1528.31
                             1579.98  1625.62  1685.20  1706.69  1749.96
                             1776.97  1795.47  1824.35  1887.39  1951.63
                             2005.94  2018.80  2069.58  2132.03  2154.99
                             2174.71  4324.80  4375.09  4450.62  4477.17
                             4489.27  4494.12  4547.99  4597.12  4623.15
                             5427.62

 Zero-point correction=                           0.160490 (Hartree/Particle)
 Thermal correction to Energy=                    0.167814
 Thermal correction to Enthalpy=                  0.168758
 Thermal correction to Gibbs Free Energy=         0.129346
 Sum of electronic and zero-point Energies=           -423.001721
 Sum of electronic and thermal Energies=              -422.994396
 Sum of electronic and thermal Enthalpies=            -422.993452
 Sum of electronic and thermal Free Energies=         -423.032864

                     E (Thermal)             CV                S
                      KCal/Mol        Cal/Mol-Kelvin    Cal/Mol-Kelvin
 Total                  105.305             30.570             82.950
 Electronic               0.000              0.000              0.000
 Translational            0.889              2.981             40.409
 Rotational               0.889              2.981             28.102
 Vibrational            103.528             24.608             14.439
 Vibration     1          0.628              1.872              2.368
 Vibration     2          0.657              1.781              1.813
 Vibration     3          0.657              1.780              1.807
 Vibration     4          0.685              1.696              1.484
 Vibration     5          0.721              1.593              1.206
 Vibration     6          0.764              1.476              0.972
 Vibration     7          0.841              1.284              0.698
 Vibration     8          0.910              1.130              0.535
 Vibration     9          0.943              1.062              0.474

 Optimization completed.
    -- Stationary point found.
 Normal termination of Gaussian 09 at Mon Jan 27 16:49:22 2020.
