 Gaussian 09, Revision D.01,
 Gaussian 09:  ES64L-G09RevD.01 24-Apr-2013

 -----------------------------
 # b3lyp 6-31G(2df,p) opt Freq
 -----------------------------

 -----
 titel
 -----
 Symbolic Z-matrix:
 Charge =  0 Multiplicity = 1

 SCF Done:  E(RB3LYP) =  -423.212399994     A.U. after   13 cycles
 Optimization completed.
    -- Stationary point found.
 Normal termination of Gaussian 09 at Mon Jan 27 12:21:06 2020.

 ----------------------------------------------------------------------
 #N Geom=AllCheck Guess=TCheck SCRF=Check GenChk RB3LYP/6-31G(2df,p) Fr
 eq
 ----------------------------------------------------------------------

 Structure from the checkpoint file:  "/scratch/puck/g09_83d2923f-a015-4c60-a2d0-1337ae76dbbc/Gau-152638.chk"
 -----
 titel
 -----
 Charge =  0 Multiplicity = 1

                         Standard orientation:
 ---------------------------------------------------------------------
 Center     Atomic      Atomic             Coordinates (Angstroms)
 Number     Number       Type             X           Y           Z
 ---------------------------------------------------------------------
      1          6           0        1.792672   -0.596343   -0.201863
      2          8           0        1.694547    0.820635   -0.040954
      3          6           0        0.380944    1.140145    0.404502
      4          6           0       -0.641410    1.267609   -0.772244
      5          6           0       -1.405911   -0.060836   -0.659665
      6          6           0       -1.643705   -0.166227    0.853764
      7          6           0       -0.143377   -0.108992    1.165370
      8          6           0        0.433102   -1.166271    0.195252
      9          8           0       -0.490142   -1.141687   -0.913921
     10          1           0        2.034587   -0.848340   -1.240505
     11          1           0        2.590153   -0.979711    0.449330
     12          1           0        0.455651    2.049544    1.003930
     13          1           0       -1.315867    2.119421   -0.634532
     14          1           0       -0.122147    1.383270   -1.725564
     15          1           0       -2.262636   -0.184672   -1.321903
     16          1           0       -2.210331    0.672005    1.267935
     17          1           0       -2.114944   -1.107954    1.145751
     18          1           0        0.181843   -0.201961    2.200795
     19          1           0        0.494571   -2.187696    0.583067
 ---------------------------------------------------------------------

 SCF Done:  E(RB3LYP) =  -423.212399994     A.U. after    1 cycles

 The electronic state is 1-A.
 Alpha  occ. eigenvalues --  -19.13436 -19.13106 -10.23142 -10.23108 -10.23078
 Alpha  occ. eigenvalues --  -10.21999 -10.19274 -10.18635 -10.17589  -1.04761
 Alpha  occ. eigenvalues --   -1.01471  -0.82415  -0.76624  -0.70563  -0.69330
 Alpha  occ. eigenvalues --   -0.59326  -0.57122  -0.55223  -0.53087  -0.48400
 Alpha  occ. eigenvalues --   -0.47592  -0.44845  -0.43151  -0.41289  -0.38788
 Alpha  occ. eigenvalues --   -0.38399  -0.36349  -0.35409  -0.34711  -0.34124
 Alpha  occ. eigenvalues --   -0.31575  -0.29843  -0.24659  -0.24300
 Alpha virt. eigenvalues --    0.08304   0.10432   0.11246   0.13259   0.13670
 Alpha virt. eigenvalues --    0.15190   0.15721   0.15771   0.16530   0.16627
 Alpha virt. eigenvalues --    0.17375   0.18431   0.19788   0.20403   0.21342

 Mulliken charges:
               1
     1  C   -0.091788
     2  O   -0.274113
     3  C    0.118880
     4  C   -0.244564
     5  C    0.096082
     6  C   -0.237737
     7  C   -0.085697
     8  C    0.089189
     9  O   -0.294657
    10  H    0.110216
    11  H    0.094735
    12  H    0.078859
    13  H    0.094408
    14  H    0.114294
    15  H    0.075737
    16  H    0.100471
    17  H    0.106097
    18  H    0.073518
    19  H    0.076070
 Sum of Mulliken charges =   0.00000

 Dipole moment (field-independent basis, Debye):
    X=             -1.1974    Y=             -0.0049    Z=              1.3908  Tot=              1.8352
 Quadrupole moment (field-independent basis, Debye-Ang):
   XX=            -53.4096   YY=            -53.3290   ZZ=            -52.7764
   XY=             -4.3716   XZ=              0.0151   YZ=             -1.6200

  Exact polarizability:  78.717  -5.280  71.998   0.156  -1.524  67.580
 Approx polarizability: 109.862  -5.514 107.510   0.784   0.759 102.722

                      1                      2                      3
                      A                      A                      A
 Frequencies --    138.5230               326.4565               374.8703
 Red. masses --      3.1858                 2.5451                 3.1071
 Frc consts  --      0.0360                 0.1598                 0.2573
 IR Inten    --      4.6662                 0.3782                 3.3483

                      4                      5                      6
                      A                      A                      A
 Frequencies --    445.5791               446.4161               577.9294
 Red. masses --      2.7371                 1.8311                 4.9245
 Frc consts  --      0.3202                 0.2150                 0.9691
 IR Inten    --      2.4819                 0.1735                 2.0495

                      7                      8                      9
                      A                      A                      A
 Frequencies --    584.7316               743.2345               796.2087
 Red. masses --      4.8219                 4.4869                 5.3785
 Frc consts  --      0.9714                 1.4603                 2.0089
 IR Inten    --      4.9366                 6.3836                 2.1463

                     10                     11                     12
                      A                      A                      A
 Frequencies --    801.8895               824.7366               850.3023
 Red. masses --      2.4725                 2.6253                 3.4998
 Frc consts  --      0.9367                 1.0521                 1.4909
 IR Inten    --      7.2117                13.1904                 7.8494

                     13                     14                     15
                      A                      A                      A
 Frequencies --    889.2631               910.8235               928.7724
 Red. masses --      3.1905                 2.4302                 2.0622
 Frc consts  --      1.4865                 1.1878                 1.0481
 IR Inten    --      0.7716                10.6212                12.8156

                     16                     17                     18
                      A                      A                      A
 Frequencies --    944.0715               972.4300               979.4642
 Red. masses --      2.4726                 2.5561                 1.6024
 Frc consts  --      1.2984                 1.4241                 0.9057
 IR Inten    --     17.1038                25.4967                 1.5143

                     19                     20                     21
                      A                      A                      A
 Frequencies --    982.1074              1000.7655              1033.4132
 Red. masses --      2.4545                 1.9971                 1.7553
 Frc consts  --      1.3949                 1.1785                 1.1045
 IR Inten    --      5.8122                 5.2925                 3.9892

                     22                     23                     24
                      A                      A                      A
 Frequencies --   1047.2248              1080.3750              1106.6196
 Red. masses --      2.1714                 1.8936                 2.4918
 Frc consts  --      1.4030                 1.3023                 1.7979
 IR Inten    --     25.5109                 4.8017                96.2308

                     25                     26                     27
                      A                      A                      A
 Frequencies --   1139.6371              1181.7263              1189.1522
 Red. masses --      1.6034                 1.3660                 1.8691
 Frc consts  --      1.2270                 1.1239                 1.5573
 IR Inten    --     35.0718                 7.4185                17.4703

                     28                     29                     30
                      A                      A                      A
 Frequencies --   1215.7698              1233.2427              1274.3650
 Red. masses --      1.5044                 1.4341                 1.4196
 Frc consts  --      1.3101                 1.2850                 1.3584
 IR Inten    --      2.2666                 4.3302                 1.3027

                     31                     32                     33
                      A                      A                      A
 Frequencies --   1284.8689              1286.8393              1315.6588
 Red. masses --      1.8400                 1.4139                 1.5480
 Frc consts  --      1.7897                 1.3795                 1.5787
 IR Inten    --      9.9925                 0.6095                 2.3421

                     34                     35                     36
                      A                      A                      A
 Frequencies --   1323.4590              1332.7717              1356.1577
 Red. masses --      1.2201                 1.6418                 1.3551
 Frc consts  --      1.2591                 1.7182                 1.4683
 IR Inten    --      0.6541                 6.2332                 6.9489

                     37                     38                     39
                      A                      A                      A
 Frequencies --   1366.7444              1392.2998              1470.6692
 Red. masses --      1.3869                 1.4189                 1.0986
 Frc consts  --      1.5264                 1.6206                 1.4000
 IR Inten    --      2.9204                 4.8375                 4.5227

                     40                     41                     42
                      A                      A                      A
 Frequencies --   1495.3559              1509.4718              3009.7018
 Red. masses --      1.1147                 1.0902                 1.0628
 Frc consts  --      1.4686                 1.4636                 5.6721
 IR Inten    --      2.6639                 1.2942                56.8539

                     43                     44                     45
                      A                      A                      A
 Frequencies --   3049.8267              3061.5861              3064.2108
 Red. masses --      1.0653                 1.0885                 1.0866
 Frc consts  --      5.8380                 6.0115                 6.0112
 IR Inten    --     20.4577                48.0208                25.3273

                     46                     47                     48
                      A                      A                      A
 Frequencies --   3065.5101              3090.7494              3117.6342
 Red. masses --      1.0723                 1.0879                 1.1059
 Frc consts  --      5.9370                 6.1228                 6.3333
 IR Inten    --     34.2453                31.0783                17.6605

                     49                     50                     51
                      A                      A                      A
 Frequencies --   3120.7693              3123.1530              3129.3139
 Red. masses --      1.0973                 1.0938                 1.0910
 Frc consts  --      6.2964                 6.2859                 6.2945
 IR Inten    --     33.1651                43.0620                11.7602

 - Thermochemistry -
 -------------------
 Temperature   298.150 Kelvin.  Pressure   1.00000 Atm.
 Atom     1 has atomic number  6 and mass  12.00000

 Molecular mass:   126.06808 amu.
 Principal axes and moments of inertia in atomic units:
                           1         2         3
     Eigenvalues --   628.01884 897.997301029.18946
           X            0.99660  -0.08198  -0.00847
           Y            0.08108   0.99371  -0.07719
           Z            0.01474   0.07624   0.99698
 This molecule is an asymmetric top.
 Rotational symmetry number  1.
 Warning -- assumption of classical behavior for rotation
           may cause significant error
 Rotational temperatures (Kelvin)      0.13792     0.09645     0.08416
 Rotational constants (GHZ):           2.87371     2.00974     1.75356
 Zero-point vibrational energy     430577.0 (Joules/Mol)
                                  102.91037 (Kcal/Mol)
 Warning -- explicit consideration of   7 degrees of freedom as
           vibrations may cause significant error
 Vibrational temperatures:    199.30   469.70   539.35   641.09   642.29
          (Kelvin)            831.51   841.30  1069.35  1145.57  1153.74
                             1186.61  1223.39  1279.45  1310.47  1336.29
                             1358.31  1399.11  1409.23  1413.03  1439.88
                             1486.85  1506.72  1554.42  1592.18  1639.68
                             1700.24  1710.92  1749.22  1774.36  1833.52
                             1848.64  1851.47  1892.94  1904.16  1917.56
                             1951.21  1966.44  2003.21  2115.96  2151.48
                             2171.79  4330.28  4388.01  4404.93  4408.71
                             4410.58  4446.89  4485.57  4490.09  4493.51
                             4502.38

 Zero-point correction=                           0.163998 (Hartree/Particle)
 Thermal correction to Energy=                    0.170151
 Thermal correction to Enthalpy=                  0.171095
 Thermal correction to Gibbs Free Energy=         0.133691
 Sum of electronic and zero-point Energies=           -423.048402
 Sum of electronic and thermal Energies=              -423.042249
 Sum of electronic and thermal Enthalpies=            -423.041305
 Sum of electronic and thermal Free Energies=         -423.078709

                     E (Thermal)             CV                S
                      KCal/Mol        Cal/Mol-Kelvin    Cal/Mol-Kelvin
 Total                  106.771             26.391             78.722
 Electronic               0.000              0.000              0.000
 Translational            0.889              2.981             40.409
 Rotational               0.889              2.981             27.853
 Vibrational            104.994             20.429             10.460
 Vibration     1          0.614              1.915              2.824
 Vibration     2          0.710              1.623              1.278
 Vibration     3          0.746              1.524              1.060
 Vibration     4          0.805              1.371              0.809
 Vibration     5          0.806              1.369              0.807
 Vibration     6          0.934              1.079              0.489
 Vibration     7          0.942              1.064              0.477

 Optimization completed.
    -- Stationary point found.
 Normal termination of Gaussian 09 at Mon Jan 27 13:14:34 2020.
