 Gaussian 09, Revision D.01,
 Gaussian 09:  ES64L-G09RevD.01 24-Apr-2013

 -----------------------------
 # b3lyp 6-31G(2df,p) opt Freq
 -----------------------------

 -----
 titel
 -----
 Symbolic Z-matrix:
 Charge =  0 Multiplicity = 1

 SCF Done:  E(RB3LYP) =  -423.153578627     A.U. after   14 cycles
 SCF Done:  E(RB3LYP) =  -423.153578521     A.U. after    6 cycles
 SCF Done:  E(RB3LYP) =  -423.153578581     A.U. after    6 cycles
 Optimization completed.
    -- Stationary point found.
 Normal termination of Gaussian 09 at Tue Jan 28 11:49:38 2020.

 ----------------------------------------------------------------------
 #N Geom=AllCheck Guess=TCheck SCRF=Check GenChk RB3LYP/6-31G(2df,p) Fr
 eq
 ----------------------------------------------------------------------

 Structure from the checkpoint file:  "/scratch/puck/g09_0e522163-128b-4918-992a-74fbc9cfe5ed/Gau-155405.chk"
 -----
 titel
 -----
 Charge =  0 Multiplicity = 1

                         Standard orientation:
 ---------------------------------------------------------------------
 Center     Atomic      Atomic             Coordinates (Angstroms)
 Number     Number       Type             X           Y           Z
 ---------------------------------------------------------------------
      1          6           0       -3.038089   -0.364280   -0.629066
      2          8           0       -1.735467   -0.833668   -0.328917
      3          6           0       -1.075149   -0.070339    0.644549
      4          6           0        0.285026   -0.742274    0.921824
      5          6           0        1.328176    0.324056    0.487018
      6          6           0        0.475092    1.224657   -0.435303
      7          8           0       -0.796579    1.246628    0.198371
      8          6           0        2.527924   -0.207459   -0.137109
      9          6           0        3.514858   -0.641087   -0.669155
     10          1           0       -3.016132    0.656714   -1.026756
     11          1           0       -3.455140   -1.038948   -1.379665
     12          1           0       -3.682635   -0.380063    0.263162
     13          1           0       -1.717995    0.043504    1.528975
     14          1           0        0.399706   -1.022172    1.969999
     15          1           0        0.363648   -1.642431    0.310924
     16          1           0        1.611981    0.920269    1.362131
     17          1           0        0.841052    2.250743   -0.503668
     18          1           0        0.415645    0.793325   -1.443328
     19          1           0        4.389213   -1.024269   -1.133963
 ---------------------------------------------------------------------

 SCF Done:  E(RB3LYP) =  -423.153578581     A.U. after    1 cycles

 The electronic state is 1-A.
 Alpha  occ. eigenvalues --  -19.14548 -19.14414 -10.27674 -10.23248 -10.22200
 Alpha  occ. eigenvalues --  -10.21601 -10.19047 -10.18214 -10.17256  -1.07124
 Alpha  occ. eigenvalues --   -1.01105  -0.81318  -0.75239  -0.72372  -0.67790
 Alpha  occ. eigenvalues --   -0.62320  -0.58715  -0.53321  -0.52177  -0.49844
 Alpha  occ. eigenvalues --   -0.48992  -0.45799  -0.44623  -0.41948  -0.41065
 Alpha  occ. eigenvalues --   -0.37984  -0.36674  -0.35947  -0.35186  -0.31871
 Alpha  occ. eigenvalues --   -0.27712  -0.26735  -0.26483  -0.25979
 Alpha virt. eigenvalues --    0.05029   0.05284   0.08830   0.11450   0.11735
 Alpha virt. eigenvalues --    0.13087   0.14152   0.14286   0.14489   0.16150
 Alpha virt. eigenvalues --    0.16455   0.18161   0.18778   0.19299   0.21064

 Mulliken charges:
               1
     1  C   -0.243769
     2  O   -0.242085
     3  C    0.221429
     4  C   -0.284122
     5  C   -0.161676
     6  C   -0.109572
     7  O   -0.250488
     8  C    0.311087
     9  C   -0.460187
    10  H    0.126650
    11  H    0.126801
    12  H    0.105298
    13  H    0.070859
    14  H    0.117124
    15  H    0.135924
    16  H    0.109891
    17  H    0.117839
    18  H    0.112436
    19  H    0.196562
 Sum of Mulliken charges =   0.00000

 Dipole moment (field-independent basis, Debye):
    X=             -0.1836    Y=              0.0053    Z=              0.4285  Tot=              0.4662
 Quadrupole moment (field-independent basis, Debye-Ang):
   XX=            -48.3175   YY=            -55.0615   ZZ=            -51.0002
   XY=              0.1703   XZ=             -1.1420   YZ=             -0.4126

  Exact polarizability: 102.429  -4.366  64.973  -7.622   1.455  66.875
 Approx polarizability: 131.926 -11.936  98.760 -17.285   7.283 101.131

                      1                      2                      3
                      A                      A                      A
 Frequencies --     42.5977               115.7161               151.9538
 Red. masses --      3.7615                 2.5937                 2.0680
 Frc consts  --      0.0040                 0.0205                 0.0281
 IR Inten    --      0.1571                 2.8431                 0.3719

                      4                      5                      6
                      A                      A                      A
 Frequencies --    164.3206               202.9019               254.8526
 Red. masses --      2.1704                 2.0343                 2.9665
 Frc consts  --      0.0345                 0.0493                 0.1135
 IR Inten    --      0.5193                 4.4358                 1.6748

                      7                      8                      9
                      A                      A                      A
 Frequencies --    290.7332               396.2619               502.9549
 Red. masses --      2.3892                 4.1204                 5.8242
 Frc consts  --      0.1190                 0.3812                 0.8681
 IR Inten    --      8.7549                 0.3723                 6.8862

                     10                     11                     12
                      A                      A                      A
 Frequencies --    531.3823               542.3783               572.3040
 Red. masses --      5.0110                 3.4914                 3.9520
 Frc consts  --      0.8337                 0.6051                 0.7626
 IR Inten    --      2.9841                 2.9806                 2.3540

                     13                     14                     15
                      A                      A                      A
 Frequencies --    630.6713               635.8335               741.7231
 Red. masses --      1.2066                 1.2288                 3.6938
 Frc consts  --      0.2828                 0.2927                 1.1973
 IR Inten    --     44.3250                41.5504                 7.7328

                     16                     17                     18
                      A                      A                      A
 Frequencies --    834.5283               871.7199               945.9253
 Red. masses --      2.2827                 3.0998                 3.3651
 Frc consts  --      0.9367                 1.3878                 1.7740
 IR Inten    --      3.9495                13.8743                27.8630

                     19                     20                     21
                      A                      A                      A
 Frequencies --    971.4778              1012.0023              1050.4033
 Red. masses --      1.8062                 2.7822                 4.6688
 Frc consts  --      1.0043                 1.6788                 3.0351
 IR Inten    --     39.4396                 8.0739                93.6282

                     22                     23                     24
                      A                      A                      A
 Frequencies --   1070.5647              1074.3552              1101.2167
 Red. masses --      3.3126                 3.3532                 2.8433
 Frc consts  --      2.2369                 2.2804                 2.0315
 IR Inten    --    107.4974                 5.2483                75.8071

                     25                     26                     27
                      A                      A                      A
 Frequencies --   1140.1991              1181.3556              1192.5374
 Red. masses --      4.6181                 1.2791                 1.3260
 Frc consts  --      3.5373                 1.0518                 1.1111
 IR Inten    --    105.2337                 2.6751                 0.6929

                     28                     29                     30
                      A                      A                      A
 Frequencies --   1232.4953              1245.7987              1290.8763
 Red. masses --      1.3942                 1.3705                 1.3317
 Frc consts  --      1.2478                 1.2532                 1.3075
 IR Inten    --     27.3698                22.2164                 1.5777

                     31                     32                     33
                      A                      A                      A
 Frequencies --   1301.8154              1330.6443              1360.1776
 Red. masses --      1.2374                 1.2544                 1.4548
 Frc consts  --      1.2356                 1.3086                 1.5858
 IR Inten    --      2.8728                 8.7250                30.2353

                     34                     35                     36
                      A                      A                      A
 Frequencies --   1388.4333              1402.6036              1476.0655
 Red. masses --      1.3774                 1.2490                 1.1583
 Frc consts  --      1.5645                 1.4477                 1.4869
 IR Inten    --     28.7926                12.9273                 1.5855

                     37                     38                     39
                      A                      A                      A
 Frequencies --   1483.9966              1488.4420              1513.8480
 Red. masses --      1.0486                 1.0925                 1.0631
 Frc consts  --      1.3605                 1.4260                 1.4355
 IR Inten    --      3.6676                 8.5603                 2.9438

                     40                     41                     42
                      A                      A                      A
 Frequencies --   1515.5754              2238.7143              2989.7440
 Red. masses --      1.0857                 5.9562                 1.0451
 Frc consts  --      1.4693                17.5881                 5.5039
 IR Inten    --      3.2384                 4.2289                46.7657

                     43                     44                     45
                      A                      A                      A
 Frequencies --   3007.1120              3020.1356              3038.4104
 Red. masses --      1.0841                 1.0688                 1.0804
 Frc consts  --      5.7758                 5.7440                 5.8767
 IR Inten    --     73.7974                19.4526                19.9839

                     46                     47                     48
                      A                      A                      A
 Frequencies --   3066.3847              3088.8953              3116.7592
 Red. masses --      1.0914                 1.0602                 1.0992
 Frc consts  --      6.0464                 5.9600                 6.2914
 IR Inten    --     35.0540                14.2549                25.3665

                     49                     50                     51
                      A                      A                      A
 Frequencies --   3126.1938              3143.0235              3504.9418
 Red. masses --      1.1009                 1.1064                 1.1618
 Frc consts  --      6.3394                 6.4397                 8.4092
 IR Inten    --     23.5574                10.9696                72.6402

 - Thermochemistry -
 -------------------
 Temperature   298.150 Kelvin.  Pressure   1.00000 Atm.
 Atom     1 has atomic number  6 and mass  12.00000

 Molecular mass:   126.06808 amu.
 Principal axes and moments of inertia in atomic units:
                           1         2         3
     Eigenvalues --   464.141991933.925992056.22322
           X            0.99999   0.00294   0.00292
           Y           -0.00279   0.99884  -0.04803
           Z           -0.00305   0.04802   0.99884
 This molecule is an asymmetric top.
 Rotational symmetry number  1.
 Warning -- assumption of classical behavior for rotation
           may cause significant error
 Rotational temperatures (Kelvin)      0.18661     0.04479     0.04212
 Rotational constants (GHZ):           3.88834     0.93320     0.87770
 Zero-point vibrational energy     416264.3 (Joules/Mol)
                                   99.48956 (Kcal/Mol)
 Warning -- explicit consideration of  12 degrees of freedom as
           vibrations may cause significant error
 Vibrational temperatures:     61.29   166.49   218.63   236.42   291.93
          (Kelvin)            366.68   418.30   570.13   723.64   764.54
                              780.36   823.42   907.39   914.82  1067.17
                             1200.70  1254.21  1360.97  1397.74  1456.04
                             1511.29  1540.30  1545.76  1584.40  1640.49
                             1699.71  1715.79  1773.28  1792.42  1857.28
                             1873.02  1914.50  1956.99  1997.64  2018.03
                             2123.73  2135.14  2141.53  2178.09  2180.57
                             3221.01  4301.57  4326.56  4345.30  4371.59
                             4411.84  4444.23  4484.32  4497.89  4522.10
                             5042.82

 Zero-point correction=                           0.158547 (Hartree/Particle)
 Thermal correction to Energy=                    0.167679
 Thermal correction to Enthalpy=                  0.168623
 Thermal correction to Gibbs Free Energy=         0.124059
 Sum of electronic and zero-point Energies=           -422.995032
 Sum of electronic and thermal Energies=              -422.985899
 Sum of electronic and thermal Enthalpies=            -422.984955
 Sum of electronic and thermal Free Energies=         -423.029520

                     E (Thermal)             CV                S
                      KCal/Mol        Cal/Mol-Kelvin    Cal/Mol-Kelvin
 Total                  105.220             33.527             93.794
 Electronic               0.000              0.000              0.000
 Translational            0.889              2.981             40.409
 Rotational               0.889              2.981             29.003
 Vibrational            103.443             27.565             24.383
 Vibration     1          0.595              1.980              5.134
 Vibration     2          0.608              1.936              3.171
 Vibration     3          0.619              1.901              2.648
 Vibration     4          0.623              1.886              2.499
 Vibration     5          0.639              1.836              2.107
 Vibration     6          0.665              1.755              1.697
 Vibration     7          0.687              1.691              1.470
 Vibration     8          0.763              1.478              0.976
 Vibration     9          0.858              1.243              0.651
 Vibration    10          0.886              1.181              0.584
 Vibration    11          0.897              1.156              0.560
 Vibration    12          0.929              1.091              0.500

 Optimization completed.
    -- Stationary point found.
 Normal termination of Gaussian 09 at Tue Jan 28 12:30:34 2020.
