 Gaussian 09, Revision D.01,
 Gaussian 09:  ES64L-G09RevD.01 24-Apr-2013

 -----------------------------
 # b3lyp 6-31G(2df,p) opt Freq
 -----------------------------

 -----
 titel
 -----
 Symbolic Z-matrix:
 Charge =  0 Multiplicity = 1

 SCF Done:  E(RB3LYP) =  -423.162147430     A.U. after   13 cycles
 Optimization completed.
    -- Stationary point found.
 Normal termination of Gaussian 09 at Mon Jan 27 18:12:57 2020.

 ----------------------------------------------------------------------
 #N Geom=AllCheck Guess=TCheck SCRF=Check GenChk RB3LYP/6-31G(2df,p) Fr
 eq
 ----------------------------------------------------------------------

 Structure from the checkpoint file:  "/scratch/puck/g09_6434d370-5df6-4712-8a10-efd7b8960588/Gau-41903.chk"
 -----
 titel
 -----
 Charge =  0 Multiplicity = 1

                         Standard orientation:
 ---------------------------------------------------------------------
 Center     Atomic      Atomic             Coordinates (Angstroms)
 Number     Number       Type             X           Y           Z
 ---------------------------------------------------------------------
      1          8           0        2.296704    0.219310   -0.485561
      2          6           0        0.973686    0.088410   -0.042861
      3          6           0        0.673531   -0.595168    1.327240
      4          6           0       -0.594016   -1.174433    0.672269
      5          6           0       -1.600462   -0.107362    0.107968
      6          6           0       -1.157883    1.317342    0.422667
      7          6           0        0.296254    1.460334   -0.091750
      8          8           0       -1.192806   -0.402882   -1.268576
      9          6           0        0.004619   -0.974198   -0.729079
     10          1           0        2.720812   -0.643935   -0.440930
     11          1           0        1.385695   -1.401072    1.538657
     12          1           0        0.593081    0.043878    2.211336
     13          1           0       -1.032746   -2.108891    1.019144
     14          1           0       -2.666410   -0.294172    0.258105
     15          1           0       -1.817416    2.038632   -0.068693
     16          1           0       -1.226379    1.498047    1.501534
     17          1           0        0.298874    1.810067   -1.126958
     18          1           0        0.872878    2.173017    0.505099
     19          1           0        0.466049   -1.736548   -1.362918
 ---------------------------------------------------------------------

 SCF Done:  E(RB3LYP) =  -423.162147430     A.U. after    1 cycles

 The electronic state is 1-A.
 Alpha  occ. eigenvalues --  -19.14049 -19.12921 -10.23617 -10.23524 -10.22812
 Alpha  occ. eigenvalues --  -10.19078 -10.18406 -10.18333 -10.17738  -1.04410
 Alpha  occ. eigenvalues --   -1.02220  -0.83797  -0.76676  -0.71523  -0.64656
 Alpha  occ. eigenvalues --   -0.61279  -0.58911  -0.53788  -0.50797  -0.48993
 Alpha  occ. eigenvalues --   -0.46363  -0.45084  -0.40882  -0.40723  -0.39632
 Alpha  occ. eigenvalues --   -0.38924  -0.37673  -0.35475  -0.34055  -0.31219
 Alpha  occ. eigenvalues --   -0.30034  -0.29273  -0.26948  -0.22628
 Alpha virt. eigenvalues --    0.07169   0.08639   0.09232   0.10857   0.13166
 Alpha virt. eigenvalues --    0.13302   0.14884   0.15725   0.16822   0.17274
 Alpha virt. eigenvalues --    0.18424   0.18600   0.20877   0.21353   0.22243

 Mulliken charges:
               1
     1  O   -0.490210
     2  C    0.367601
     3  C   -0.311796
     4  C   -0.084513
     5  C    0.097552
     6  C   -0.235565
     7  C   -0.220597
     8  O   -0.302996
     9  C    0.060346
    10  H    0.275189
    11  H    0.091126
    12  H    0.100548
    13  H    0.075541
    14  H    0.076612
    15  H    0.107988
    16  H    0.101794
    17  H    0.119654
    18  H    0.101773
    19  H    0.069954
 Sum of Mulliken charges =   0.00000

 Dipole moment (field-independent basis, Debye):
    X=              0.1337    Y=             -1.1534    Z=              1.8472  Tot=              2.1818
 Quadrupole moment (field-independent basis, Debye-Ang):
   XX=            -52.9245   YY=            -50.4317   ZZ=            -55.7067
   XY=             -5.0086   XZ=             -2.1014   YZ=              0.4704

  Exact polarizability:  78.115  -3.109  73.543  -1.267   0.143  67.041
 Approx polarizability: 111.767  -3.395 104.729  -1.126   0.805 105.935

                      1                      2                      3
                      A                      A                      A
 Frequencies --    238.1543               275.8578               307.5576
 Red. masses --      1.9700                 1.4281                 2.0921
 Frc consts  --      0.0658                 0.0640                 0.1166
 IR Inten    --      5.1659                37.4576                49.6098

                      4                      5                      6
                      A                      A                      A
 Frequencies --    312.0697               384.7259               422.0942
 Red. masses --      2.9430                 3.0677                 2.2568
 Frc consts  --      0.1689                 0.2675                 0.2369
 IR Inten    --      3.6305                 1.4811                 5.8772

                      7                      8                      9
                      A                      A                      A
 Frequencies --    440.1703               525.2543               630.0424
 Red. masses --      3.7953                 4.4899                 4.8272
 Frc consts  --      0.4332                 0.7298                 1.1290
 IR Inten    --      8.7804                 2.5659                 7.4606

                     10                     11                     12
                      A                      A                      A
 Frequencies --    639.4390               747.9893               775.9929
 Red. masses --      3.5422                 3.6377                 2.4804
 Frc consts  --      0.8533                 1.1991                 0.8800
 IR Inten    --      2.7085                 1.2336                 3.6379

                     13                     14                     15
                      A                      A                      A
 Frequencies --    800.2049               845.8979               889.6584
 Red. masses --      1.7459                 1.6711                 2.9244
 Frc consts  --      0.6587                 0.7045                 1.3637
 IR Inten    --      3.8250                 7.8459                 8.9128

                     16                     17                     18
                      A                      A                      A
 Frequencies --    911.7028               934.2709               937.8156
 Red. masses --      2.5370                 2.1378                 2.2646
 Frc consts  --      1.2424                 1.0994                 1.1735
 IR Inten    --      8.9260                20.9811                23.7056

                     19                     20                     21
                      A                      A                      A
 Frequencies --    974.3801               989.1783              1016.5776
 Red. masses --      2.5060                 2.5479                 2.6129
 Frc consts  --      1.4018                 1.4689                 1.5909
 IR Inten    --      1.0831                14.8639                41.4617

                     22                     23                     24
                      A                      A                      A
 Frequencies --   1049.4860              1065.3714              1083.1291
 Red. masses --      1.7111                 1.8522                 1.9516
 Frc consts  --      1.1104                 1.2386                 1.3490
 IR Inten    --      1.4373                15.5633                 1.8926

                     25                     26                     27
                      A                      A                      A
 Frequencies --   1127.6130              1145.9176              1179.9654
 Red. masses --      1.3806                 1.7586                 1.8130
 Frc consts  --      1.0343                 1.3606                 1.4873
 IR Inten    --     50.9673                 5.3111                19.8267

                     28                     29                     30
                      A                      A                      A
 Frequencies --   1201.6465              1207.2841              1214.0130
 Red. masses --      1.5809                 2.0630                 1.5023
 Frc consts  --      1.3449                 1.7716                 1.3045
 IR Inten    --     20.0215                27.8136                 2.3977

                     31                     32                     33
                      A                      A                      A
 Frequencies --   1255.8878              1273.8084              1299.2696
 Red. masses --      1.4328                 1.4136                 1.6314
 Frc consts  --      1.3315                 1.3514                 1.6226
 IR Inten    --      1.3301                17.6845                 3.2925

                     34                     35                     36
                      A                      A                      A
 Frequencies --   1321.4307              1341.7414              1345.6251
 Red. masses --      1.7344                 1.5853                 1.4806
 Frc consts  --      1.7843                 1.6815                 1.5795
 IR Inten    --     20.5125                 5.4365                18.5609

                     37                     38                     39
                      A                      A                      A
 Frequencies --   1362.7257              1397.3652              1476.2700
 Red. masses --      1.5818                 1.7929                 1.1027
 Frc consts  --      1.7307                 2.0627                 1.4159
 IR Inten    --     28.6120                 9.1101                 1.6312

                     40                     41                     42
                      A                      A                      A
 Frequencies --   1480.3430              1501.4890              3036.7444
 Red. masses --      1.0924                 1.1166                 1.0592
 Frc consts  --      1.4105                 1.4832                 5.7548
 IR Inten    --      3.3200                 3.5852                30.4772

                     43                     44                     45
                      A                      A                      A
 Frequencies --   3041.6897              3061.9854              3075.2554
 Red. masses --      1.0623                 1.0607                 1.0884
 Frc consts  --      5.7906                 5.8592                 6.0644
 IR Inten    --     21.3207                30.6226                63.8594

                     46                     47                     48
                      A                      A                      A
 Frequencies --   3079.5170              3087.3996              3091.6320
 Red. masses --      1.0936                 1.0972                 1.1059
 Frc consts  --      6.1105                 6.1622                 6.2278
 IR Inten    --     21.6168                36.9297                20.4548

                     49                     50                     51
                      A                      A                      A
 Frequencies --   3112.5129              3120.9237              3809.4930
 Red. masses --      1.1044                 1.0912                 1.0660
 Frc consts  --      6.3035                 6.2621                 9.1146
 IR Inten    --     23.9971                40.5859                13.7011

 - Thermochemistry -
 -------------------
 Temperature   298.150 Kelvin.  Pressure   1.00000 Atm.
 Atom     1 has atomic number  8 and mass  15.99491

 Molecular mass:   126.06808 amu.
 Principal axes and moments of inertia in atomic units:
                           1         2         3
     Eigenvalues --   662.43260 997.172091095.28190
           X            0.99869  -0.04917  -0.01391
           Y            0.04900   0.99872  -0.01276
           Z            0.01452   0.01206   0.99982
 This molecule is an asymmetric top.
 Rotational symmetry number  1.
 Warning -- assumption of classical behavior for rotation
           may cause significant error
 Rotational temperatures (Kelvin)      0.13075     0.08686     0.07908
 Rotational constants (GHZ):           2.72441     1.80986     1.64774
 Zero-point vibrational energy     423756.6 (Joules/Mol)
                                  101.28025 (Kcal/Mol)
 Warning -- explicit consideration of   8 degrees of freedom as
           vibrations may cause significant error
 Vibrational temperatures:    342.65   396.90   442.51   449.00   553.53
          (Kelvin)            607.30   633.31   755.72   906.49   920.01
                             1076.19  1116.48  1151.31  1217.06  1280.02
                             1311.74  1344.21  1349.31  1401.91  1423.21
                             1462.63  1509.97  1532.83  1558.38  1622.38
                             1648.72  1697.70  1728.90  1737.01  1746.69
                             1806.94  1832.72  1869.36  1901.24  1930.46
                             1936.05  1960.66  2010.49  2124.02  2129.88
                             2160.31  4369.19  4376.31  4405.51  4424.60
                             4430.73  4442.07  4448.16  4478.21  4490.31
                             5481.00

 Zero-point correction=                           0.161400 (Hartree/Particle)
 Thermal correction to Energy=                    0.168313
 Thermal correction to Enthalpy=                  0.169257
 Thermal correction to Gibbs Free Energy=         0.130725
 Sum of electronic and zero-point Energies=           -423.000747
 Sum of electronic and thermal Energies=              -422.993835
 Sum of electronic and thermal Enthalpies=            -422.992891
 Sum of electronic and thermal Free Energies=         -423.031422

                     E (Thermal)             CV                S
                      KCal/Mol        Cal/Mol-Kelvin    Cal/Mol-Kelvin
 Total                  105.618             29.500             81.097
 Electronic               0.000              0.000              0.000
 Translational            0.889              2.981             40.409
 Rotational               0.889              2.981             28.072
 Vibrational            103.840             23.538             12.616
 Vibration     1          0.656              1.782              1.817
 Vibration     2          0.678              1.718              1.559
 Vibration     3          0.697              1.659              1.375
 Vibration     4          0.700              1.651              1.351
 Vibration     5          0.754              1.503              1.021
 Vibration     6          0.784              1.422              0.885
 Vibration     7          0.800              1.383              0.826
 Vibration     8          0.880              1.194              0.598

 Optimization completed.
    -- Stationary point found.
 Normal termination of Gaussian 09 at Mon Jan 27 19:17:25 2020.
