 Gaussian 09, Revision D.01,
 Gaussian 09:  ES64L-G09RevD.01 24-Apr-2013

 -----------------------------
 # b3lyp 6-31G(2df,p) opt Freq
 -----------------------------

 -----
 titel
 -----
 Symbolic Z-matrix:
 Charge =  0 Multiplicity = 1

 SCF Done:  E(RB3LYP) =  -423.229932122     A.U. after   14 cycles
 Optimization completed.
    -- Stationary point found.
 Normal termination of Gaussian 09 at Tue Jan 28 03:58:10 2020.

 ----------------------------------------------------------------------
 #N Geom=AllCheck Guess=TCheck SCRF=Check GenChk RB3LYP/6-31G(2df,p) Fr
 eq
 ----------------------------------------------------------------------

 Structure from the checkpoint file:  "/scratch/puck/g09_7cf30b63-56fb-40cc-8f74-e33fb7d102e7/Gau-14326.chk"
 -----
 titel
 -----
 Charge =  0 Multiplicity = 1

                         Standard orientation:
 ---------------------------------------------------------------------
 Center     Atomic      Atomic             Coordinates (Angstroms)
 Number     Number       Type             X           Y           Z
 ---------------------------------------------------------------------
      1          6           0        0.255755    2.139103   -0.157906
      2          6           0        0.671230    0.770751    0.382757
      3          6           0        2.188104    0.458662    0.240229
      4          6           0        2.225255   -1.002507   -0.126165
      5          6           0        1.018156   -1.484971   -0.411599
      6          6           0       -0.044138   -0.431083   -0.291785
      7          8           0       -1.130012   -0.949849    0.533903
      8          6           0       -2.357699   -0.470812    0.308691
      9          8           0       -2.668851    0.375830   -0.485962
     10          1           0        0.508195    2.230308   -1.220741
     11          1           0       -0.821661    2.292704   -0.059777
     12          1           0        0.772013    2.943933    0.375637
     13          1           0        0.411907    0.708706    1.445633
     14          1           0        2.640260    1.068024   -0.554995
     15          1           0        2.752629    0.683017    1.152743
     16          1           0        3.149174   -1.568200   -0.181105
     17          1           0        0.787688   -2.494562   -0.730569
     18          1           0       -0.486680   -0.159510   -1.255556
     19          1           0       -3.062605   -0.987123    0.979873
 ---------------------------------------------------------------------

 SCF Done:  E(RB3LYP) =  -423.229932122     A.U. after    1 cycles

 The electronic state is 1-A.
 Alpha  occ. eigenvalues --  -19.18510 -19.13185 -10.30664 -10.24299 -10.19387
 Alpha  occ. eigenvalues --  -10.19177 -10.18977 -10.18537 -10.17293  -1.10051
 Alpha  occ. eigenvalues --   -1.01856  -0.85280  -0.75176  -0.72792  -0.66580
 Alpha  occ. eigenvalues --   -0.61341  -0.56453  -0.54672  -0.51832  -0.49740
 Alpha  occ. eigenvalues --   -0.46331  -0.44984  -0.44647  -0.40311  -0.39950
 Alpha  occ. eigenvalues --   -0.39519  -0.37128  -0.36426  -0.34282  -0.33743
 Alpha  occ. eigenvalues --   -0.33290  -0.29451  -0.28352  -0.25266
 Alpha virt. eigenvalues --    0.00709   0.01379   0.08780   0.11752   0.12544
 Alpha virt. eigenvalues --    0.13632   0.14767   0.15137   0.16045   0.16423
 Alpha virt. eigenvalues --    0.17657   0.17741   0.18627   0.20282   0.22245

 Mulliken charges:
               1
     1  C   -0.415524
     2  C    0.015557
     3  C   -0.276657
     4  C   -0.069516
     5  C   -0.095436
     6  C    0.087959
     7  O   -0.223400
     8  C    0.180166
     9  O   -0.305304
    10  H    0.115331
    11  H    0.142188
    12  H    0.110602
    13  H    0.089770
    14  H    0.110656
    15  H    0.108296
    16  H    0.101491
    17  H    0.103798
    18  H    0.111417
    19  H    0.108609
 Sum of Mulliken charges =   0.00000

 Dipole moment (field-independent basis, Debye):
    X=              1.8760    Y=             -0.6997    Z=              0.6740  Tot=              2.1126
 Quadrupole moment (field-independent basis, Debye-Ang):
   XX=            -54.0497   YY=            -52.5776   ZZ=            -53.3716
   XY=              3.3174   XZ=             -3.2926   YZ=              1.7896

  Exact polarizability:  97.903   1.274  77.033   1.275   0.001  58.622
 Approx polarizability: 136.825   3.020 110.037   7.595  -4.256  95.722

                      1                      2                      3
                      A                      A                      A
 Frequencies --     35.0655                71.8761               182.9907
 Red. masses --      3.8648                 4.0302                 3.8423
 Frc consts  --      0.0028                 0.0123                 0.0758
 IR Inten    --      0.8319                 1.7380                 3.6657

                      4                      5                      6
                      A                      A                      A
 Frequencies --    220.0159               246.8775               271.1206
 Red. masses --      2.0720                 1.2194                 4.0307
 Frc consts  --      0.0591                 0.0438                 0.1746
 IR Inten    --      4.1483                 2.3539                 5.8212

                      7                      8                      9
                      A                      A                      A
 Frequencies --    311.5516               400.7577               444.6795
 Red. masses --      2.6785                 2.2223                 2.9538
 Frc consts  --      0.1532                 0.2103                 0.3441
 IR Inten    --      3.7773                 3.8305                 6.2522

                     10                     11                     12
                      A                      A                      A
 Frequencies --    508.8551               589.8242               743.5765
 Red. masses --      3.8167                 3.3102                 1.5827
 Frc consts  --      0.5823                 0.6785                 0.5156
 IR Inten    --      2.3870                 4.8937                14.9524

                     13                     14                     15
                      A                      A                      A
 Frequencies --    758.2366               789.7368               864.1203
 Red. masses --      4.1598                 4.3340                 2.4159
 Frc consts  --      1.4091                 1.5926                 1.0629
 IR Inten    --      1.8773                 1.9345                 7.1844

                     16                     17                     18
                      A                      A                      A
 Frequencies --    914.5511               935.8970               943.8555
 Red. masses --      2.3112                 1.3900                 2.8069
 Frc consts  --      1.1389                 0.7173                 1.4733
 IR Inten    --     14.3638                 8.1558                22.6569

                     19                     20                     21
                      A                      A                      A
 Frequencies --    978.6680               995.5998              1043.7890
 Red. masses --      1.3661                 1.8977                 1.7348
 Frc consts  --      0.7709                 1.1083                 1.1136
 IR Inten    --     11.4433                32.0599                 0.8800

                     22                     23                     24
                      A                      A                      A
 Frequencies --   1052.2119              1080.6354              1104.2556
 Red. masses --      2.2510                 1.9265                 1.7803
 Frc consts  --      1.4683                 1.3255                 1.2790
 IR Inten    --      3.7641                 1.9994                 4.1718

                     25                     26                     27
                      A                      A                      A
 Frequencies --   1136.2811              1163.3033              1206.3486
 Red. masses --      1.1867                 2.1735                 1.9234
 Frc consts  --      0.9027                 1.7330                 1.6492
 IR Inten    --      1.7010                 0.6948               159.6414

                     28                     29                     30
                      A                      A                      A
 Frequencies --   1208.0810              1287.4035              1297.7221
 Red. masses --      2.9623                 1.4339                 1.3022
 Frc consts  --      2.5472                 1.4002                 1.2921
 IR Inten    --    250.0374                 1.6136                 0.7215

                     31                     32                     33
                      A                      A                      A
 Frequencies --   1319.5069              1352.0833              1374.4781
 Red. masses --      1.3337                 1.4020                 1.6947
 Frc consts  --      1.3681                 1.5101                 1.8863
 IR Inten    --      1.2489                 0.9343                 1.0075

                     34                     35                     36
                      A                      A                      A
 Frequencies --   1392.1721              1409.5516              1417.5577
 Red. masses --      1.4955                 1.1399                 1.2252
 Frc consts  --      1.7078                 1.3343                 1.4506
 IR Inten    --     12.4983                 1.1785                 4.0426

                     37                     38                     39
                      A                      A                      A
 Frequencies --   1487.8726              1498.2526              1501.8237
 Red. masses --      1.0898                 1.0448                 1.0520
 Frc consts  --      1.4214                 1.3818                 1.3980
 IR Inten    --      2.1801                 4.7317                 4.2419

                     40                     41                     42
                      A                      A                      A
 Frequencies --   1692.1169              1810.4478              3011.3006
 Red. masses --      6.3862                 9.5436                 1.0663
 Frc consts  --     10.7733                18.4304                 5.6970
 IR Inten    --      3.0929               277.2889                27.5711

                     43                     44                     45
                      A                      A                      A
 Frequencies --   3020.3829              3031.9288              3039.1313
 Red. masses --      1.0897                 1.0406                 1.0824
 Frc consts  --      5.8570                 5.6363                 5.8904
 IR Inten    --     76.9645                19.8060                11.9908

                     46                     47                     48
                      A                      A                      A
 Frequencies --   3056.4788              3062.2491              3095.3103
 Red. masses --      1.0921                 1.0848                 1.1003
 Frc consts  --      6.0111                 5.9933                 6.2112
 IR Inten    --     16.3208                19.0488                36.7577

                     49                     50                     51
                      A                      A                      A
 Frequencies --   3125.3284              3186.1093              3213.8826
 Red. masses --      1.0999                 1.0857                 1.1036
 Frc consts  --      6.3297                 6.4935                 6.7164
 IR Inten    --     11.2828                 7.2861                16.9629

 - Thermochemistry -
 -------------------
 Temperature   298.150 Kelvin.  Pressure   1.00000 Atm.
 Atom     1 has atomic number  6 and mass  12.00000

 Molecular mass:   126.06808 amu.
 Principal axes and moments of inertia in atomic units:
                           1         2         3
     Eigenvalues --   640.577831417.608481886.80794
           X            0.99990   0.01353  -0.00425
           Y           -0.01350   0.99989   0.00594
           Z            0.00433  -0.00588   0.99997
 This molecule is an asymmetric top.
 Rotational symmetry number  1.
 Warning -- assumption of classical behavior for rotation
           may cause significant error
 Rotational temperatures (Kelvin)      0.13521     0.06110     0.04590
 Rotational constants (GHZ):           2.81736     1.27309     0.95650
 Zero-point vibrational energy     418010.2 (Joules/Mol)
                                   99.90684 (Kcal/Mol)
 Warning -- explicit consideration of  11 degrees of freedom as
           vibrations may cause significant error
 Vibrational temperatures:     50.45   103.41   263.28   316.55   355.20
          (Kelvin)            390.08   448.25   576.60   639.79   732.13
                              848.62  1069.84  1090.93  1136.25  1243.27
                             1315.83  1346.55  1358.00  1408.08  1432.44
                             1501.78  1513.90  1554.79  1588.78  1634.85
                             1673.73  1735.66  1738.16  1852.28  1867.13
                             1898.47  1945.34  1977.56  2003.02  2028.03
                             2039.55  2140.71  2155.65  2160.79  2434.58
                             2604.83  4332.58  4345.65  4362.26  4372.63
                             4397.59  4405.89  4453.46  4496.64  4584.09
                             4624.05

 Zero-point correction=                           0.159212 (Hartree/Particle)
 Thermal correction to Energy=                    0.167963
 Thermal correction to Enthalpy=                  0.168907
 Thermal correction to Gibbs Free Energy=         0.124758
 Sum of electronic and zero-point Energies=           -423.070720
 Sum of electronic and thermal Energies=              -423.061969
 Sum of electronic and thermal Enthalpies=            -423.061025
 Sum of electronic and thermal Free Energies=         -423.105174

                     E (Thermal)             CV                S
                      KCal/Mol        Cal/Mol-Kelvin    Cal/Mol-Kelvin
 Total                  105.398             32.098             92.919
 Electronic               0.000              0.000              0.000
 Translational            0.889              2.981             40.409
 Rotational               0.889              2.981             28.929
 Vibrational            103.621             26.136             23.581
 Vibration     1          0.594              1.982              5.520
 Vibration     2          0.598              1.967              4.101
 Vibration     3          0.630              1.863              2.298
 Vibration     4          0.647              1.811              1.959
 Vibration     5          0.661              1.768              1.753
 Vibration     6          0.675              1.726              1.589
 Vibration     7          0.700              1.652              1.354
 Vibration     8          0.767              1.468              0.960
 Vibration     9          0.804              1.373              0.812
 Vibration    10          0.864              1.230              0.636
 Vibration    11          0.947              1.053              0.467

 Optimization completed.
    -- Stationary point found.
 Normal termination of Gaussian 09 at Tue Jan 28 04:41:35 2020.
