 Gaussian 09, Revision D.01,
 Gaussian 09:  ES64L-G09RevD.01 24-Apr-2013

 -----------------------------
 # b3lyp 6-31G(2df,p) opt Freq
 -----------------------------

 -----
 titel
 -----
 Symbolic Z-matrix:
 Charge =  0 Multiplicity = 1

 SCF Done:  E(RB3LYP) =  -423.119079184     A.U. after   14 cycles
 SCF Done:  E(RB3LYP) =  -423.119078284     A.U. after    7 cycles
 SCF Done:  E(RB3LYP) =  -423.119079132     A.U. after    7 cycles
 Optimization completed.
    -- Stationary point found.
 Normal termination of Gaussian 09 at Mon Jan 27 13:59:09 2020.

 ----------------------------------------------------------------------
 #N Geom=AllCheck Guess=TCheck SCRF=Check GenChk RB3LYP/6-31G(2df,p) Fr
 eq
 ----------------------------------------------------------------------

 Structure from the checkpoint file:  "/scratch/puck/g09_b4c23bd7-5d6a-41c0-849a-87a7cd9738ed/Gau-76171.chk"
 -----
 titel
 -----
 Charge =  0 Multiplicity = 1

                         Standard orientation:
 ---------------------------------------------------------------------
 Center     Atomic      Atomic             Coordinates (Angstroms)
 Number     Number       Type             X           Y           Z
 ---------------------------------------------------------------------
      1          8           0        4.025549   -0.140445   -0.145864
      2          6           0        2.975846    0.308178    0.236429
      3          6           0        1.672176   -0.454595    0.288950
      4          6           0        0.565624    0.256458   -0.513844
      5          6           0       -0.771107   -0.457952   -0.419915
      6          6           0       -1.656966   -0.260661    0.847564
      7          6           0       -2.900035   -0.688509    0.034202
      8          6           0       -2.067315    0.317866   -0.792175
      9          8           0       -1.907441    1.141059    0.432984
     10          1           0        2.897782    1.366341    0.582085
     11          1           0        1.849328   -1.472363   -0.071837
     12          1           0        1.367696   -0.513908    1.344103
     13          1           0        0.437897    1.281937   -0.153688
     14          1           0        0.868540    0.315859   -1.566900
     15          1           0       -0.721996   -1.486689   -0.793581
     16          1           0       -1.422762   -0.437207    1.898121
     17          1           0       -2.962636   -1.721935   -0.315531
     18          1           0       -3.847078   -0.300565    0.409027
     19          1           0       -2.320974    0.838908   -1.716025
 ---------------------------------------------------------------------

 SCF Done:  E(RB3LYP) =  -423.119079132     A.U. after    1 cycles

 The electronic state is 1-A.
 Alpha  occ. eigenvalues --  -19.13860 -19.13823 -10.27067 -10.25591 -10.25534
 Alpha  occ. eigenvalues --  -10.20781 -10.20017 -10.19748 -10.19614  -1.06190
 Alpha  occ. eigenvalues --   -1.04531  -0.81646  -0.78490  -0.70698  -0.65817
 Alpha  occ. eigenvalues --   -0.62642  -0.57521  -0.53850  -0.52622  -0.48746
 Alpha  occ. eigenvalues --   -0.47099  -0.45251  -0.42982  -0.41782  -0.41437
 Alpha  occ. eigenvalues --   -0.40253  -0.36677  -0.35996  -0.34858  -0.33588
 Alpha  occ. eigenvalues --   -0.32754  -0.31629  -0.25153  -0.24450
 Alpha virt. eigenvalues --   -0.02037   0.08351   0.09824   0.10496   0.11501
 Alpha virt. eigenvalues --    0.11823   0.12693   0.12860   0.13546   0.15093
 Alpha virt. eigenvalues --    0.15604   0.16444   0.17562   0.18110   0.21278

 Mulliken charges:
               1
     1  O   -0.236946
     2  C    0.158814
     3  C   -0.273010
     4  C   -0.246399
     5  C    0.031269
     6  C    0.046968
     7  C   -0.222385
     8  C    0.030604
     9  O   -0.312689
    10  H    0.073138
    11  H    0.118763
    12  H    0.118870
    13  H    0.125975
    14  H    0.109480
    15  H    0.074285
    16  H    0.095021
    17  H    0.098570
    18  H    0.112541
    19  H    0.097129
 Sum of Mulliken charges =   0.00000

 Dipole moment (field-independent basis, Debye):
    X=             -2.6150    Y=             -1.1490    Z=             -0.0328  Tot=              2.8565
 Quadrupole moment (field-independent basis, Debye-Ang):
   XX=            -68.3279   YY=            -54.5124   ZZ=            -50.3781
   XY=              5.3668   XZ=              3.8935   YZ=             -1.5344

  Exact polarizability:  97.562   1.120  68.470  -1.420   0.533  66.002
 Approx polarizability: 122.824  -4.455 110.100  -4.567   3.462 105.306

                      1                      2                      3
                      A                      A                      A
 Frequencies --     55.0017                62.1868                93.8633
 Red. masses --      4.8366                 3.5349                 2.9270
 Frc consts  --      0.0086                 0.0081                 0.0152
 IR Inten    --      6.8849                 4.3404                 0.3962

                      4                      5                      6
                      A                      A                      A
 Frequencies --    133.8666               282.1852               305.6012
 Red. masses --      3.0990                 2.8531                 3.0315
 Frc consts  --      0.0327                 0.1339                 0.1668
 IR Inten    --      1.8330                 1.4215                 4.0405

                      7                      8                      9
                      A                      A                      A
 Frequencies --    354.7317               517.2469               546.5482
 Red. masses --      3.3086                 2.6365                 2.2381
 Frc consts  --      0.2453                 0.4156                 0.3939
 IR Inten    --      0.7972                17.1807                 5.5523

                     10                     11                     12
                      A                      A                      A
 Frequencies --    659.6535               734.4906               760.3737
 Red. masses --      3.1036                 2.4407                 3.1644
 Frc consts  --      0.7957                 0.7758                 1.0779
 IR Inten    --      2.8093                 5.7496                11.0903

                     13                     14                     15
                      A                      A                      A
 Frequencies --    779.2559               829.0752               878.5928
 Red. masses --      1.9529                 2.1018                 2.5457
 Frc consts  --      0.6987                 0.8512                 1.1578
 IR Inten    --      1.4128                 2.3822                12.8972

                     16                     17                     18
                      A                      A                      A
 Frequencies --    888.1622               905.8362               922.5843
 Red. masses --      1.8948                 2.0517                 3.2734
 Frc consts  --      0.8806                 0.9919                 1.6416
 IR Inten    --      1.5078                 6.1499                21.2921

                     19                     20                     21
                      A                      A                      A
 Frequencies --    995.6692              1030.2747              1033.7952
 Red. masses --      2.8001                 1.7020                 1.0836
 Frc consts  --      1.6355                 1.0644                 0.6823
 IR Inten    --     10.8992                11.7076                 0.4460

                     22                     23                     24
                      A                      A                      A
 Frequencies --   1068.9203              1075.0488              1128.1414
 Red. masses --      1.4897                 2.6197                 1.4714
 Frc consts  --      1.0028                 1.7839                 1.1034
 IR Inten    --      4.5101                19.2310                 5.0574

                     25                     26                     27
                      A                      A                      A
 Frequencies --   1140.8519              1143.8450              1151.7147
 Red. masses --      1.5992                 3.3330                 2.5799
 Frc consts  --      1.2263                 2.5693                 2.0163
 IR Inten    --      6.4238                 1.7598                 3.8516

                     28                     29                     30
                      A                      A                      A
 Frequencies --   1192.5994              1200.0413              1211.8642
 Red. masses --      1.3352                 1.4050                 1.4197
 Frc consts  --      1.1189                 1.1921                 1.2284
 IR Inten    --      2.0262                13.0150                 9.6179

                     31                     32                     33
                      A                      A                      A
 Frequencies --   1256.9668              1273.5142              1283.6109
 Red. masses --      1.5845                 1.4596                 1.4907
 Frc consts  --      1.4750                 1.3947                 1.4471
 IR Inten    --      1.2499                 4.8346                 2.9371

                     34                     35                     36
                      A                      A                      A
 Frequencies --   1312.6149              1360.1903              1414.0179
 Red. masses --      1.1667                 1.4456                 1.5556
 Frc consts  --      1.1844                 1.5758                 1.8326
 IR Inten    --      6.0380                 6.4374                 1.4503

                     37                     38                     39
                      A                      A                      A
 Frequencies --   1431.1887              1464.8091              1488.6717
 Red. masses --      1.2107                 1.0850                 1.1755
 Frc consts  --      1.4611                 1.3716                 1.5348
 IR Inten    --      6.8861                 1.8213                 1.5986

                     40                     41                     42
                      A                      A                      A
 Frequencies --   1494.8607              1836.6066              2853.0155
 Red. masses --      1.0917                10.0610                 1.0817
 Frc consts  --      1.4373                19.9950                 5.1878
 IR Inten    --      6.4639               200.8253               107.6883

                     43                     44                     45
                      A                      A                      A
 Frequencies --   3011.0020              3031.7343              3048.5294
 Red. masses --      1.0643                 1.0645                 1.0821
 Frc consts  --      5.6850                 5.7647                 5.9249
 IR Inten    --      3.8750                27.5957                16.9859

                     46                     47                     48
                      A                      A                      A
 Frequencies --   3068.0758              3083.1607              3101.2059
 Red. masses --      1.0582                 1.0948                 1.0984
 Frc consts  --      5.8687                 6.1319                 6.2241
 IR Inten    --     42.6411                 1.2447                28.9913

                     49                     50                     51
                      A                      A                      A
 Frequencies --   3109.8940              3117.1908              3154.8179
 Red. masses --      1.0900                 1.0964                 1.1095
 Frc consts  --      6.2109                 6.2772                 6.5059
 IR Inten    --     81.1171                 7.1903                22.9817

 - Thermochemistry -
 -------------------
 Temperature   298.150 Kelvin.  Pressure   1.00000 Atm.
 Atom     1 has atomic number  8 and mass  15.99491

 Molecular mass:   126.06808 amu.
 Principal axes and moments of inertia in atomic units:
                           1         2         3
     Eigenvalues --   309.165182636.578982670.87454
           X            0.99992   0.01179   0.00347
           Y           -0.01131   0.99330  -0.11504
           Z           -0.00480   0.11500   0.99335
 This molecule is an asymmetric top.
 Rotational symmetry number  1.
 Rotational temperatures (Kelvin)      0.28015     0.03285     0.03243
 Rotational constants (GHZ):           5.83747     0.68450     0.67571
 Zero-point vibrational energy     414372.7 (Joules/Mol)
                                   99.03744 (Kcal/Mol)
 Warning -- explicit consideration of   9 degrees of freedom as
           vibrations may cause significant error
 Vibrational temperatures:     79.14    89.47   135.05   192.60   406.00
          (Kelvin)            439.69   510.38   744.20   786.36   949.09
                             1056.77  1094.01  1121.17  1192.85  1264.10
                             1277.87  1303.29  1327.39  1432.54  1482.33
                             1487.40  1537.94  1546.75  1623.14  1641.43
                             1645.74  1657.06  1715.88  1726.59  1743.60
                             1808.49  1832.30  1846.83  1888.56  1957.01
                             2034.45  2059.16  2107.53  2141.86  2150.77
                             2642.46  4104.85  4332.15  4361.98  4386.15
                             4414.27  4435.98  4461.94  4474.44  4484.94
                             4539.07

 Zero-point correction=                           0.157826 (Hartree/Particle)
 Thermal correction to Energy=                    0.166400
 Thermal correction to Enthalpy=                  0.167344
 Thermal correction to Gibbs Free Energy=         0.123127
 Sum of electronic and zero-point Energies=           -422.961253
 Sum of electronic and thermal Energies=              -422.952679
 Sum of electronic and thermal Enthalpies=            -422.951735
 Sum of electronic and thermal Free Energies=         -422.995953

                     E (Thermal)             CV                S
                      KCal/Mol        Cal/Mol-Kelvin    Cal/Mol-Kelvin
 Total                  104.418             31.253             93.064
 Electronic               0.000              0.000              0.000
 Translational            0.889              2.981             40.409
 Rotational               0.889              2.981             29.167
 Vibrational            102.640             25.292             23.489
 Vibration     1          0.596              1.976              4.629
 Vibration     2          0.597              1.972              4.387
 Vibration     3          0.603              1.954              3.578
 Vibration     4          0.613              1.920              2.890
 Vibration     5          0.681              1.707              1.520
 Vibration     6          0.696              1.663              1.386
 Vibration     7          0.731              1.566              1.145
 Vibration     8          0.872              1.212              0.616
 Vibration     9          0.902              1.147              0.551

 Normal termination of Gaussian 09 at Mon Jan 27 14:36:34 2020.
