 Gaussian 09, Revision D.01,
 Gaussian 09:  ES64L-G09RevD.01 24-Apr-2013

 -----------------------------
 # b3lyp 6-31G(2df,p) opt Freq
 -----------------------------

 -----
 titel
 -----
 Symbolic Z-matrix:
 Charge =  0 Multiplicity = 1

 SCF Done:  E(RB3LYP) =  -423.113507672     A.U. after   14 cycles
 Optimization completed.
    -- Stationary point found.
 Normal termination of Gaussian 09 at Tue Jan 28 14:09:53 2020.

 ----------------------------------------------------------------------
 #N Geom=AllCheck Guess=TCheck SCRF=Check GenChk RB3LYP/6-31G(2df,p) Fr
 eq
 ----------------------------------------------------------------------

 Structure from the checkpoint file:  "/scratch/puck/g09_01a5fdd4-6c99-4ee6-a035-cf8b96878fb2/Gau-144533.chk"
 -----
 titel
 -----
 Charge =  0 Multiplicity = 1

                         Standard orientation:
 ---------------------------------------------------------------------
 Center     Atomic      Atomic             Coordinates (Angstroms)
 Number     Number       Type             X           Y           Z
 ---------------------------------------------------------------------
      1          6           0        3.324479   -0.782088   -0.265270
      2          8           0        1.962101   -0.875539    0.072741
      3          6           0        1.363913    0.389634    0.267557
      4          6           0       -0.072978    0.182385    0.665529
      5          6           0       -1.111155    1.204304    0.337318
      6          8           0       -0.682759    2.362753   -0.309997
      7          6           0       -1.107246   -0.119250   -0.423521
      8          6           0       -2.141878   -1.083954   -0.211664
      9          6           0       -3.023110   -1.881500   -0.022816
     10          1           0        3.911698   -0.290405    0.527172
     11          1           0        3.698694   -1.799637   -0.401304
     12          1           0        3.477347   -0.218833   -1.200075
     13          1           0        1.894121    0.946169    1.059729
     14          1           0        1.424749    0.999039   -0.646238
     15          1           0       -0.211127   -0.355245    1.597843
     16          1           0       -1.917278    1.342573    1.056385
     17          1           0       -1.395234    2.666256   -0.882525
     18          1           0       -0.717330   -0.050342   -1.435564
     19          1           0       -3.792524   -2.594481    0.139829
 ---------------------------------------------------------------------

 SCF Done:  E(RB3LYP) =  -423.113507672     A.U. after    1 cycles

 The electronic state is 1-A.
 Alpha  occ. eigenvalues --  -19.15571 -19.13663 -10.24809 -10.22860 -10.22154
 Alpha  occ. eigenvalues --  -10.21011 -10.19934 -10.17809 -10.16651  -1.04171
 Alpha  occ. eigenvalues --   -1.03002  -0.86720  -0.74718  -0.72061  -0.65209
 Alpha  occ. eigenvalues --   -0.62891  -0.58048  -0.54629  -0.52285  -0.49641
 Alpha  occ. eigenvalues --   -0.47949  -0.46375  -0.46056  -0.42611  -0.40335
 Alpha  occ. eigenvalues --   -0.38766  -0.36697  -0.35144  -0.31694  -0.31072
 Alpha  occ. eigenvalues --   -0.29605  -0.25888  -0.25252  -0.23373
 Alpha virt. eigenvalues --    0.05114   0.05210   0.07201   0.09310   0.10864
 Alpha virt. eigenvalues --    0.13078   0.13598   0.14406   0.15565   0.16301
 Alpha virt. eigenvalues --    0.16836   0.18307   0.18966   0.19607   0.21256

 Mulliken charges:
               1
     1  C   -0.223772
     2  O   -0.233079
     3  C   -0.071046
     4  C   -0.073689
     5  C    0.073203
     6  O   -0.414919
     7  C   -0.270984
     8  C    0.313723
     9  C   -0.438655
    10  H    0.102498
    11  H    0.127209
    12  H    0.101903
    13  H    0.090007
    14  H    0.100482
    15  H    0.110193
    16  H    0.104116
    17  H    0.293406
    18  H    0.116737
    19  H    0.192669
 Sum of Mulliken charges =   0.00000

 Dipole moment (field-independent basis, Debye):
    X=             -0.1253    Y=              1.1946    Z=             -0.3727  Tot=              1.2577
 Quadrupole moment (field-independent basis, Debye-Ang):
   XX=            -45.9798   YY=            -53.7666   ZZ=            -51.4473
   XY=             -1.5570   XZ=             -0.4095   YZ=             -2.1456

  Exact polarizability:  99.018  13.245  82.998  -0.796  -1.229  60.756
 Approx polarizability: 128.102  27.198 124.154  -1.684  -3.922  92.401

                      1                      2                      3
                      A                      A                      A
 Frequencies --     61.0693                86.5761                87.8932
 Red. masses --      2.8798                 2.9040                 2.8104
 Frc consts  --      0.0063                 0.0128                 0.0128
 IR Inten    --      0.2603                 3.1430                 0.9286

                      4                      5                      6
                      A                      A                      A
 Frequencies --    154.6796               176.4355               223.9931
 Red. masses --      3.8343                 4.2523                 1.3407
 Frc consts  --      0.0541                 0.0780                 0.0396
 IR Inten    --      1.8101                 0.7878                 1.1023

                      7                      8                      9
                      A                      A                      A
 Frequencies --    257.1067               310.7103               322.6754
 Red. masses --      2.9052                 2.0158                 1.3706
 Frc consts  --      0.1131                 0.1147                 0.0841
 IR Inten    --      2.1598                31.4937                70.0611

                     10                     11                     12
                      A                      A                      A
 Frequencies --    378.9888               442.6690               484.7437
 Red. masses --      3.9245                 3.4845                 5.9557
 Frc consts  --      0.3321                 0.4023                 0.8245
 IR Inten    --     19.2350                 5.9229                 1.9632

                     13                     14                     15
                      A                      A                      A
 Frequencies --    520.8377               574.6550               591.2007
 Red. masses --      4.6970                 1.1890                 4.3742
 Frc consts  --      0.7507                 0.2313                 0.9008
 IR Inten    --      5.2911                51.9937                14.6332

                     16                     17                     18
                      A                      A                      A
 Frequencies --    651.1566               828.2432               873.7595
 Red. masses --      1.2338                 3.9847                 1.9782
 Frc consts  --      0.3082                 1.6105                 0.8898
 IR Inten    --     40.5474                 0.7027                15.4430

                     19                     20                     21
                      A                      A                      A
 Frequencies --    907.5720               966.8232              1001.5396
 Red. masses --      4.4245                 1.4444                 3.1619
 Frc consts  --      2.1472                 0.7955                 1.8687
 IR Inten    --     17.6665                 4.6615                 8.1276

                     22                     23                     24
                      A                      A                      A
 Frequencies --   1044.3875              1084.1726              1107.8079
 Red. masses --      1.6869                 2.2962                 1.5987
 Frc consts  --      1.0841                 1.5902                 1.1560
 IR Inten    --      7.2106                 3.8129                16.8542

                     25                     26                     27
                      A                      A                      A
 Frequencies --   1129.4151              1160.4578              1170.5982
 Red. masses --      2.0734                 3.4120                 1.7503
 Frc consts  --      1.5583                 2.7072                 1.4132
 IR Inten    --     35.0751               115.8369                42.6828

                     28                     29                     30
                      A                      A                      A
 Frequencies --   1190.1582              1223.9754              1229.0715
 Red. masses --      1.4643                 1.7854                 1.6589
 Frc consts  --      1.2220                 1.5759                 1.4764
 IR Inten    --     10.2329                96.3306                30.3057

                     31                     32                     33
                      A                      A                      A
 Frequencies --   1256.0014              1296.7478              1320.4517
 Red. masses --      1.1846                 1.1964                 1.3208
 Frc consts  --      1.1010                 1.1853                 1.3569
 IR Inten    --      5.3196                86.8785                 1.3205

                     34                     35                     36
                      A                      A                      A
 Frequencies --   1363.1721              1426.9165              1475.7680
 Red. masses --      1.3236                 1.4067                 1.5096
 Frc consts  --      1.4492                 1.6875                 1.9371
 IR Inten    --     19.8100                21.5230                13.4173

                     37                     38                     39
                      A                      A                      A
 Frequencies --   1484.0908              1484.4428              1504.5001
 Red. masses --      1.2925                 1.2876                 1.0681
 Frc consts  --      1.6773                 1.6717                 1.4245
 IR Inten    --      5.3231                 7.4617                 8.8866

                     40                     41                     42
                      A                      A                      A
 Frequencies --   1527.6643              2234.6100              2954.3107
 Red. masses --      1.0951                 6.0407                 1.0589
 Frc consts  --      1.5057                17.7723                 5.4452
 IR Inten    --      1.3245                20.7000                34.4055

                     43                     44                     45
                      A                      A                      A
 Frequencies --   2967.7165              3006.8748              3011.0104
 Red. masses --      1.0442                 1.1000                 1.0955
 Frc consts  --      5.4188                 5.8599                 5.8519
 IR Inten    --     89.7619                87.6212                 6.7424

                     46                     47                     48
                      A                      A                      A
 Frequencies --   3114.0173              3114.1158              3147.0459
 Red. masses --      1.0906                 1.0932                 1.0863
 Frc consts  --      6.2312                 6.2463                 6.3389
 IR Inten    --     36.1070                13.7313                 5.0608

                     49                     50                     51
                      A                      A                      A
 Frequencies --   3171.4896              3505.1833              3807.7107
 Red. masses --      1.0885                 1.1597                 1.0662
 Frc consts  --      6.4507                 8.3948                 9.1080
 IR Inten    --      8.3333                83.8468                29.8063

 - Thermochemistry -
 -------------------
 Temperature   298.150 Kelvin.  Pressure   1.00000 Atm.
 Atom     1 has atomic number  6 and mass  12.00000

 Molecular mass:   126.06808 amu.
 Principal axes and moments of inertia in atomic units:
                           1         2         3
     Eigenvalues --   818.359231815.876722472.07604
           X            0.99996  -0.00595  -0.00673
           Y            0.00593   0.99998  -0.00323
           Z            0.00675   0.00319   0.99997
 This molecule is an asymmetric top.
 Rotational symmetry number  1.
 Warning -- assumption of classical behavior for rotation
           may cause significant error
 Rotational temperatures (Kelvin)      0.10584     0.04770     0.03504
 Rotational constants (GHZ):           2.20532     0.99387     0.73005
 Zero-point vibrational energy     409225.8 (Joules/Mol)
                                   97.80732 (Kcal/Mol)
 Warning -- explicit consideration of  15 degrees of freedom as
           vibrations may cause significant error
 Vibrational temperatures:     87.87   124.56   126.46   222.55   253.85
          (Kelvin)            322.28   369.92   447.04   464.26   545.28
                              636.90   697.44   749.37   826.80   850.60
                              936.87  1191.66  1257.14  1305.79  1391.04
                             1440.99  1502.64  1559.88  1593.89  1624.97
                             1669.64  1684.23  1712.37  1761.03  1768.36
                             1807.10  1865.73  1899.83  1961.30  2053.01
                             2123.30  2135.27  2135.78  2164.64  2197.97
                             3215.10  4250.59  4269.88  4326.22  4332.17
                             4480.37  4480.51  4527.89  4563.06  5043.17
                             5478.44

 Zero-point correction=                           0.155866 (Hartree/Particle)
 Thermal correction to Energy=                    0.166108
 Thermal correction to Enthalpy=                  0.167053
 Thermal correction to Gibbs Free Energy=         0.120000
 Sum of electronic and zero-point Energies=           -422.957642
 Sum of electronic and thermal Energies=              -422.947399
 Sum of electronic and thermal Enthalpies=            -422.946455
 Sum of electronic and thermal Free Energies=         -422.993508

                     E (Thermal)             CV                S
                      KCal/Mol        Cal/Mol-Kelvin    Cal/Mol-Kelvin
 Total                  104.235             36.585             99.031
 Electronic               0.000              0.000              0.000
 Translational            0.889              2.981             40.409
 Rotational               0.889              2.981             29.686
 Vibrational            102.457             30.623             28.936
 Vibration     1          0.597              1.973              4.422
 Vibration     2          0.601              1.959              3.736
 Vibration     3          0.601              1.958              3.706
 Vibration     4          0.620              1.897              2.614
 Vibration     5          0.628              1.871              2.366
 Vibration     6          0.649              1.805              1.927
 Vibration     7          0.667              1.751              1.681
 Vibration     8          0.700              1.653              1.359
 Vibration     9          0.708              1.630              1.297
 Vibration    10          0.749              1.515              1.043
 Vibration    11          0.802              1.377              0.818
 Vibration    12          0.841              1.284              0.697
 Vibration    13          0.876              1.204              0.608
 Vibration    14          0.931              1.086              0.495
 Vibration    15          0.949              1.051              0.465

 Normal termination of Gaussian 09 at Tue Jan 28 14:50:30 2020.
