 Gaussian 09, Revision D.01,
 Gaussian 09:  ES64L-G09RevD.01 24-Apr-2013

 -----------------------------
 # b3lyp 6-31G(2df,p) opt Freq
 -----------------------------

 -----
 titel
 -----
 Symbolic Z-matrix:
 Charge =  0 Multiplicity = 1

 SCF Done:  E(RB3LYP) =  -423.098747289     A.U. after   14 cycles
 Optimization completed.
    -- Stationary point found.
 Normal termination of Gaussian 09 at Tue Jan 28 02:55:19 2020.

 ----------------------------------------------------------------------
 #N Geom=AllCheck Guess=TCheck SCRF=Check GenChk RB3LYP/6-31G(2df,p) Fr
 eq
 ----------------------------------------------------------------------

 Structure from the checkpoint file:  "/scratch/puck/g09_a107f066-3dcb-4c3c-a25f-848787bbeae1/Gau-92260.chk"
 -----
 titel
 -----
 Charge =  0 Multiplicity = 1

                         Standard orientation:
 ---------------------------------------------------------------------
 Center     Atomic      Atomic             Coordinates (Angstroms)
 Number     Number       Type             X           Y           Z
 ---------------------------------------------------------------------
      1          6           0        2.522270   -0.706225   -0.342133
      2          6           0        1.515997    0.287110    0.209816
      3          8           0        0.655661   -0.360479    1.234061
      4          6           0       -0.584351   -0.075680    0.630610
      5          6           0       -1.984349   -0.669491    0.544806
      6          8           0       -1.944983   -0.345440   -0.888989
      7          6           0       -0.473665   -0.340289   -0.864465
      8          6           0        0.443489    0.905354   -0.782710
      9          6           0       -0.518551    1.456046    0.293977
     10          1           0        3.173877   -0.210997   -1.070233
     11          1           0        3.148345   -1.090695    0.468155
     12          1           0        2.042623   -1.558011   -0.829313
     13          1           0        2.044848    1.111820    0.700880
     14          1           0       -2.040518   -1.753456    0.702040
     15          1           0       -2.803495   -0.159024    1.059432
     16          1           0       -0.091810   -1.270486   -1.287782
     17          1           0        0.854291    1.483083   -1.613272
     18          1           0       -0.091987    2.092770    1.071432
     19          1           0       -1.446633    1.861389   -0.101327
 ---------------------------------------------------------------------

 SCF Done:  E(RB3LYP) =  -423.098747289     A.U. after    1 cycles

 The electronic state is 1-A.
 Alpha  occ. eigenvalues --  -19.14439 -19.14398 -10.24443 -10.24172 -10.24149
 Alpha  occ. eigenvalues --  -10.22481 -10.20736 -10.18299 -10.18268  -1.06053
 Alpha  occ. eigenvalues --   -1.02279  -0.82857  -0.76647  -0.70534  -0.66706
 Alpha  occ. eigenvalues --   -0.63708  -0.56771  -0.53609  -0.51457  -0.50290
 Alpha  occ. eigenvalues --   -0.46485  -0.45701  -0.42641  -0.41591  -0.40402
 Alpha  occ. eigenvalues --   -0.37590  -0.36978  -0.36479  -0.34106  -0.33417
 Alpha  occ. eigenvalues --   -0.32116  -0.28235  -0.25818  -0.23600
 Alpha virt. eigenvalues --    0.05219   0.08697   0.10965   0.11151   0.12393
 Alpha virt. eigenvalues --    0.13767   0.14124   0.15039   0.15411   0.16185
 Alpha virt. eigenvalues --    0.16873   0.18715   0.19037   0.19930   0.21885

 Mulliken charges:
               1
     1  C   -0.411991
     2  C    0.132789
     3  O   -0.364555
     4  C    0.398316
     5  C   -0.181329
     6  O   -0.309403
     7  C    0.097620
     8  C   -0.151173
     9  C   -0.279188
    10  H    0.118349
    11  H    0.132704
    12  H    0.128309
    13  H    0.089583
    14  H    0.114975
    15  H    0.114980
    16  H    0.078839
    17  H    0.072649
    18  H    0.096632
    19  H    0.121895
 Sum of Mulliken charges =   0.00000

 Dipole moment (field-independent basis, Debye):
    X=              1.1110    Y=              0.4725    Z=             -0.0369  Tot=              1.2079
 Quadrupole moment (field-independent basis, Debye-Ang):
   XX=            -52.1945   YY=            -51.7029   ZZ=            -56.1862
   XY=              1.0007   XZ=             -5.3220   YZ=              0.5497

  Exact polarizability:  89.063   1.899  70.939  -5.177   0.838  64.212
 Approx polarizability: 120.832   3.868 105.001  -3.091  -0.308 105.295

                      1                      2                      3
                      A                      A                      A
 Frequencies --    173.9918               206.1611               255.0627
 Red. masses --      1.9838                 1.2838                 2.6401
 Frc consts  --      0.0354                 0.0321                 0.1012
 IR Inten    --      0.4232                 0.0674                 1.2766

                      4                      5                      6
                      A                      A                      A
 Frequencies --    347.4510               362.3243               417.8063
 Red. masses --      2.4463                 4.5832                 2.8773
 Frc consts  --      0.1740                 0.3545                 0.2959
 IR Inten    --      5.5891                 9.1863                 2.2758

                      7                      8                      9
                      A                      A                      A
 Frequencies --    488.2805               505.6360               583.3767
 Red. masses --      3.0146                 2.8874                 4.0185
 Frc consts  --      0.4235                 0.4350                 0.8058
 IR Inten    --      1.8199                 2.8217                 4.0754

                     10                     11                     12
                      A                      A                      A
 Frequencies --    686.6624               732.0160               766.9702
 Red. masses --      4.0498                 3.4864                 2.4461
 Frc consts  --      1.1250                 1.1007                 0.8478
 IR Inten    --      4.7349                 6.8567                 1.8173

                     13                     14                     15
                      A                      A                      A
 Frequencies --    794.2984               856.8864               882.3399
 Red. masses --      4.5590                 3.3970                 2.3858
 Frc consts  --      1.6947                 1.4696                 1.0943
 IR Inten    --     44.9852                10.6295                 3.5300

                     16                     17                     18
                      A                      A                      A
 Frequencies --    897.9704               912.0381               952.3183
 Red. masses --      2.9145                 3.0840                 2.4765
 Frc consts  --      1.3847                 1.5114                 1.3233
 IR Inten    --      9.2530                53.9730                14.4470

                     19                     20                     21
                      A                      A                      A
 Frequencies --    989.8266              1016.6752              1032.4144
 Red. masses --      3.1894                 1.7696                 1.5528
 Frc consts  --      1.8411                 1.0777                 0.9752
 IR Inten    --     17.8045                17.7865                12.2066

                     22                     23                     24
                      A                      A                      A
 Frequencies --   1052.6156              1075.3551              1079.8323
 Red. masses --      1.4689                 1.8552                 1.8012
 Frc consts  --      0.9589                 1.2640                 1.2374
 IR Inten    --      8.3027                 3.6714                 8.2735

                     25                     26                     27
                      A                      A                      A
 Frequencies --   1118.2349              1140.5126              1151.9562
 Red. masses --      1.8881                 1.8249                 1.4984
 Frc consts  --      1.3910                 1.3986                 1.1715
 IR Inten    --      2.1073                 6.0038                12.1208

                     28                     29                     30
                      A                      A                      A
 Frequencies --   1187.6699              1228.7771              1234.4380
 Red. masses --      1.6136                 1.8189                 1.6512
 Frc consts  --      1.3411                 1.6181                 1.4825
 IR Inten    --      3.2410                 0.7265                28.8488

                     31                     32                     33
                      A                      A                      A
 Frequencies --   1247.1048              1284.3682              1311.0714
 Red. masses --      1.7675                 2.0459                 1.5477
 Frc consts  --      1.6197                 1.9885                 1.5675
 IR Inten    --     29.4347                11.9020                 1.2714

                     34                     35                     36
                      A                      A                      A
 Frequencies --   1333.6080              1352.0016              1387.3256
 Red. masses --      1.6368                 1.4717                 1.4206
 Frc consts  --      1.7152                 1.5850                 1.6109
 IR Inten    --     35.5411                10.3146                 3.2886

                     37                     38                     39
                      A                      A                      A
 Frequencies --   1409.7152              1481.4098              1488.3780
 Red. masses --      1.2976                 1.0618                 1.1163
 Frc consts  --      1.5193                 1.3729                 1.4569
 IR Inten    --     11.4889                 1.7228                 6.2969

                     40                     41                     42
                      A                      A                      A
 Frequencies --   1498.9291              1508.9558              3027.8160
 Red. masses --      1.0499                 1.1161                 1.0571
 Frc consts  --      1.3899                 1.4972                 5.7098
 IR Inten    --      3.1263                 1.3032                68.9317

                     43                     44                     45
                      A                      A                      A
 Frequencies --   3038.6473              3043.5700              3081.4516
 Red. masses --      1.0759                 1.0464                 1.0636
 Frc consts  --      5.8529                 5.7112                 5.9501
 IR Inten    --     20.9043                17.0058                23.4301

                     46                     47                     48
                      A                      A                      A
 Frequencies --   3089.5428              3096.4872              3100.3126
 Red. masses --      1.0827                 1.1089                 1.0915
 Frc consts  --      6.0888                 6.2646                 6.1813
 IR Inten    --     47.7039                34.6641                33.8701

                     49                     50                     51
                      A                      A                      A
 Frequencies --   3110.9638              3130.5120              3171.7298
 Red. masses --      1.0997                 1.1003                 1.1062
 Frc consts  --      6.2709                 6.3533                 6.5568
 IR Inten    --     18.7971                26.0335                10.9203

 - Thermochemistry -
 -------------------
 Temperature   298.150 Kelvin.  Pressure   1.00000 Atm.
 Atom     1 has atomic number  6 and mass  12.00000

 Molecular mass:   126.06808 amu.
 Principal axes and moments of inertia in atomic units:
                           1         2         3
     Eigenvalues --   524.315471236.264201249.45081
           X            0.99919  -0.02416  -0.03233
           Y            0.01181  -0.59081   0.80672
           Z            0.03859   0.80645   0.59005
 This molecule is an asymmetric top.
 Rotational symmetry number  1.
 Warning -- assumption of classical behavior for rotation
           may cause significant error
 Rotational temperatures (Kelvin)      0.16519     0.07006     0.06932
 Rotational constants (GHZ):           3.44209     1.45983     1.44443
 Zero-point vibrational energy     420629.7 (Joules/Mol)
                                  100.53292 (Kcal/Mol)
 Warning -- explicit consideration of   9 degrees of freedom as
           vibrations may cause significant error
 Vibrational temperatures:    250.34   296.62   366.98   499.90   521.30
          (Kelvin)            601.13   702.53   727.50   839.35   987.95
                             1053.21  1103.50  1142.82  1232.87  1269.49
                             1291.98  1312.22  1370.17  1424.14  1462.77
                             1485.41  1514.48  1547.19  1553.64  1608.89
                             1640.94  1657.41  1708.79  1767.93  1776.08
                             1794.30  1847.92  1886.34  1918.76  1945.23
                             1996.05  2028.26  2131.42  2141.44  2156.62
                             2171.05  4356.35  4371.93  4379.01  4433.52
                             4445.16  4455.15  4460.65  4475.98  4504.10
                             4563.41

 Zero-point correction=                           0.160209 (Hartree/Particle)
 Thermal correction to Energy=                    0.167353
 Thermal correction to Enthalpy=                  0.168297
 Thermal correction to Gibbs Free Energy=         0.129109
 Sum of electronic and zero-point Energies=           -422.938538
 Sum of electronic and thermal Energies=              -422.931395
 Sum of electronic and thermal Enthalpies=            -422.930451
 Sum of electronic and thermal Free Energies=         -422.969638

                     E (Thermal)             CV                S
                      KCal/Mol        Cal/Mol-Kelvin    Cal/Mol-Kelvin
 Total                  105.015             29.659             82.477
 Electronic               0.000              0.000              0.000
 Translational            0.889              2.981             40.409
 Rotational               0.889              2.981             28.184
 Vibrational            103.238             23.697             13.884
 Vibration     1          0.627              1.874              2.392
 Vibration     2          0.641              1.831              2.077
 Vibration     3          0.665              1.754              1.695
 Vibration     4          0.725              1.580              1.178
 Vibration     5          0.736              1.550              1.112
 Vibration     6          0.781              1.432              0.899
 Vibration     7          0.844              1.276              0.688
 Vibration     8          0.861              1.238              0.644
 Vibration     9          0.940              1.067              0.479

 Optimization completed.
    -- Stationary point found.
 Normal termination of Gaussian 09 at Tue Jan 28 03:45:02 2020.
