 Gaussian 09, Revision D.01,
 Gaussian 09:  ES64L-G09RevD.01 24-Apr-2013

 -----------------------------
 # b3lyp 6-31G(2df,p) opt Freq
 -----------------------------

 -----
 titel
 -----
 Symbolic Z-matrix:
 Charge =  0 Multiplicity = 1

 SCF Done:  E(RB3LYP) =  -423.195890225     A.U. after   14 cycles
 SCF Done:  E(RB3LYP) =  -423.195890216     A.U. after    7 cycles
 SCF Done:  E(RB3LYP) =  -423.195889919     A.U. after    7 cycles
 SCF Done:  E(RB3LYP) =  -423.195890352     A.U. after    7 cycles
 Optimization completed.
    -- Stationary point found.
 Normal termination of Gaussian 09 at Mon Jan 27 23:13:51 2020.

 ----------------------------------------------------------------------
 #N Geom=AllCheck Guess=TCheck SCRF=Check GenChk RB3LYP/6-31G(2df,p) Fr
 eq
 ----------------------------------------------------------------------

 Structure from the checkpoint file:  "/scratch/puck/g09_5e07517a-275c-4a29-8b65-863fa4c9fe1d/Gau-191733.chk"
 -----
 titel
 -----
 Charge =  0 Multiplicity = 1

                         Standard orientation:
 ---------------------------------------------------------------------
 Center     Atomic      Atomic             Coordinates (Angstroms)
 Number     Number       Type             X           Y           Z
 ---------------------------------------------------------------------
      1          6           0       -0.056510    2.124655    0.223744
      2          6           0        0.015358    0.622507    0.193553
      3          6           0       -0.432185   -0.316911    1.374724
      4          6           0       -0.498792   -1.403847    0.263833
      5          6           0        0.986435   -1.545734   -0.116346
      6          6           0        1.332785   -0.041141   -0.170516
      7          8           0        2.377404    0.478875   -0.461631
      8          6           0       -0.949784   -0.272126   -0.705863
      9          8           0       -2.301365    0.096838   -0.715088
     10          1           0        0.471460    2.528165    1.093619
     11          1           0        0.412863    2.547975   -0.669661
     12          1           0       -1.096197    2.464257    0.260800
     13          1           0        0.267690   -0.465934    2.202170
     14          1           0       -1.404197   -0.034652    1.787981
     15          1           0       -1.084818   -2.315420    0.378904
     16          1           0        1.583734   -2.068469    0.637131
     17          1           0        1.162511   -2.023641   -1.085293
     18          1           0       -0.672632   -0.380788   -1.758609
     19          1           0       -2.632563    0.138383    0.187935
 ---------------------------------------------------------------------

 SCF Done:  E(RB3LYP) =  -423.195890352     A.U. after    1 cycles

 The electronic state is 1-A.
 Alpha  occ. eigenvalues --  -19.15461 -19.12941 -10.26478 -10.24843 -10.20536
 Alpha  occ. eigenvalues --  -10.20512 -10.20410 -10.19551 -10.17842  -1.04257
 Alpha  occ. eigenvalues --   -1.03756  -0.89443  -0.75329  -0.70728  -0.67731
 Alpha  occ. eigenvalues --   -0.64664  -0.58044  -0.52842  -0.49549  -0.48533
 Alpha  occ. eigenvalues --   -0.47340  -0.43686  -0.42275  -0.41967  -0.40164
 Alpha  occ. eigenvalues --   -0.39078  -0.37641  -0.37503  -0.36399  -0.35842
 Alpha  occ. eigenvalues --   -0.32395  -0.31071  -0.27009  -0.23300
 Alpha virt. eigenvalues --   -0.01056   0.06204   0.09582   0.10283   0.12186
 Alpha virt. eigenvalues --    0.12944   0.14904   0.15093   0.15575   0.16238
 Alpha virt. eigenvalues --    0.17116   0.18773   0.20463   0.21495   0.22414

 Mulliken charges:
               1
     1  C   -0.506134
     2  C    0.181927
     3  C   -0.314683
     4  C   -0.074879
     5  C   -0.339204
     6  C    0.407316
     7  O   -0.340606
     8  C    0.142125
     9  O   -0.445716
    10  H    0.126471
    11  H    0.136218
    12  H    0.114842
    13  H    0.108647
    14  H    0.095648
    15  H    0.075464
    16  H    0.127912
    17  H    0.127370
    18  H    0.091849
    19  H    0.285433
 Sum of Mulliken charges =   0.00000

 Dipole moment (field-independent basis, Debye):
    X=             -1.9712    Y=             -1.3344    Z=              1.8920  Tot=              3.0407
 Quadrupole moment (field-independent basis, Debye-Ang):
   XX=            -61.5014   YY=            -51.8372   ZZ=            -52.0716
   XY=             -2.5621   XZ=             -2.1864   YZ=              0.9318

  Exact polarizability:  80.332  -0.115  78.072  -2.823   0.219  67.094
 Approx polarizability: 124.675   4.169 108.210  -4.757  -1.046 105.053

                      1                      2                      3
                      A                      A                      A
 Frequencies --    119.4221               151.4994               212.7478
 Red. masses --      3.2814                 1.1891                 2.8701
 Frc consts  --      0.0276                 0.0161                 0.0765
 IR Inten    --      3.5960                 1.0034                 1.1895

                      4                      5                      6
                      A                      A                      A
 Frequencies --    231.9948               257.4883               297.7029
 Red. masses --      1.2642                 3.2142                 2.2777
 Frc consts  --      0.0401                 0.1256                 0.1189
 IR Inten    --     50.8754                10.9300                21.1627

                      7                      8                      9
                      A                      A                      A
 Frequencies --    362.4470               423.0856               482.8819
 Red. masses --      3.3769                 2.0776                 3.8692
 Frc consts  --      0.2614                 0.2191                 0.5316
 IR Inten    --     20.3513                 1.2039                 3.4734

                     10                     11                     12
                      A                      A                      A
 Frequencies --    540.1298               598.7354               611.9252
 Red. masses --      4.4733                 3.4998                 2.5131
 Frc consts  --      0.7689                 0.7392                 0.5544
 IR Inten    --      1.2603                 8.0616                 3.4419

                     13                     14                     15
                      A                      A                      A
 Frequencies --    650.4724               749.2542               818.5869
 Red. masses --      3.7471                 2.9437                 2.6694
 Frc consts  --      0.9341                 0.9737                 1.0539
 IR Inten    --      1.7944                15.1642                 5.8817

                     16                     17                     18
                      A                      A                      A
 Frequencies --    855.9144               864.9136               909.8253
 Red. masses --      2.8062                 2.4446                 1.8598
 Frc consts  --      1.2112                 1.0775                 0.9070
 IR Inten    --     19.3302                 3.1772                 2.8008

                     19                     20                     21
                      A                      A                      A
 Frequencies --    964.6896               984.1651               999.1782
 Red. masses --      1.9574                 1.9064                 1.8488
 Frc consts  --      1.0733                 1.0879                 1.0875
 IR Inten    --      0.1784                 1.7880                13.0019

                     22                     23                     24
                      A                      A                      A
 Frequencies --   1024.3085              1066.9860              1082.8002
 Red. masses --      1.6929                 1.6296                 1.6012
 Frc consts  --      1.0465                 1.0930                 1.1061
 IR Inten    --     16.6214                 8.8767                34.5678

                     25                     26                     27
                      A                      A                      A
 Frequencies --   1105.3665              1159.2015              1178.4953
 Red. masses --      2.0227                 1.7115                 2.0677
 Frc consts  --      1.4561                 1.3550                 1.6920
 IR Inten    --     25.8580                74.4543                39.2630

                     28                     29                     30
                      A                      A                      A
 Frequencies --   1190.0750              1220.5196              1245.0412
 Red. masses --      1.6582                 1.4935                 1.7438
 Frc consts  --      1.3837                 1.3108                 1.5926
 IR Inten    --      8.8443                 4.4554                 2.3384

                     31                     32                     33
                      A                      A                      A
 Frequencies --   1258.2197              1285.1130              1303.0352
 Red. masses --      1.7423                 1.5620                 1.6462
 Frc consts  --      1.6251                 1.5199                 1.6468
 IR Inten    --     12.1431                10.1838                 7.8688

                     34                     35                     36
                      A                      A                      A
 Frequencies --   1351.0980              1414.3434              1444.4133
 Red. masses --      3.3763                 1.4076                 1.1802
 Frc consts  --      3.6313                 1.6589                 1.4508
 IR Inten    --      3.8850                 2.2301                43.0285

                     37                     38                     39
                      A                      A                      A
 Frequencies --   1461.7322              1487.1003              1487.7812
 Red. masses --      1.1206                 1.0475                 1.0462
 Frc consts  --      1.4107                 1.3649                 1.3644
 IR Inten    --     25.8868                 4.0443                 8.6512

                     40                     41                     42
                      A                      A                      A
 Frequencies --   1524.1646              1859.8586              3037.5939
 Red. masses --      1.1092                12.6316                 1.0351
 Frc consts  --      1.5181                25.7436                 5.6271
 IR Inten    --      2.5924               242.4200                21.7560

                     43                     44                     45
                      A                      A                      A
 Frequencies --   3054.1060              3055.2226              3070.3009
 Red. masses --      1.0589                 1.0577                 1.0864
 Frc consts  --      5.8194                 5.8168                 6.0340
 IR Inten    --     19.1279                28.2308                27.3861

                     46                     47                     48
                      A                      A                      A
 Frequencies --   3101.1531              3103.4860              3106.4379
 Red. masses --      1.1049                 1.1078                 1.1011
 Frc consts  --      6.2608                 6.2866                 6.2604
 IR Inten    --      8.1333                23.5363                18.8293

                     49                     50                     51
                      A                      A                      A
 Frequencies --   3110.8042              3118.7127              3816.7198
 Red. masses --      1.1012                 1.0907                 1.0651
 Frc consts  --      6.2787                 6.2502                 9.1418
 IR Inten    --     13.3311                36.6710                15.3104

 - Thermochemistry -
 -------------------
 Temperature   298.150 Kelvin.  Pressure   1.00000 Atm.
 Atom     1 has atomic number  6 and mass  12.00000

 Molecular mass:   126.06808 amu.
 Principal axes and moments of inertia in atomic units:
                           1         2         3
     Eigenvalues --   741.095611063.280521395.43563
           X            0.99909  -0.04109  -0.01120
           Y            0.04125   0.99904   0.01448
           Z            0.01059  -0.01493   0.99983
 This molecule is an asymmetric top.
 Rotational symmetry number  1.
 Warning -- assumption of classical behavior for rotation
           may cause significant error
 Rotational temperatures (Kelvin)      0.11687     0.08146     0.06207
 Rotational constants (GHZ):           2.43523     1.69733     1.29332
 Zero-point vibrational energy     417564.0 (Joules/Mol)
                                   99.80019 (Kcal/Mol)
 Warning -- explicit consideration of  12 degrees of freedom as
           vibrations may cause significant error
 Vibrational temperatures:    171.82   217.97   306.10   333.79   370.47
          (Kelvin)            428.33   521.48   608.73   694.76   777.13
                              861.45   880.42   935.88  1078.01  1177.76
                             1231.47  1244.42  1309.03  1387.97  1415.99
                             1437.59  1473.75  1535.15  1557.91  1590.37
                             1667.83  1695.59  1712.25  1756.05  1791.33
                             1810.30  1848.99  1874.77  1943.93  2034.92
                             2078.19  2103.10  2139.60  2140.58  2192.93
                             2675.92  4370.41  4394.17  4395.78  4417.47
                             4461.86  4465.22  4469.47  4475.75  4487.13
                             5491.40

 Zero-point correction=                           0.159042 (Hartree/Particle)
 Thermal correction to Energy=                    0.167424
 Thermal correction to Enthalpy=                  0.168368
 Thermal correction to Gibbs Free Energy=         0.126528
 Sum of electronic and zero-point Energies=           -423.036849
 Sum of electronic and thermal Energies=              -423.028467
 Sum of electronic and thermal Enthalpies=            -423.027523
 Sum of electronic and thermal Free Energies=         -423.069363

                     E (Thermal)             CV                S
                      KCal/Mol        Cal/Mol-Kelvin    Cal/Mol-Kelvin
 Total                  105.060             32.758             88.060
 Electronic               0.000              0.000              0.000
 Translational            0.889              2.981             40.409
 Rotational               0.889              2.981             28.488
 Vibrational            103.282             26.796             19.163
 Vibration     1          0.609              1.933              3.110
 Vibration     2          0.619              1.901              2.653
 Vibration     3          0.644              1.821              2.020
 Vibration     4          0.653              1.792              1.863
 Vibration     5          0.667              1.750              1.679
 Vibration     6          0.691              1.678              1.430
 Vibration     7          0.736              1.550              1.112
 Vibration     8          0.785              1.420              0.882
 Vibration     9          0.839              1.288              0.702
 Vibration    10          0.895              1.161              0.565
 Vibration    11          0.957              1.034              0.452
 Vibration    12          0.971              1.007              0.430

 Optimization completed.
    -- Stationary point found.
 Normal termination of Gaussian 09 at Mon Jan 27 23:59:37 2020.
