 Gaussian 09, Revision D.01,
 Gaussian 09:  ES64L-G09RevD.01 24-Apr-2013

 -----------------------------
 # b3lyp 6-31G(2df,p) opt Freq
 -----------------------------

 -----
 titel
 -----
 Symbolic Z-matrix:
 Charge =  0 Multiplicity = 1

 SCF Done:  E(RB3LYP) =  -423.156379017     A.U. after   14 cycles
 Optimization completed.
    -- Stationary point found.
 Normal termination of Gaussian 09 at Mon Jan 27 23:06:23 2020.

 ----------------------------------------------------------------------
 #N Geom=AllCheck Guess=TCheck SCRF=Check GenChk RB3LYP/6-31G(2df,p) Fr
 eq
 ----------------------------------------------------------------------

 Structure from the checkpoint file:  "/scratch/puck/g09_f14a996a-d379-4568-9678-dc5241c03e0a/Gau-103128.chk"
 -----
 titel
 -----
 Charge =  0 Multiplicity = 1

                         Standard orientation:
 ---------------------------------------------------------------------
 Center     Atomic      Atomic             Coordinates (Angstroms)
 Number     Number       Type             X           Y           Z
 ---------------------------------------------------------------------
      1          6           0        2.268718   -0.632461   -0.272441
      2          6           0        1.016818   -0.464348    0.595438
      3          6           0        0.581789    1.002121    0.695362
      4          8           0        0.405739    1.725181   -0.532413
      5          6           0       -0.756818    1.343923    0.190906
      6          6           0       -1.532443    0.141493   -0.347691
      7          6           0       -1.511304   -0.956442    0.740108
      8          6           0       -0.164599   -1.289258    0.055032
      9          8           0       -0.650664   -0.659728   -1.166565
     10          1           0        2.593669   -1.677898   -0.293193
     11          1           0        2.052388   -0.311643   -1.294046
     12          1           0        3.097897   -0.028229    0.108728
     13          1           0        1.229153   -0.809236    1.617260
     14          1           0        1.035789    1.594545    1.488915
     15          1           0       -1.334224    2.157139    0.629900
     16          1           0       -2.461235    0.402183   -0.860678
     17          1           0       -1.507963   -0.649225    1.789028
     18          1           0       -2.258635   -1.731890    0.567037
     19          1           0        0.099598   -2.339544   -0.101419
 ---------------------------------------------------------------------

 SCF Done:  E(RB3LYP) =  -423.156379017     A.U. after    1 cycles

 The electronic state is 1-A.
 Alpha  occ. eigenvalues --  -19.14822 -19.13369 -10.24049 -10.23797 -10.23464
 Alpha  occ. eigenvalues --  -10.23406 -10.19492 -10.19300 -10.17164  -1.07685
 Alpha  occ. eigenvalues --   -1.03726  -0.79670  -0.75656  -0.70071  -0.66875
 Alpha  occ. eigenvalues --   -0.62132  -0.59176  -0.53629  -0.51920  -0.48388
 Alpha  occ. eigenvalues --   -0.47485  -0.44528  -0.43373  -0.41504  -0.39525
 Alpha  occ. eigenvalues --   -0.38885  -0.37364  -0.36183  -0.34635  -0.33328
 Alpha  occ. eigenvalues --   -0.30946  -0.28301  -0.26396  -0.24561
 Alpha virt. eigenvalues --    0.07374   0.08678   0.10132   0.11348   0.12451
 Alpha virt. eigenvalues --    0.13244   0.14579   0.15371   0.15704   0.16472
 Alpha virt. eigenvalues --    0.17345   0.18562   0.18858   0.19444   0.21616

 Mulliken charges:
               1
     1  C   -0.400975
     2  C   -0.017781
     3  C    0.029806
     4  O   -0.239271
     5  C    0.041723
     6  C    0.044474
     7  C   -0.267616
     8  C    0.088483
     9  O   -0.278199
    10  H    0.108088
    11  H    0.152781
    12  H    0.112934
    13  H    0.073128
    14  H    0.091816
    15  H    0.091121
    16  H    0.080997
    17  H    0.099530
    18  H    0.113255
    19  H    0.075708
 Sum of Mulliken charges =   0.00000

 Dipole moment (field-independent basis, Debye):
    X=             -0.8459    Y=             -0.8530    Z=              2.7652  Tot=              3.0148
 Quadrupole moment (field-independent basis, Debye-Ang):
   XX=            -49.7038   YY=            -53.4044   ZZ=            -55.2892
   XY=             -2.2217   XZ=              0.5241   YZ=              1.0958

  Exact polarizability:  82.668  -2.906  73.761   1.463   0.340  63.334
 Approx polarizability: 112.764  -4.258 105.977   2.575  -2.843 104.799

                      1                      2                      3
                      A                      A                      A
 Frequencies --    152.4211               216.8216               239.1187
 Red. masses --      3.2389                 1.3941                 1.8525
 Frc consts  --      0.0443                 0.0386                 0.0624
 IR Inten    --      2.3535                 1.1279                 0.4987

                      4                      5                      6
                      A                      A                      A
 Frequencies --    303.2946               376.1199               403.2917
 Red. masses --      3.6716                 2.7999                 3.8400
 Frc consts  --      0.1990                 0.2334                 0.3680
 IR Inten    --      1.0678                 0.6389                 0.6065

                      7                      8                      9
                      A                      A                      A
 Frequencies --    461.3033               521.7081               652.0667
 Red. masses --      4.2221                 4.1654                 4.5089
 Frc consts  --      0.5294                 0.6680                 1.1295
 IR Inten    --      3.0981                 8.0812                13.8931

                     10                     11                     12
                      A                      A                      A
 Frequencies --    691.1486               748.2020               801.7680
 Red. masses --      3.1852                 2.7681                 2.8637
 Frc consts  --      0.8965                 0.9130                 1.0846
 IR Inten    --      2.0730                 0.3156                10.1266

                     13                     14                     15
                      A                      A                      A
 Frequencies --    852.8113               881.7638               914.3562
 Red. masses --      2.2639                 2.5167                 2.9536
 Frc consts  --      0.9701                 1.1529                 1.4549
 IR Inten    --      5.1422                 7.9463                32.9567

                     16                     17                     18
                      A                      A                      A
 Frequencies --    930.9133               936.4114               953.3427
 Red. masses --      2.8360                 2.4721                 3.4540
 Frc consts  --      1.4480                 1.2772                 1.8496
 IR Inten    --      5.2749                11.7950                21.2106

                     19                     20                     21
                      A                      A                      A
 Frequencies --    972.8279              1020.2860              1029.0749
 Red. masses --      3.8187                 1.8897                 1.6444
 Frc consts  --      2.1293                 1.1590                 1.0260
 IR Inten    --     30.6619                13.1778                 6.9906

                     22                     23                     24
                      A                      A                      A
 Frequencies --   1056.9145              1075.5010              1108.9169
 Red. masses --      1.4164                 1.6697                 2.6109
 Frc consts  --      0.9322                 1.1379                 1.8916
 IR Inten    --      0.9407                 0.7311                 3.9267

                     25                     26                     27
                      A                      A                      A
 Frequencies --   1130.7405              1142.7976              1146.2502
 Red. masses --      1.8643                 1.3339                 1.4712
 Frc consts  --      1.4044                 1.0264                 1.1389
 IR Inten    --      2.3137                 1.6840                 0.4522

                     28                     29                     30
                      A                      A                      A
 Frequencies --   1215.2233              1248.1849              1271.2577
 Red. masses --      1.5316                 1.3944                 1.3622
 Frc consts  --      1.3326                 1.2799                 1.2971
 IR Inten    --      8.4118                 3.1198                 3.5529

                     31                     32                     33
                      A                      A                      A
 Frequencies --   1294.1258              1303.0907              1335.4669
 Red. masses --      1.5856                 1.3950                 1.3890
 Frc consts  --      1.5646                 1.3957                 1.4596
 IR Inten    --      3.8813                 3.2911                 2.3232

                     34                     35                     36
                      A                      A                      A
 Frequencies --   1339.4873              1353.1655              1381.1009
 Red. masses --      1.6339                 1.5200                 1.4906
 Frc consts  --      1.7272                 1.6398                 1.6752
 IR Inten    --      1.9275                 1.0779                 1.7000

                     37                     38                     39
                      A                      A                      A
 Frequencies --   1404.2798              1453.7640              1487.7672
 Red. masses --      1.2480                 2.7529                 1.1501
 Frc consts  --      1.4500                 3.4279                 1.4998
 IR Inten    --      5.4731                 8.8397                 3.3276

                     40                     41                     42
                      A                      A                      A
 Frequencies --   1493.3790              1505.4752              3011.7610
 Red. masses --      1.0615                 1.0563                 1.0822
 Frc consts  --      1.3947                 1.4106                 5.7837
 IR Inten    --      7.6484                 4.6664                20.6104

                     43                     44                     45
                      A                      A                      A
 Frequencies --   3038.2978              3061.7851              3069.2491
 Red. masses --      1.0365                 1.0757                 1.0714
 Frc consts  --      5.6376                 5.9412                 5.9466
 IR Inten    --     24.5909                40.7143                47.6328

                     46                     47                     48
                      A                      A                      A
 Frequencies --   3083.5051              3102.3960              3109.2091
 Red. masses --      1.0886                 1.1015                 1.0858
 Frc consts  --      6.0985                 6.2467                 6.1847
 IR Inten    --     31.8785                26.6548                29.1838

                     49                     50                     51
                      A                      A                      A
 Frequencies --   3121.3666              3133.2091              3135.2321
 Red. masses --      1.0934                 1.1004                 1.1072
 Frc consts  --      6.2764                 6.3648                 6.4125
 IR Inten    --     46.8353                 9.6854                25.6175

 - Thermochemistry -
 -------------------
 Temperature   298.150 Kelvin.  Pressure   1.00000 Atm.
 Atom     1 has atomic number  6 and mass  12.00000

 Molecular mass:   126.06808 amu.
 Principal axes and moments of inertia in atomic units:
                           1         2         3
     Eigenvalues --   726.30235 879.642261199.14113
           X            0.99623  -0.08509  -0.01672
           Y            0.08529   0.99629   0.01136
           Z            0.01569  -0.01274   0.99980
 This molecule is an asymmetric top.
 Rotational symmetry number  1.
 Warning -- assumption of classical behavior for rotation
           may cause significant error
 Rotational temperatures (Kelvin)      0.11925     0.09846     0.07223
 Rotational constants (GHZ):           2.48483     2.05168     1.50503
 Zero-point vibrational energy     422712.1 (Joules/Mol)
                                  101.03063 (Kcal/Mol)
 Warning -- explicit consideration of   8 degrees of freedom as
           vibrations may cause significant error
 Vibrational temperatures:    219.30   311.96   344.04   436.37   541.15
          (Kelvin)            580.25   663.71   750.62   938.18   994.41
                             1076.49  1153.56  1227.00  1268.66  1315.55
                             1339.37  1347.29  1371.65  1399.68  1467.96
                             1480.61  1520.66  1547.40  1595.48  1626.88
                             1644.23  1649.20  1748.43  1795.86  1829.05
                             1861.96  1874.85  1921.44  1927.22  1946.90
                             1987.09  2020.44  2091.64  2140.56  2148.64
                             2166.04  4333.25  4371.43  4405.22  4415.96
                             4436.47  4463.65  4473.45  4490.94  4507.98
                             4510.89

 Zero-point correction=                           0.161003 (Hartree/Particle)
 Thermal correction to Energy=                    0.168146
 Thermal correction to Enthalpy=                  0.169091
 Thermal correction to Gibbs Free Energy=         0.129821
 Sum of electronic and zero-point Energies=           -422.995376
 Sum of electronic and thermal Energies=              -422.988233
 Sum of electronic and thermal Enthalpies=            -422.987288
 Sum of electronic and thermal Free Energies=         -423.026558

                     E (Thermal)             CV                S
                      KCal/Mol        Cal/Mol-Kelvin    Cal/Mol-Kelvin
 Total                  105.514             29.218             82.649
 Electronic               0.000              0.000              0.000
 Translational            0.889              2.981             40.409
 Rotational               0.889              2.981             28.129
 Vibrational            103.736             23.256             14.112
 Vibration     1          0.619              1.900              2.642
 Vibration     2          0.646              1.815              1.985
 Vibration     3          0.657              1.781              1.809
 Vibration     4          0.695              1.667              1.399
 Vibration     5          0.747              1.521              1.055
 Vibration     6          0.769              1.463              0.951
 Vibration     7          0.819              1.336              0.762
 Vibration     8          0.877              1.202              0.606

 Optimization completed.
    -- Stationary point found.
 Normal termination of Gaussian 09 at Mon Jan 27 23:53:53 2020.
