 Gaussian 09, Revision D.01,
 Gaussian 09:  ES64L-G09RevD.01 24-Apr-2013

 -----------------------------
 # b3lyp 6-31G(2df,p) opt Freq
 -----------------------------

 -----
 titel
 -----
 Symbolic Z-matrix:
 Charge =  0 Multiplicity = 1

 SCF Done:  E(RB3LYP) =  -423.192918920     A.U. after   13 cycles
 Optimization completed.
    -- Stationary point found.
 Normal termination of Gaussian 09 at Mon Jan 27 12:48:17 2020.

 ----------------------------------------------------------------------
 #N Geom=AllCheck Guess=TCheck SCRF=Check GenChk RB3LYP/6-31G(2df,p) Fr
 eq
 ----------------------------------------------------------------------

 Structure from the checkpoint file:  "/scratch/puck/g09_3b46cf51-ae8f-474a-bd33-8f03e4c9b9a7/Gau-99342.chk"
 -----
 titel
 -----
 Charge =  0 Multiplicity = 1

                         Standard orientation:
 ---------------------------------------------------------------------
 Center     Atomic      Atomic             Coordinates (Angstroms)
 Number     Number       Type             X           Y           Z
 ---------------------------------------------------------------------
      1          6           0        2.155460   -0.693814    0.299898
      2          6           0        0.893736   -0.477687    1.133790
      3          6           0       -0.065049    0.153596    0.097465
      4          6           0        0.930447    0.873825   -0.860602
      5          8           0        2.247823    0.477282   -0.503444
      6          8           0       -0.758910   -0.881721   -0.623482
      7          6           0       -2.167988   -0.746800   -0.468070
      8          6           0       -2.353892    0.506025    0.339805
      9          6           0       -1.166905    1.007863    0.657305
     10          1           0        3.075736   -0.771257    0.884779
     11          1           0        2.056235   -1.595781   -0.324017
     12          1           0        0.467375   -1.388588    1.557342
     13          1           0        1.097520    0.233573    1.941232
     14          1           0        0.685739    0.576364   -1.888424
     15          1           0        0.871533    1.965192   -0.784343
     16          1           0       -2.646557   -0.689492   -1.457599
     17          1           0       -2.582379   -1.633100    0.039098
     18          1           0       -3.324336    0.902112    0.610072
     19          1           0       -0.967022    1.898436    1.239717
 ---------------------------------------------------------------------

 SCF Done:  E(RB3LYP) =  -423.192918920     A.U. after    1 cycles

 The electronic state is 1-A.
 Alpha  occ. eigenvalues --  -19.13575 -19.12988 -10.24136 -10.23348 -10.22087
 Alpha  occ. eigenvalues --  -10.21827 -10.19162 -10.18914 -10.18058  -1.04056
 Alpha  occ. eigenvalues --   -1.02157  -0.79517  -0.77757  -0.73637  -0.66567
 Alpha  occ. eigenvalues --   -0.59866  -0.57649  -0.55848  -0.51252  -0.48535
 Alpha  occ. eigenvalues --   -0.46991  -0.45895  -0.43615  -0.42249  -0.40212
 Alpha  occ. eigenvalues --   -0.38743  -0.36729  -0.36031  -0.34360  -0.32377
 Alpha  occ. eigenvalues --   -0.31836  -0.27937  -0.24431  -0.23291
 Alpha virt. eigenvalues --    0.01146   0.08665   0.10704   0.11787   0.13635
 Alpha virt. eigenvalues --    0.14167   0.15108   0.15328   0.15869   0.17278
 Alpha virt. eigenvalues --    0.17472   0.17936   0.18380   0.20549   0.22275

 Mulliken charges:
               1
     1  C   -0.082382
     2  C   -0.252371
     3  C    0.352749
     4  C   -0.107937
     5  O   -0.255426
     6  O   -0.315725
     7  C   -0.133814
     8  C   -0.102811
     9  C   -0.155324
    10  H    0.105303
    11  H    0.101009
    12  H    0.108791
    13  H    0.101429
    14  H    0.106468
    15  H    0.098391
    16  H    0.108887
    17  H    0.105443
    18  H    0.109448
    19  H    0.107872
 Sum of Mulliken charges =   0.00000

 Dipole moment (field-independent basis, Debye):
    X=             -1.9449    Y=              0.2973    Z=              1.3055  Tot=              2.3613
 Quadrupole moment (field-independent basis, Debye-Ang):
   XX=            -52.4480   YY=            -52.3780   ZZ=            -53.0278
   XY=             -2.2457   XZ=              2.2968   YZ=             -0.0751

  Exact polarizability:  95.891   2.101  70.327   4.885   2.479  65.135
 Approx polarizability: 132.671   9.326 106.148   8.286   6.031  96.780

                      1                      2                      3
                      A                      A                      A
 Frequencies --     35.7411                78.5416               200.8848
 Red. masses --      3.2063                 3.2794                 2.6421
 Frc consts  --      0.0024                 0.0119                 0.0628
 IR Inten    --      2.4630                 1.9280                 3.2808

                      4                      5                      6
                      A                      A                      A
 Frequencies --    240.5857               367.3148               388.4728
 Red. masses --      2.0722                 2.8193                 2.2048
 Frc consts  --      0.0707                 0.2241                 0.1960
 IR Inten    --      2.8698                 2.9667                 1.4904

                      7                      8                      9
                      A                      A                      A
 Frequencies --    421.7711               505.9537               628.4756
 Red. masses --      5.1651                 2.7982                 2.3586
 Frc consts  --      0.5414                 0.4220                 0.5489
 IR Inten    --      1.1095                 0.4496                 3.0442

                     10                     11                     12
                      A                      A                      A
 Frequencies --    729.7547               747.8764               786.2331
 Red. masses --      1.7357                 2.4626                 4.8338
 Frc consts  --      0.5446                 0.8115                 1.7605
 IR Inten    --     11.3160                19.5435                 5.4168

                     13                     14                     15
                      A                      A                      A
 Frequencies --    824.7601               875.5363               889.8799
 Red. masses --      4.9753                 2.1115                 2.2045
 Frc consts  --      1.9940                 0.9537                 1.0286
 IR Inten    --     13.4012                 6.8515                 8.6671

                     16                     17                     18
                      A                      A                      A
 Frequencies --    936.6935               953.3111               958.3631
 Red. masses --      2.8718                 2.4186                 1.3233
 Frc consts  --      1.4846                 1.2950                 0.7161
 IR Inten    --     12.3725                 2.9882                 2.3631

                     19                     20                     21
                      A                      A                      A
 Frequencies --    970.3726              1012.5697              1043.8606
 Red. masses --      2.2579                 1.6601                 1.6622
 Frc consts  --      1.2526                 1.0028                 1.0671
 IR Inten    --     22.6808                 5.0140                 7.8381

                     22                     23                     24
                      A                      A                      A
 Frequencies --   1057.2368              1087.7355              1106.4382
 Red. masses --      1.7523                 5.6506                 4.8662
 Frc consts  --      1.1540                 3.9390                 3.5099
 IR Inten    --     19.6992                62.8797                87.1119

                     25                     26                     27
                      A                      A                      A
 Frequencies --   1114.8263              1155.3034              1185.6542
 Red. masses --      2.4980                 1.9167                 1.9206
 Frc consts  --      1.8292                 1.5073                 1.5908
 IR Inten    --     56.1510                 7.3348                 9.7391

                     28                     29                     30
                      A                      A                      A
 Frequencies --   1199.5397              1225.6536              1247.7404
 Red. masses --      1.1239                 1.3864                 1.2851
 Frc consts  --      0.9528                 1.2271                 1.1788
 IR Inten    --      0.8366                 5.8530                 4.6120

                     31                     32                     33
                      A                      A                      A
 Frequencies --   1258.1144              1312.6761              1350.1721
 Red. masses --      1.3604                 1.3135                 1.3424
 Frc consts  --      1.2687                 1.3336                 1.4418
 IR Inten    --     17.6483                 0.2511                 1.1021

                     34                     35                     36
                      A                      A                      A
 Frequencies --   1367.9579              1381.1344              1395.7114
 Red. masses --      1.7990                 1.5344                 1.3927
 Frc consts  --      1.9835                 1.7245                 1.5985
 IR Inten    --      4.7085                 2.3716                 2.7955

                     37                     38                     39
                      A                      A                      A
 Frequencies --   1465.6361              1502.3070              1520.1761
 Red. masses --      1.1059                 1.0836                 1.0862
 Frc consts  --      1.3997                 1.4409                 1.4790
 IR Inten    --      4.0260                 1.7083                 2.1204

                     40                     41                     42
                      A                      A                      A
 Frequencies --   1522.1244              1690.4293              2972.6496
 Red. masses --      1.0974                 6.6647                 1.0627
 Frc consts  --      1.4980                11.2208                 5.5330
 IR Inten    --      0.8163                 0.2413                83.4448

                     43                     44                     45
                      A                      A                      A
 Frequencies --   2985.5742              2996.0715              3017.1119
 Red. masses --      1.0697                 1.0983                 1.0588
 Frc consts  --      5.6179                 5.8089                 5.6789
 IR Inten    --     62.8015                45.3113                44.4114

                     46                     47                     48
                      A                      A                      A
 Frequencies --   3052.9510              3065.8380              3093.3710
 Red. masses --      1.0644                 1.1062                 1.0937
 Frc consts  --      5.8453                 6.1259                 6.1661
 IR Inten    --     14.0149                30.2398                40.2809

                     49                     50                     51
                      A                      A                      A
 Frequencies --   3126.3530              3206.4172              3231.1470
 Red. masses --      1.1015                 1.0856                 1.1066
 Frc consts  --      6.3435                 6.5757                 6.8068
 IR Inten    --     16.0876                 2.0873                 7.9903

 - Thermochemistry -
 -------------------
 Temperature   298.150 Kelvin.  Pressure   1.00000 Atm.
 Atom     1 has atomic number  6 and mass  12.00000

 Molecular mass:   126.06808 amu.
 Principal axes and moments of inertia in atomic units:
                           1         2         3
     Eigenvalues --   476.042171455.971041501.40429
           X            0.99988  -0.00913   0.01239
           Y            0.00979   0.99847  -0.05444
           Z           -0.01188   0.05455   0.99844
 This molecule is an asymmetric top.
 Rotational symmetry number  1.
 Warning -- assumption of classical behavior for rotation
           may cause significant error
 Rotational temperatures (Kelvin)      0.18195     0.05949     0.05769
 Rotational constants (GHZ):           3.79114     1.23954     1.20204
 Zero-point vibrational energy     421629.8 (Joules/Mol)
                                  100.77195 (Kcal/Mol)
 Warning -- explicit consideration of   8 degrees of freedom as
           vibrations may cause significant error
 Vibrational temperatures:     51.42   113.00   289.03   346.15   528.48
          (Kelvin)            558.92   606.83   727.95   904.24  1049.95
                             1076.03  1131.21  1186.64  1259.70  1280.34
                             1347.69  1371.60  1378.87  1396.15  1456.86
                             1501.88  1521.13  1565.01  1591.92  1603.98
                             1662.22  1705.89  1725.87  1763.44  1795.22
                             1810.14  1888.65  1942.59  1968.18  1987.14
                             2008.11  2108.72  2161.48  2187.19  2189.99
                             2432.15  4276.97  4295.57  4310.67  4340.95
                             4392.51  4411.05  4450.67  4498.12  4613.31
                             4648.89

 Zero-point correction=                           0.160590 (Hartree/Particle)
 Thermal correction to Energy=                    0.168414
 Thermal correction to Enthalpy=                  0.169358
 Thermal correction to Gibbs Free Energy=         0.127209
 Sum of electronic and zero-point Energies=           -423.032329
 Sum of electronic and thermal Energies=              -423.024505
 Sum of electronic and thermal Enthalpies=            -423.023561
 Sum of electronic and thermal Free Energies=         -423.065710

                     E (Thermal)             CV                S
                      KCal/Mol        Cal/Mol-Kelvin    Cal/Mol-Kelvin
 Total                  105.681             29.735             88.710
 Electronic               0.000              0.000              0.000
 Translational            0.889              2.981             40.409
 Rotational               0.889              2.981             28.433
 Vibrational            103.904             23.774             19.868
 Vibration     1          0.594              1.982              5.482
 Vibration     2          0.600              1.964              3.927
 Vibration     3          0.638              1.839              2.125
 Vibration     4          0.658              1.778              1.799
 Vibration     5          0.740              1.539              1.091
 Vibration     6          0.757              1.495              1.006
 Vibration     7          0.784              1.423              0.886
 Vibration     8          0.861              1.237              0.643

 Optimization completed.
    -- Stationary point found.
 Normal termination of Gaussian 09 at Mon Jan 27 13:31:15 2020.
