 Gaussian 09, Revision D.01,
 Gaussian 09:  ES64L-G09RevD.01 24-Apr-2013

 -----------------------------
 # b3lyp 6-31G(2df,p) opt Freq
 -----------------------------

 -----
 titel
 -----
 Symbolic Z-matrix:
 Charge =  0 Multiplicity = 1

 SCF Done:  E(RB3LYP) =  -423.166346171     A.U. after   13 cycles
 Optimization completed.
    -- Stationary point found.
 Normal termination of Gaussian 09 at Tue Jan 28 03:43:36 2020.

 ----------------------------------------------------------------------
 #N Geom=AllCheck Guess=TCheck SCRF=Check GenChk RB3LYP/6-31G(2df,p) Fr
 eq
 ----------------------------------------------------------------------

 Structure from the checkpoint file:  "/scratch/puck/g09_508ecd4c-0e83-4b1a-9df8-9cc0d9e7f689/Gau-8597.chk"
 -----
 titel
 -----
 Charge =  0 Multiplicity = 1

                         Standard orientation:
 ---------------------------------------------------------------------
 Center     Atomic      Atomic             Coordinates (Angstroms)
 Number     Number       Type             X           Y           Z
 ---------------------------------------------------------------------
      1          8           0        2.112356   -0.388183   -0.759804
      2          6           0        1.447910    0.171358    0.353792
      3          6           0        0.726779    1.522175    0.059815
      4          6           0       -0.783981    1.267867    0.153894
      5          6           0       -1.454144    0.492796   -1.031896
      6          6           0       -1.471128   -0.793055   -0.181579
      7          8           0       -0.224320   -1.530397   -0.258181
      8          6           0        0.340074   -0.786578    0.864230
      9          6           0       -0.971600    0.000774    1.052042
     10          1           0        1.454778   -0.951637   -1.193760
     11          1           0        2.207297    0.316433    1.129962
     12          1           0        1.018401    2.263283    0.812734
     13          1           0        1.039077    1.909119   -0.914165
     14          1           0       -1.340928    2.156292    0.455343
     15          1           0       -2.464030    0.857181   -1.242307
     16          1           0       -0.898219    0.429473   -1.971446
     17          1           0       -2.333343   -1.461007   -0.223780
     18          1           0        0.670783   -1.473295    1.648016
     19          1           0       -1.461567    0.050776    2.021489
 ---------------------------------------------------------------------

 SCF Done:  E(RB3LYP) =  -423.166346171     A.U. after    1 cycles

 The electronic state is 1-A.
 Alpha  occ. eigenvalues --  -19.14573 -19.11982 -10.23911 -10.23503 -10.22554
 Alpha  occ. eigenvalues --  -10.19352 -10.19296 -10.18580 -10.17577  -1.05265
 Alpha  occ. eigenvalues --   -1.00142  -0.84324  -0.76211  -0.70594  -0.65159
 Alpha  occ. eigenvalues --   -0.63685  -0.56004  -0.53653  -0.51793  -0.49562
 Alpha  occ. eigenvalues --   -0.47074  -0.45245  -0.43532  -0.40980  -0.40210
 Alpha  occ. eigenvalues --   -0.38856  -0.36418  -0.34849  -0.32551  -0.30905
 Alpha  occ. eigenvalues --   -0.30442  -0.28613  -0.26323  -0.24733
 Alpha virt. eigenvalues --    0.05464   0.08095   0.10301   0.11756   0.12462
 Alpha virt. eigenvalues --    0.12622   0.14508   0.15395   0.16311   0.17457
 Alpha virt. eigenvalues --    0.17844   0.18615   0.19935   0.20638   0.21824

 Mulliken charges:
               1
     1  O   -0.440621
     2  C    0.128159
     3  C   -0.255580
     4  C   -0.034421
     5  C   -0.253036
     6  C    0.121179
     7  O   -0.324976
     8  C    0.073453
     9  C   -0.109072
    10  H    0.287010
    11  H    0.078659
    12  H    0.095283
    13  H    0.111063
    14  H    0.072210
    15  H    0.104504
    16  H    0.107341
    17  H    0.082064
    18  H    0.081631
    19  H    0.075149
 Sum of Mulliken charges =   0.00000

 Dipole moment (field-independent basis, Debye):
    X=             -2.3123    Y=              1.0859    Z=              1.2941  Tot=              2.8637
 Quadrupole moment (field-independent basis, Debye-Ang):
   XX=            -55.9326   YY=            -54.4856   ZZ=            -50.8321
   XY=              0.5723   XZ=              2.5101   YZ=             -0.3200

  Exact polarizability:  78.169   0.985  71.108   3.271  -0.376  69.105
 Approx polarizability: 109.395   0.218 104.285   2.555   2.815 105.766

                      1                      2                      3
                      A                      A                      A
 Frequencies --     50.3399               278.0735               307.5013
 Red. masses --      3.8648                 4.0175                 2.3988
 Frc consts  --      0.0058                 0.1830                 0.1336
 IR Inten    --      0.7744                 4.0331                 1.6020

                      4                      5                      6
                      A                      A                      A
 Frequencies --    388.2605               414.8336               504.3648
 Red. masses --      2.5404                 2.7007                 3.6837
 Frc consts  --      0.2256                 0.2738                 0.5521
 IR Inten    --      0.4488                 3.8502                 3.2712

                      7                      8                      9
                      A                      A                      A
 Frequencies --    526.6537               617.6259               652.8254
 Red. masses --      1.1529                 4.6705                 4.1604
 Frc consts  --      0.1884                 1.0497                 1.0447
 IR Inten    --     64.2770                 0.8014                 3.1261

                     10                     11                     12
                      A                      A                      A
 Frequencies --    725.7543               797.4778               808.1859
 Red. masses --      2.6625                 3.1572                 2.2837
 Frc consts  --      0.8263                 1.1830                 0.8788
 IR Inten    --      6.3144                 1.8059                 5.2372

                     13                     14                     15
                      A                      A                      A
 Frequencies --    832.4626               844.6725               872.0615
 Red. masses --      2.0854                 2.5997                 1.9498
 Frc consts  --      0.8515                 1.0928                 0.8736
 IR Inten    --      4.9522                16.9838                 1.1848

                     16                     17                     18
                      A                      A                      A
 Frequencies --    929.2440               937.8042               957.0498
 Red. masses --      2.2104                 2.8528                 2.2683
 Frc consts  --      1.1245                 1.4782                 1.2241
 IR Inten    --     13.9909                11.1003                 3.6024

                     19                     20                     21
                      A                      A                      A
 Frequencies --    978.2526              1005.5853              1021.8324
 Red. masses --      2.2626                 3.4578                 2.1178
 Frc consts  --      1.2757                 2.0601                 1.3028
 IR Inten    --     13.7401                42.3884                16.4364

                     22                     23                     24
                      A                      A                      A
 Frequencies --   1060.5550              1076.1977              1110.4203
 Red. masses --      2.5890                 2.2379                 2.4916
 Frc consts  --      1.7157                 1.5271                 1.8101
 IR Inten    --      5.6489                41.7422                46.1391

                     25                     26                     27
                      A                      A                      A
 Frequencies --   1140.9280              1163.2565              1188.8982
 Red. masses --      1.2506                 1.8474                 1.7062
 Frc consts  --      0.9592                 1.4728                 1.4209
 IR Inten    --      8.1155                21.2803                 9.7206

                     28                     29                     30
                      A                      A                      A
 Frequencies --   1206.6365              1215.7023              1254.6625
 Red. masses --      1.8440                 1.4590                 1.5124
 Frc consts  --      1.5819                 1.2705                 1.4028
 IR Inten    --     11.1783                 8.7288                 1.7188

                     31                     32                     33
                      A                      A                      A
 Frequencies --   1257.0305              1274.6628              1292.7670
 Red. masses --      1.3976                 1.5394                 1.4169
 Frc consts  --      1.3011                 1.4736                 1.3952
 IR Inten    --      0.5012                 3.6409                 8.6447

                     34                     35                     36
                      A                      A                      A
 Frequencies --   1299.6886              1320.7053              1337.5248
 Red. masses --      1.2939                 1.6360                 1.4345
 Frc consts  --      1.2878                 1.6813                 1.5120
 IR Inten    --      3.1054                 1.2390                 8.7440

                     37                     38                     39
                      A                      A                      A
 Frequencies --   1350.0456              1367.0976              1450.4622
 Red. masses --      1.3366                 1.4353                 1.2086
 Frc consts  --      1.4353                 1.5805                 1.4981
 IR Inten    --      2.6901                 5.4415                78.1193

                     40                     41                     42
                      A                      A                      A
 Frequencies --   1464.8170              1482.6072              3032.2607
 Red. masses --      1.1106                 1.0902                 1.0736
 Frc consts  --      1.4041                 1.4119                 5.8160
 IR Inten    --      8.2667                 4.6128                 7.3936

                     43                     44                     45
                      A                      A                      A
 Frequencies --   3048.4816              3051.0912              3072.9968
 Red. masses --      1.0776                 1.0588                 1.0883
 Frc consts  --      5.9003                 5.8076                 6.0554
 IR Inten    --     41.1529                25.1474                68.8840

                     46                     47                     48
                      A                      A                      A
 Frequencies --   3090.2424              3092.6158              3097.2729
 Red. masses --      1.0891                 1.0909                 1.0998
 Frc consts  --      6.1277                 6.1475                 6.2161
 IR Inten    --     28.9541                44.7433                18.4385

                     49                     50                     51
                      A                      A                      A
 Frequencies --   3110.3962              3142.5132              3717.8993
 Red. masses --      1.1046                 1.0924                 1.0647
 Frc consts  --      6.2965                 6.3558                 8.6714
 IR Inten    --     31.0469                31.6047                57.6971

 - Thermochemistry -
 -------------------
 Temperature   298.150 Kelvin.  Pressure   1.00000 Atm.
 Atom     1 has atomic number  8 and mass  15.99491

 Molecular mass:   126.06808 amu.
 Principal axes and moments of inertia in atomic units:
                           1         2         3
     Eigenvalues --   675.45980 947.853421164.45570
           X            0.99965   0.00735   0.02538
           Y           -0.00681   0.99975  -0.02139
           Z           -0.02553   0.02121   0.99945
 This molecule is an asymmetric top.
 Rotational symmetry number  1.
 Warning -- assumption of classical behavior for rotation
           may cause significant error
 Rotational temperatures (Kelvin)      0.12823     0.09138     0.07438
 Rotational constants (GHZ):           2.67187     1.90403     1.54986
 Zero-point vibrational energy     425998.0 (Joules/Mol)
                                  101.81596 (Kcal/Mol)
 Warning -- explicit consideration of   8 degrees of freedom as
           vibrations may cause significant error
 Vibrational temperatures:     72.43   400.09   442.43   558.62   596.85
          (Kelvin)            725.67   757.74   888.62   939.27  1044.20
                             1147.39  1162.80  1197.73  1215.29  1254.70
                             1336.97  1349.29  1376.98  1407.49  1446.81
                             1470.19  1525.90  1548.41  1597.65  1641.54
                             1673.66  1710.56  1736.08  1749.12  1805.18
                             1808.58  1833.95  1860.00  1869.96  1900.20
                             1924.40  1942.41  1966.95  2086.89  2107.54
                             2133.14  4362.74  4386.08  4389.83  4421.35
                             4446.16  4449.58  4456.28  4475.16  4521.37
                             5349.22

 Zero-point correction=                           0.162254 (Hartree/Particle)
 Thermal correction to Energy=                    0.169095
 Thermal correction to Enthalpy=                  0.170039
 Thermal correction to Gibbs Free Energy=         0.130734
 Sum of electronic and zero-point Energies=           -423.004092
 Sum of electronic and thermal Energies=              -422.997251
 Sum of electronic and thermal Enthalpies=            -422.996307
 Sum of electronic and thermal Free Energies=         -423.035612

                     E (Thermal)             CV                S
                      KCal/Mol        Cal/Mol-Kelvin    Cal/Mol-Kelvin
 Total                  106.109             28.392             82.724
 Electronic               0.000              0.000              0.000
 Translational            0.889              2.981             40.409
 Rotational               0.889              2.981             28.102
 Vibrational            104.331             22.431             14.214
 Vibration     1          0.595              1.977              4.804
 Vibration     2          0.679              1.714              1.545
 Vibration     3          0.697              1.659              1.376
 Vibration     4          0.756              1.495              1.007
 Vibration     5          0.778              1.438              0.910
 Vibration     6          0.860              1.240              0.647
 Vibration     7          0.882              1.191              0.595
 Vibration     8          0.977              0.995              0.420

 Optimization completed.
    -- Stationary point found.
 Normal termination of Gaussian 09 at Tue Jan 28 04:29:29 2020.
