 Gaussian 09, Revision D.01,
 Gaussian 09:  ES64L-G09RevD.01 24-Apr-2013

 -----------------------------
 # b3lyp 6-31G(2df,p) opt Freq
 -----------------------------

 -----
 titel
 -----
 Symbolic Z-matrix:
 Charge =  0 Multiplicity = 1

 SCF Done:  E(RB3LYP) =  -423.186843413     A.U. after   14 cycles
 Optimization completed.
    -- Stationary point found.
 Normal termination of Gaussian 09 at Tue Jan 28 03:06:57 2020.

 ----------------------------------------------------------------------
 #N Geom=AllCheck Guess=TCheck SCRF=Check GenChk RB3LYP/6-31G(2df,p) Fr
 eq
 ----------------------------------------------------------------------

 Structure from the checkpoint file:  "/scratch/puck/g09_ba84c1c5-4261-492d-8459-94b4cefcc811/Gau-88837.chk"
 -----
 titel
 -----
 Charge =  0 Multiplicity = 1

                         Standard orientation:
 ---------------------------------------------------------------------
 Center     Atomic      Atomic             Coordinates (Angstroms)
 Number     Number       Type             X           Y           Z
 ---------------------------------------------------------------------
      1          6           0        1.956853   -1.116536   -0.299676
      2          6           0        0.591965   -0.515419   -0.072097
      3          8           0       -0.399183   -1.058033   -0.961020
      4          6           0       -1.524596   -0.355267   -0.415178
      5          6           0       -1.089889    1.128574   -0.649132
      6          6           0        0.445582    1.008114   -0.415085
      7          8           0        0.975300    1.788002    0.641873
      8          6           0       -1.380654   -0.630640    1.074983
      9          6           0       -0.069347   -0.709041    1.292580
     10          1           0        2.693657   -0.605563    0.327014
     11          1           0        1.961674   -2.181261   -0.051147
     12          1           0        2.254605   -1.003493   -1.346448
     13          1           0       -2.447950   -0.665668   -0.902995
     14          1           0       -1.319377    1.439588   -1.671478
     15          1           0       -1.552597    1.828960    0.050204
     16          1           0        0.990361    1.202434   -1.348639
     17          1           0        0.959203    2.711312    0.373979
     18          1           0       -2.188972   -0.631617    1.793822
     19          1           0        0.460977   -0.793154    2.230497
 ---------------------------------------------------------------------

 SCF Done:  E(RB3LYP) =  -423.186843413     A.U. after    1 cycles

 The electronic state is 1-A.
 Alpha  occ. eigenvalues --  -19.13711 -19.12975 -10.23226 -10.23157 -10.22971
 Alpha  occ. eigenvalues --  -10.17897 -10.17769 -10.17599 -10.17229  -1.04602
 Alpha  occ. eigenvalues --   -1.01597  -0.79313  -0.76498  -0.74012  -0.66884
 Alpha  occ. eigenvalues --   -0.59396  -0.56329  -0.54307  -0.50543  -0.50054
 Alpha  occ. eigenvalues --   -0.47054  -0.42767  -0.42438  -0.40931  -0.38813
 Alpha  occ. eigenvalues --   -0.37373  -0.36490  -0.35953  -0.34749  -0.33153
 Alpha  occ. eigenvalues --   -0.30257  -0.27360  -0.24935  -0.23978
 Alpha virt. eigenvalues --    0.01566   0.07762   0.10117   0.12545   0.12710
 Alpha virt. eigenvalues --    0.13552   0.15795   0.16178   0.16542   0.17296
 Alpha virt. eigenvalues --    0.17942   0.19284   0.21515   0.22642   0.23250

 Mulliken charges:
               1
     1  C   -0.501281
     2  C    0.341258
     3  O   -0.282064
     4  C    0.008311
     5  C   -0.263268
     6  C    0.098988
     7  O   -0.440585
     8  C   -0.085457
     9  C   -0.095297
    10  H    0.131702
    11  H    0.125930
    12  H    0.122455
    13  H    0.076678
    14  H    0.099593
    15  H    0.099111
    16  H    0.069711
    17  H    0.285667
    18  H    0.101408
    19  H    0.107140
 Sum of Mulliken charges =   0.00000

 Dipole moment (field-independent basis, Debye):
    X=             -0.3476    Y=              1.7597    Z=              0.0462  Tot=              1.7943
 Quadrupole moment (field-independent basis, Debye-Ang):
   XX=            -49.9135   YY=            -50.6516   ZZ=            -53.7895
   XY=             -0.6280   XZ=             -1.2035   YZ=             -3.5181

  Exact polarizability:  84.672  -1.922  68.478   0.470  -3.652  69.962
 Approx polarizability: 127.284  -1.432  98.515   4.529  -2.246 106.858

                      1                      2                      3
                      A                      A                      A
 Frequencies --    143.7852               196.0755               232.5666
 Red. masses --      3.6525                 1.1293                 1.1362
 Frc consts  --      0.0445                 0.0256                 0.0362
 IR Inten    --      1.4745                 6.8714                63.6719

                      4                      5                      6
                      A                      A                      A
 Frequencies --    248.6707               302.0047               322.9126
 Red. masses --      2.2610                 2.7164                 2.6882
 Frc consts  --      0.0824                 0.1460                 0.1651
 IR Inten    --     28.2559                 4.1495                 1.7395

                      7                      8                      9
                      A                      A                      A
 Frequencies --    403.5844               493.0390               525.0001
 Red. masses --      2.3353                 3.1325                 4.7151
 Frc consts  --      0.2241                 0.4487                 0.7657
 IR Inten    --      1.9695                 4.5303                 0.9610

                     10                     11                     12
                      A                      A                      A
 Frequencies --    582.5653               625.8530               704.9494
 Red. masses --      3.8197                 3.7928                 4.1473
 Frc consts  --      0.7638                 0.8753                 1.2143
 IR Inten    --      4.5668                 2.1927                 0.9769

                     13                     14                     15
                      A                      A                      A
 Frequencies --    735.9399               787.1702               835.9323
 Red. masses --      1.6305                 4.5607                 2.5061
 Frc consts  --      0.5203                 1.6650                 1.0318
 IR Inten    --     29.4400                 3.0392                10.3065

                     16                     17                     18
                      A                      A                      A
 Frequencies --    856.9733               881.5011               904.8337
 Red. masses --      2.9640                 2.3868                 2.0472
 Frc consts  --      1.2825                 1.0927                 0.9875
 IR Inten    --      6.7557                12.2216                 7.9775

                     19                     20                     21
                      A                      A                      A
 Frequencies --    924.3634               936.1880               950.7813
 Red. masses --      2.0438                 1.8749                 2.3533
 Frc consts  --      1.0289                 0.9682                 1.2534
 IR Inten    --     14.4853                12.4020                 5.6984

                     22                     23                     24
                      A                      A                      A
 Frequencies --   1014.1055              1032.0454              1093.0650
 Red. masses --      2.2886                 2.8711                 1.4513
 Frc consts  --      1.3867                 1.8018                 1.0216
 IR Inten    --     20.4729                16.6804                11.7600

                     25                     26                     27
                      A                      A                      A
 Frequencies --   1095.1904              1128.5426              1153.7003
 Red. masses --      1.8524                 1.5157                 2.0915
 Frc consts  --      1.3091                 1.1373                 1.6402
 IR Inten    --     55.0013                23.7478                13.4037

                     28                     29                     30
                      A                      A                      A
 Frequencies --   1185.8198              1208.7830              1237.2926
 Red. masses --      1.5150                 1.5921                 1.4236
 Frc consts  --      1.2552                 1.3706                 1.2840
 IR Inten    --      4.3934                61.6697                23.5330

                     31                     32                     33
                      A                      A                      A
 Frequencies --   1261.6541              1308.2848              1322.3461
 Red. masses --      1.6582                 1.4125                 1.5190
 Frc consts  --      1.5551                 1.4245                 1.5649
 IR Inten    --      9.1505                 9.1613                14.0071

                     34                     35                     36
                      A                      A                      A
 Frequencies --   1337.0865              1356.8588              1411.5791
 Red. masses --      1.7082                 1.7315                 1.4604
 Frc consts  --      1.7993                 1.8782                 1.7145
 IR Inten    --     10.9175                 6.3077                11.5624

                     37                     38                     39
                      A                      A                      A
 Frequencies --   1417.0966              1481.7204              1485.7043
 Red. masses --      1.4519                 1.0945                 1.0539
 Frc consts  --      1.7179                 1.4158                 1.3706
 IR Inten    --     10.9570                 1.4637                 2.8145

                     40                     41                     42
                      A                      A                      A
 Frequencies --   1494.2142              1648.1663              3006.5026
 Red. masses --      1.0507                 6.4755                 1.0846
 Frc consts  --      1.3822                10.3639                 5.7764
 IR Inten    --      3.1465                 1.7661                42.5787

                     43                     44                     45
                      A                      A                      A
 Frequencies --   3043.2861              3062.8503              3115.4705
 Red. masses --      1.0349                 1.0592                 1.1058
 Frc consts  --      5.6474                 5.8541                 6.3239
 IR Inten    --     19.5071                28.0456                 9.2214

                     46                     47                     48
                      A                      A                      A
 Frequencies --   3116.4988              3122.0088              3125.9045
 Red. masses --      1.1019                 1.1018                 1.0912
 Frc consts  --      6.3055                 6.3273                 6.2824
 IR Inten    --     24.5563                13.7448                44.7903

                     49                     50                     51
                      A                      A                      A
 Frequencies --   3216.4523              3244.1158              3829.0037
 Red. masses --      1.0868                 1.1081                 1.0665
 Frc consts  --      6.6248                 6.8708                 9.2123
 IR Inten    --      4.3867                 7.9252                24.9520

 - Thermochemistry -
 -------------------
 Temperature   298.150 Kelvin.  Pressure   1.00000 Atm.
 Atom     1 has atomic number  6 and mass  12.00000

 Molecular mass:   126.06808 amu.
 Principal axes and moments of inertia in atomic units:
                           1         2         3
     Eigenvalues --   815.67618 899.858061135.82617
           X            0.95776  -0.28713  -0.01618
           Y            0.28584   0.95663  -0.05623
           Z            0.03162   0.04923   0.99829
 This molecule is an asymmetric top.
 Rotational symmetry number  1.
 Warning -- assumption of classical behavior for rotation
           may cause significant error
 Rotational temperatures (Kelvin)      0.10619     0.09625     0.07626
 Rotational constants (GHZ):           2.21257     2.00558     1.58892
 Zero-point vibrational energy     419590.4 (Joules/Mol)
                                  100.28451 (Kcal/Mol)
 Warning -- explicit consideration of  10 degrees of freedom as
           vibrations may cause significant error
 Vibrational temperatures:    206.87   282.11   334.61   357.78   434.52
          (Kelvin)            464.60   580.67   709.37   755.36   838.18
                              900.46  1014.26  1058.85  1132.56  1202.72
                             1232.99  1268.28  1301.85  1329.95  1346.96
                             1367.96  1459.07  1484.88  1572.67  1575.73
                             1623.72  1659.92  1706.13  1739.17  1780.19
                             1815.24  1882.33  1902.56  1923.77  1952.21
                             2030.94  2038.88  2131.86  2137.59  2149.84
                             2371.34  4325.68  4378.60  4406.75  4482.46
                             4483.94  4491.87  4497.47  4627.75  4667.55
                             5509.08

 Zero-point correction=                           0.159814 (Hartree/Particle)
 Thermal correction to Energy=                    0.167704
 Thermal correction to Enthalpy=                  0.168648
 Thermal correction to Gibbs Free Energy=         0.128042
 Sum of electronic and zero-point Energies=           -423.027030
 Sum of electronic and thermal Energies=              -423.019139
 Sum of electronic and thermal Enthalpies=            -423.018195
 Sum of electronic and thermal Free Energies=         -423.058801

                     E (Thermal)             CV                S
                      KCal/Mol        Cal/Mol-Kelvin    Cal/Mol-Kelvin
 Total                  105.236             31.872             85.463
 Electronic               0.000              0.000              0.000
 Translational            0.889              2.981             40.409
 Rotational               0.889              2.981             28.213
 Vibrational            103.459             25.911             16.842
 Vibration     1          0.616              1.909              2.753
 Vibration     2          0.636              1.845              2.170
 Vibration     3          0.653              1.791              1.859
 Vibration     4          0.662              1.765              1.740
 Vibration     5          0.694              1.670              1.406
 Vibration     6          0.708              1.630              1.295
 Vibration     7          0.769              1.462              0.950
 Vibration     8          0.849              1.265              0.676
 Vibration     9          0.880              1.195              0.598
 Vibration    10          0.939              1.069              0.481

 Optimization completed.
    -- Stationary point found.
 Normal termination of Gaussian 09 at Tue Jan 28 03:53:11 2020.
