 Gaussian 09, Revision D.01,
 Gaussian 09:  ES64L-G09RevD.01 24-Apr-2013

 -----------------------------
 # b3lyp 6-31G(2df,p) opt Freq
 -----------------------------

 -----
 titel
 -----
 Symbolic Z-matrix:
 Charge =  0 Multiplicity = 1

 SCF Done:  E(RB3LYP) =  -423.150902165     A.U. after   13 cycles
 Optimization completed.
    -- Stationary point found.
 Normal termination of Gaussian 09 at Mon Jan 27 22:03:17 2020.

 ----------------------------------------------------------------------
 #N Geom=AllCheck Guess=TCheck SCRF=Check GenChk RB3LYP/6-31G(2df,p) Fr
 eq
 ----------------------------------------------------------------------

 Structure from the checkpoint file:  "/scratch/puck/g09_78ed8cbd-6d7f-4c68-a4cd-d12027697cd4/Gau-176393.chk"
 -----
 titel
 -----
 Charge =  0 Multiplicity = 1

                         Standard orientation:
 ---------------------------------------------------------------------
 Center     Atomic      Atomic             Coordinates (Angstroms)
 Number     Number       Type             X           Y           Z
 ---------------------------------------------------------------------
      1          6           0        2.711327   -0.568423   -0.182053
      2          6           0        1.317975   -0.052971   -0.524393
      3          6           0        0.203369   -1.068729   -0.251008
      4          6           0       -0.155165   -0.378699    1.066609
      5          6           0        0.683056    0.835297    0.605475
      6          8           0       -0.219607    1.801437    0.080151
      7          6           0       -1.275510    1.077754   -0.556806
      8          6           0       -1.133944   -0.363091   -0.062311
      9          8           0       -2.277498   -1.147624    0.048899
     10          1           0        3.034828   -1.341144   -0.887683
     11          1           0        3.445499    0.243849   -0.214132
     12          1           0        2.733310   -1.006325    0.822318
     13          1           0        1.320817    0.425212   -1.511459
     14          1           0        0.228514   -2.133963   -0.456443
     15          1           0       -0.356515   -0.764767    2.055928
     16          1           0        1.365923    1.333508    1.293164
     17          1           0       -2.242087    1.488397   -0.243113
     18          1           0       -1.195336    1.169190   -1.649696
     19          1           0       -2.464763   -1.531283   -0.814362
 ---------------------------------------------------------------------

 SCF Done:  E(RB3LYP) =  -423.150902165     A.U. after    1 cycles

 The electronic state is 1-A.
 Alpha  occ. eigenvalues --  -19.15264 -19.13342 -10.24250 -10.23209 -10.22268
 Alpha  occ. eigenvalues --  -10.19349 -10.18875 -10.18611 -10.17714  -1.04701
 Alpha  occ. eigenvalues --   -1.02735  -0.88326  -0.76356  -0.71289  -0.63627
 Alpha  occ. eigenvalues --   -0.63278  -0.57832  -0.53719  -0.53216  -0.48327
 Alpha  occ. eigenvalues --   -0.47317  -0.44193  -0.42183  -0.41481  -0.40197
 Alpha  occ. eigenvalues --   -0.38935  -0.36864  -0.36675  -0.35139  -0.31825
 Alpha  occ. eigenvalues --   -0.29093  -0.27055  -0.25746  -0.23608
 Alpha virt. eigenvalues --    0.06287   0.09792   0.10579   0.11559   0.12039
 Alpha virt. eigenvalues --    0.14069   0.15008   0.15697   0.16458   0.16681
 Alpha virt. eigenvalues --    0.17846   0.19038   0.20031   0.20852   0.22700

 Mulliken charges:
               1
     1  C   -0.408243
     2  C   -0.013803
     3  C   -0.146547
     4  C   -0.135203
     5  C    0.071523
     6  O   -0.264704
     7  C   -0.156317
     8  C    0.359482
     9  O   -0.472583
    10  H    0.114751
    11  H    0.116317
    12  H    0.117083
    13  H    0.068703
    14  H    0.081206
    15  H    0.097311
    16  H    0.082552
    17  H    0.110605
    18  H    0.090172
    19  H    0.287692
 Sum of Mulliken charges =   0.00000

 Dipole moment (field-independent basis, Debye):
    X=              0.4572    Y=             -1.5623    Z=             -1.1851  Tot=              2.0135
 Quadrupole moment (field-independent basis, Debye-Ang):
   XX=            -52.4999   YY=            -55.8714   ZZ=            -50.4546
   XY=              0.6080   XZ=              4.2118   YZ=              2.0516

  Exact polarizability:  85.628  -1.132  69.808   2.068   0.647  66.957
 Approx polarizability: 112.723   0.393 104.681   2.904   2.775 106.551

                      1                      2                      3
                      A                      A                      A
 Frequencies --    163.8718               224.4894               238.6998
 Red. masses --      2.8066                 2.1741                 1.1209
 Frc consts  --      0.0444                 0.0646                 0.0376
 IR Inten    --      2.0278                11.2290                 0.7108

                      4                      5                      6
                      A                      A                      A
 Frequencies --    250.9879               283.3886               345.8662
 Red. masses --      2.5190                 1.3030                 2.5325
 Frc consts  --      0.0935                 0.0617                 0.1785
 IR Inten    --      5.3345                66.3064                12.4321

                      7                      8                      9
                      A                      A                      A
 Frequencies --    377.2289               415.4311               481.6969
 Red. masses --      5.1531                 3.5128                 3.1213
 Frc consts  --      0.4320                 0.3572                 0.4267
 IR Inten    --     12.8065                 1.6372                 6.4225

                     10                     11                     12
                      A                      A                      A
 Frequencies --    583.0149               685.6492               742.4646
 Red. masses --      4.6205                 5.5281                 3.5203
 Frc consts  --      0.9253                 1.5312                 1.1433
 IR Inten    --      0.3967                 4.0341                 3.8655

                     13                     14                     15
                      A                      A                      A
 Frequencies --    782.0548               850.0542               865.2634
 Red. masses --      3.1870                 1.7033                 1.7239
 Frc consts  --      1.1485                 0.7252                 0.7604
 IR Inten    --      5.8323                 5.4775                11.6660

                     16                     17                     18
                      A                      A                      A
 Frequencies --    881.4280               920.0628               943.7511
 Red. masses --      2.0102                 1.8378                 1.8874
 Frc consts  --      0.9201                 0.9166                 0.9904
 IR Inten    --      0.7774                 0.8357                 7.4413

                     19                     20                     21
                      A                      A                      A
 Frequencies --    961.5104               983.5763              1034.1458
 Red. masses --      3.3355                 1.9178                 2.0285
 Frc consts  --      1.8169                 1.0931                 1.2782
 IR Inten    --     32.4136                 7.4017                 2.8181

                     22                     23                     24
                      A                      A                      A
 Frequencies --   1051.6046              1062.5106              1075.4032
 Red. masses --      1.8660                 3.7286                 1.9354
 Frc consts  --      1.2158                 2.4801                 1.3187
 IR Inten    --     16.6973                54.1672                15.3742

                     25                     26                     27
                      A                      A                      A
 Frequencies --   1093.7922              1137.7809              1156.9908
 Red. masses --      2.0938                 2.5573                 1.8628
 Frc consts  --      1.4759                 1.9505                 1.4692
 IR Inten    --     36.5805                 4.5486                14.9127

                     28                     29                     30
                      A                      A                      A
 Frequencies --   1193.0632              1203.6813              1237.5498
 Red. masses --      1.4663                 1.1867                 1.7470
 Frc consts  --      1.2297                 1.0130                 1.5764
 IR Inten    --      3.0352                 3.2589                22.6574

                     31                     32                     33
                      A                      A                      A
 Frequencies --   1264.2024              1271.5801              1310.8885
 Red. masses --      1.6553                 2.0190                 1.7118
 Frc consts  --      1.5587                 1.9234                 1.7331
 IR Inten    --     17.1477                28.5757                60.8035

                     34                     35                     36
                      A                      A                      A
 Frequencies --   1323.6302              1351.8510              1378.6896
 Red. masses --      1.5533                 1.6756                 1.6297
 Frc consts  --      1.6034                 1.8041                 1.8252
 IR Inten    --     26.9062                 6.1470                 4.8222

                     37                     38                     39
                      A                      A                      A
 Frequencies --   1408.7651              1441.5027              1495.2960
 Red. masses --      1.2478                 2.4484                 1.0470
 Frc consts  --      1.4591                 2.9975                 1.3793
 IR Inten    --      3.1678                 6.5918                 3.8214

                     40                     41                     42
                      A                      A                      A
 Frequencies --   1500.4318              1523.8963              2994.9575
 Red. masses --      1.0488                 1.0904                 1.0655
 Frc consts  --      1.3911                 1.4919                 5.6309
 IR Inten    --      2.6463                 1.5398                58.1040

                     43                     44                     45
                      A                      A                      A
 Frequencies --   3025.9288              3029.0206              3057.0626
 Red. masses --      1.0365                 1.0817                 1.0987
 Frc consts  --      5.5916                 5.8475                 6.0500
 IR Inten    --     33.6134                36.3321                39.2415

                     46                     47                     48
                      A                      A                      A
 Frequencies --   3094.4212              3096.8254              3122.8331
 Red. masses --      1.1012                 1.1015                 1.0907
 Frc consts  --      6.2128                 6.2239                 6.2668
 IR Inten    --     26.3656                30.7626                31.3724

                     49                     50                     51
                      A                      A                      A
 Frequencies --   3166.0603              3216.0511              3802.7250
 Red. masses --      1.0911                 1.0964                 1.0663
 Frc consts  --      6.4439                 6.6813                 9.0851
 IR Inten    --     18.2806                 5.1889                24.9894

 - Thermochemistry -
 -------------------
 Temperature   298.150 Kelvin.  Pressure   1.00000 Atm.
 Atom     1 has atomic number  6 and mass  12.00000

 Molecular mass:   126.06808 amu.
 Principal axes and moments of inertia in atomic units:
                           1         2         3
     Eigenvalues --   613.701261139.492851468.77913
           X            0.99942  -0.03272   0.00917
           Y            0.03275   0.99946  -0.00287
           Z           -0.00907   0.00316   0.99995
 This molecule is an asymmetric top.
 Rotational symmetry number  1.
 Warning -- assumption of classical behavior for rotation
           may cause significant error
 Rotational temperatures (Kelvin)      0.14113     0.07601     0.05897
 Rotational constants (GHZ):           2.94075     1.58381     1.22874
 Zero-point vibrational energy     419312.8 (Joules/Mol)
                                  100.21817 (Kcal/Mol)
 Warning -- explicit consideration of  10 degrees of freedom as
           vibrations may cause significant error
 Vibrational temperatures:    235.77   322.99   343.44   361.12   407.73
          (Kelvin)            497.62   542.75   597.71   693.05   838.83
                              986.50  1068.24  1125.20  1223.04  1244.92
                             1268.18  1323.76  1357.85  1383.40  1415.15
                             1487.90  1513.02  1528.71  1547.26  1573.72
                             1637.01  1664.65  1716.55  1731.83  1780.56
                             1818.90  1829.52  1886.07  1904.41  1945.01
                             1983.62  2026.90  2074.00  2151.39  2158.78
                             2192.54  4309.07  4353.63  4358.08  4398.43
                             4452.18  4455.64  4493.05  4555.25  4627.17
                             5471.27

 Zero-point correction=                           0.159708 (Hartree/Particle)
 Thermal correction to Energy=                    0.167499
 Thermal correction to Enthalpy=                  0.168443
 Thermal correction to Gibbs Free Energy=         0.127971
 Sum of electronic and zero-point Energies=           -422.991194
 Sum of electronic and thermal Energies=              -422.983403
 Sum of electronic and thermal Enthalpies=            -422.982459
 Sum of electronic and thermal Free Energies=         -423.022931

                     E (Thermal)             CV                S
                      KCal/Mol        Cal/Mol-Kelvin    Cal/Mol-Kelvin
 Total                  105.107             31.371             85.181
 Electronic               0.000              0.000              0.000
 Translational            0.889              2.981             40.409
 Rotational               0.889              2.981             28.420
 Vibrational            103.330             25.409             16.353
 Vibration     1          0.623              1.887              2.505
 Vibration     2          0.649              1.804              1.923
 Vibration     3          0.657              1.781              1.813
 Vibration     4          0.663              1.761              1.724
 Vibration     5          0.682              1.704              1.513
 Vibration     6          0.724              1.584              1.185
 Vibration     7          0.748              1.519              1.050
 Vibration     8          0.779              1.437              0.908
 Vibration     9          0.838              1.291              0.706
 Vibration    10          0.940              1.068              0.480

 Optimization completed.
    -- Stationary point found.
 Normal termination of Gaussian 09 at Mon Jan 27 22:54:19 2020.
