 Gaussian 09, Revision D.01,
 Gaussian 09:  ES64L-G09RevD.01 24-Apr-2013

 -----------------------------
 # b3lyp 6-31G(2df,p) opt Freq
 -----------------------------

 -----
 titel
 -----
 Symbolic Z-matrix:
 Charge =  0 Multiplicity = 1

 SCF Done:  E(RB3LYP) =  -423.179588876     A.U. after   13 cycles
 Optimization completed.
    -- Stationary point found.
 Normal termination of Gaussian 09 at Mon Jan 27 13:58:01 2020.

 ----------------------------------------------------------------------
 #N Geom=AllCheck Guess=TCheck SCRF=Check GenChk RB3LYP/6-31G(2df,p) Fr
 eq
 ----------------------------------------------------------------------

 Structure from the checkpoint file:  "/scratch/puck/g09_d5dd8125-26e4-448e-ba75-300b03819140/Gau-137780.chk"
 -----
 titel
 -----
 Charge =  0 Multiplicity = 1

                         Standard orientation:
 ---------------------------------------------------------------------
 Center     Atomic      Atomic             Coordinates (Angstroms)
 Number     Number       Type             X           Y           Z
 ---------------------------------------------------------------------
      1          8           0       -3.713278   -0.270243   -0.512313
      2          6           0       -2.650838   -0.394285    0.039517
      3          6           0       -1.635123    0.717402    0.219019
      4          6           0       -0.242348    0.285286   -0.198139
      5          6           0        0.962346    1.005020    0.393478
      6          6           0        2.277363    0.913659   -0.365380
      7          6           0        2.416903   -0.601513   -0.644833
      8          8           0        1.646509   -1.280418    0.350470
      9          6           0        0.654458   -0.404794    0.807700
     10          1           0       -2.334585   -1.374421    0.465674
     11          1           0       -1.980419    1.596783   -0.334031
     12          1           0       -1.627438    0.981933    1.287158
     13          1           0       -0.162074   -0.041371   -1.232172
     14          1           0        0.792635    1.849103    1.052269
     15          1           0        2.299840    1.496741   -1.290810
     16          1           0        3.088530    1.271380    0.277035
     17          1           0        2.036583   -0.848282   -1.645385
     18          1           0        3.445684   -0.965307   -0.578509
     19          1           0        0.278834   -0.685918    1.785343
 ---------------------------------------------------------------------

 SCF Done:  E(RB3LYP) =  -423.179588876     A.U. after    1 cycles

 The electronic state is 1-A.
 Alpha  occ. eigenvalues --  -19.14733 -19.13923 -10.27102 -10.24085 -10.23508
 Alpha  occ. eigenvalues --  -10.20377 -10.20138 -10.19962 -10.19712  -1.04919
 Alpha  occ. eigenvalues --   -1.04593  -0.86534  -0.77343  -0.74674  -0.64675
 Alpha  occ. eigenvalues --   -0.59029  -0.58019  -0.57113  -0.52027  -0.48385
 Alpha  occ. eigenvalues --   -0.47601  -0.45503  -0.44057  -0.42266  -0.40934
 Alpha  occ. eigenvalues --   -0.40646  -0.39740  -0.37072  -0.35498  -0.33759
 Alpha  occ. eigenvalues --   -0.33071  -0.29099  -0.24769  -0.23699
 Alpha virt. eigenvalues --   -0.02213   0.08710   0.08868   0.10356   0.11390
 Alpha virt. eigenvalues --    0.12249   0.13461   0.14211   0.15148   0.16250
 Alpha virt. eigenvalues --    0.16775   0.17693   0.19354   0.21164   0.22014

 Mulliken charges:
               1
     1  O   -0.238064
     2  C    0.164713
     3  C   -0.314751
     4  C   -0.080452
     5  C   -0.098564
     6  C   -0.251364
     7  C   -0.090974
     8  O   -0.256771
     9  C    0.112990
    10  H    0.079590
    11  H    0.123515
    12  H    0.117459
    13  H    0.098252
    14  H    0.091450
    15  H    0.109624
    16  H    0.113438
    17  H    0.104139
    18  H    0.113961
    19  H    0.101809
 Sum of Mulliken charges =   0.00000

 Dipole moment (field-independent basis, Debye):
    X=              2.6581    Y=              1.5315    Z=              0.6315  Tot=              3.1321
 Quadrupole moment (field-independent basis, Debye-Ang):
   XX=            -64.4343   YY=            -54.8499   ZZ=            -50.9738
   XY=              1.3380   XZ=             -5.9263   YZ=              0.9745

  Exact polarizability:  95.570   0.593  68.645   0.439  -0.317  64.509
 Approx polarizability: 123.664  -0.621 103.989   6.916  -2.628 101.667

                      1                      2                      3
                      A                      A                      A
 Frequencies --     56.9407                68.5880               136.3734
 Red. masses --      4.9842                 3.8022                 2.5786
 Frc consts  --      0.0095                 0.0105                 0.0283
 IR Inten    --      5.3121                 2.6206                 2.3970

                      4                      5                      6
                      A                      A                      A
 Frequencies --    197.7691               245.8791               297.2414
 Red. masses --      2.1677                 2.2913                 3.4691
 Frc consts  --      0.0500                 0.0816                 0.1806
 IR Inten    --      1.6760                 2.5805                 2.8128

                      7                      8                      9
                      A                      A                      A
 Frequencies --    348.3315               401.3445               531.4834
 Red. masses --      3.0009                 4.1298                 2.3161
 Frc consts  --      0.2145                 0.3919                 0.3855
 IR Inten    --      1.6840                 8.2718                 9.8916

                     10                     11                     12
                      A                      A                      A
 Frequencies --    669.6024               706.2664               789.2008
 Red. masses --      2.5065                 4.7907                 1.7757
 Frc consts  --      0.6621                 1.4079                 0.6516
 IR Inten    --      3.4729                 4.7974                 8.6725

                     13                     14                     15
                      A                      A                      A
 Frequencies --    836.0348               852.6341               862.8177
 Red. masses --      2.4574                 1.4551                 2.3978
 Frc consts  --      1.0120                 0.6232                 1.0517
 IR Inten    --      5.0987                 4.4173                 8.6571

                     16                     17                     18
                      A                      A                      A
 Frequencies --    901.1572               950.6451               978.1969
 Red. masses --      2.7226                 2.5833                 2.6493
 Frc consts  --      1.3027                 1.3755                 1.4936
 IR Inten    --      5.0546                 3.5479                21.9921

                     19                     20                     21
                      A                      A                      A
 Frequencies --   1003.7657              1009.2280              1044.2394
 Red. masses --      1.6193                 1.9464                 1.5676
 Frc consts  --      0.9613                 1.1681                 1.0071
 IR Inten    --     15.0553                34.9710                 1.8160

                     22                     23                     24
                      A                      A                      A
 Frequencies --   1077.1760              1089.9000              1122.4457
 Red. masses --      1.5893                 2.4812                 2.4353
 Frc consts  --      1.0865                 1.7365                 1.8077
 IR Inten    --      8.1351                16.7780                15.7271

                     25                     26                     27
                      A                      A                      A
 Frequencies --   1134.1408              1157.5024              1184.6578
 Red. masses --      1.8933                 2.7423                 1.5496
 Frc consts  --      1.4349                 2.1647                 1.2813
 IR Inten    --      6.6713                60.8145                21.8692

                     28                     29                     30
                      A                      A                      A
 Frequencies --   1219.5662              1237.8915              1239.0061
 Red. masses --      1.2830                 1.3134                 1.4547
 Frc consts  --      1.1243                 1.1858                 1.3158
 IR Inten    --      2.3047                 7.2428                 4.6024

                     31                     32                     33
                      A                      A                      A
 Frequencies --   1276.2001              1309.0684              1310.5286
 Red. masses --      1.3655                 1.5153                 1.2515
 Frc consts  --      1.3103                 1.5300                 1.2664
 IR Inten    --      1.3097                 2.0044                 2.7257

                     34                     35                     36
                      A                      A                      A
 Frequencies --   1338.4456              1393.0229              1426.0474
 Red. masses --      1.3379                 1.3911                 1.1961
 Frc consts  --      1.4121                 1.5905                 1.4331
 IR Inten    --      6.3020                 1.3194                 4.7339

                     37                     38                     39
                      A                      A                      A
 Frequencies --   1438.0157              1460.9439              1493.3396
 Red. masses --      2.2900                 1.1039                 1.0975
 Frc consts  --      2.7900                 1.3881                 1.4420
 IR Inten    --     11.1383                 7.9115                 1.5658

                     40                     41                     42
                      A                      A                      A
 Frequencies --   1528.1640              1835.4786              2867.8937
 Red. masses --      1.0889                10.1221                 1.0824
 Frc consts  --      1.4983                20.0918                 5.2453
 IR Inten    --      0.8317               195.7414                91.3814

                     43                     44                     45
                      A                      A                      A
 Frequencies --   3005.8811              3008.7791              3049.1162
 Red. masses --      1.0654                 1.0704                 1.0602
 Frc consts  --      5.6714                 5.7091                 5.8076
 IR Inten    --      7.6573                47.0212                29.3474

                     46                     47                     48
                      A                      A                      A
 Frequencies --   3083.0400              3085.0328              3097.8651
 Red. masses --      1.0948                 1.0950                 1.1043
 Frc consts  --      6.1312                 6.1402                 6.2440
 IR Inten    --     18.3199                26.8854                36.6750

                     49                     50                     51
                      A                      A                      A
 Frequencies --   3137.2420              3169.4088              3178.9488
 Red. masses --      1.0884                 1.0886                 1.0934
 Frc consts  --      6.3113                 6.4431                 6.5103
 IR Inten    --      8.7557                 9.2316                17.9754

 - Thermochemistry -
 -------------------
 Temperature   298.150 Kelvin.  Pressure   1.00000 Atm.
 Atom     1 has atomic number  8 and mass  15.99491

 Molecular mass:   126.06808 amu.
 Principal axes and moments of inertia in atomic units:
                           1         2         3
     Eigenvalues --   413.305892176.379342332.39195
           X            0.99987   0.00486  -0.01548
           Y           -0.00444   0.99962   0.02716
           Z            0.01560  -0.02709   0.99951
 This molecule is an asymmetric top.
 Rotational symmetry number  1.
 Rotational temperatures (Kelvin)      0.20956     0.03980     0.03714
 Rotational constants (GHZ):           4.36660     0.82924     0.77377
 Zero-point vibrational energy     417750.8 (Joules/Mol)
                                   99.84485 (Kcal/Mol)
 Warning -- explicit consideration of   9 degrees of freedom as
           vibrations may cause significant error
 Vibrational temperatures:     81.92    98.68   196.21   284.55   353.76
          (Kelvin)            427.66   501.17   577.44   764.69   963.41
                             1016.16  1135.48  1202.87  1226.75  1241.40
                             1296.56  1367.76  1407.41  1444.19  1452.05
                             1502.43  1549.81  1568.12  1614.95  1631.77
                             1665.39  1704.46  1754.68  1781.05  1782.65
                             1836.17  1883.46  1885.56  1925.72  2004.25
                             2051.76  2068.98  2101.97  2148.58  2198.68
                             2640.84  4126.25  4324.79  4328.96  4386.99
                             4435.80  4438.67  4457.13  4513.79  4560.07
                             4573.79

 Zero-point correction=                           0.159113 (Hartree/Particle)
 Thermal correction to Energy=                    0.167597
 Thermal correction to Enthalpy=                  0.168541
 Thermal correction to Gibbs Free Energy=         0.124907
 Sum of electronic and zero-point Energies=           -423.020476
 Sum of electronic and thermal Energies=              -423.011992
 Sum of electronic and thermal Enthalpies=            -423.011048
 Sum of electronic and thermal Free Energies=         -423.054681

                     E (Thermal)             CV                S
                      KCal/Mol        Cal/Mol-Kelvin    Cal/Mol-Kelvin
 Total                  105.169             31.070             91.835
 Electronic               0.000              0.000              0.000
 Translational            0.889              2.981             40.409
 Rotational               0.889              2.981             29.130
 Vibrational            103.391             25.109             22.296
 Vibration     1          0.596              1.975              4.561
 Vibration     2          0.598              1.969              4.193
 Vibration     3          0.614              1.917              2.854
 Vibration     4          0.637              1.843              2.154
 Vibration     5          0.660              1.770              1.760
 Vibration     6          0.691              1.679              1.432
 Vibration     7          0.726              1.579              1.174
 Vibration     8          0.767              1.467              0.958
 Vibration     9          0.886              1.180              0.584

 Optimization completed.
    -- Stationary point found.
 Normal termination of Gaussian 09 at Mon Jan 27 14:52:24 2020.
