 Gaussian 09, Revision D.01,
 Gaussian 09:  ES64L-G09RevD.01 24-Apr-2013

 -----------------------------
 # b3lyp 6-31G(2df,p) opt Freq
 -----------------------------

 -----
 titel
 -----
 Symbolic Z-matrix:
 Charge =  0 Multiplicity = 1

 SCF Done:  E(RB3LYP) =  -423.177121298     A.U. after   14 cycles
 Optimization completed.
    -- Stationary point found.
 Normal termination of Gaussian 09 at Mon Jan 27 15:53:24 2020.

 ----------------------------------------------------------------------
 #N Geom=AllCheck Guess=TCheck SCRF=Check GenChk RB3LYP/6-31G(2df,p) Fr
 eq
 ----------------------------------------------------------------------

 Structure from the checkpoint file:  "/scratch/puck/g09_fa8edab1-9dd5-4fba-a54c-c733da20f063/Gau-54280.chk"
 -----
 titel
 -----
 Charge =  0 Multiplicity = 1

                         Standard orientation:
 ---------------------------------------------------------------------
 Center     Atomic      Atomic             Coordinates (Angstroms)
 Number     Number       Type             X           Y           Z
 ---------------------------------------------------------------------
      1          6           0        0.727930   -1.669370    0.981623
      2          6           0        0.862904   -0.509703    0.007268
      3          6           0        2.221722   -0.472133   -0.679775
      4          6           0       -0.288153   -0.117295   -0.954552
      5          6           0       -1.603369   -0.162902   -0.260101
      6          8           0       -2.688357   -0.582413   -0.557683
      7          6           0       -1.126036    0.735888    0.916094
      8          6           0        0.235753    0.816216    0.215035
      9          8           0        1.001240    1.956209    0.155072
     10          1           0        0.884283   -2.618668    0.458285
     11          1           0        1.485676   -1.596320    1.770022
     12          1           0       -0.252222   -1.716662    1.460329
     13          1           0        2.302189    0.360286   -1.380967
     14          1           0        3.017541   -0.357788    0.063685
     15          1           0        2.398835   -1.406949   -1.221375
     16          1           0       -0.117862   -0.120570   -2.024870
     17          1           0       -1.664313    1.689976    0.872251
     18          1           0       -1.173249    0.350864    1.938216
     19          1           0        0.431547    2.701253   -0.068235
 ---------------------------------------------------------------------

 SCF Done:  E(RB3LYP) =  -423.177121298     A.U. after    1 cycles

 The electronic state is 1-A.
 Alpha  occ. eigenvalues --  -19.16988 -19.12427 -10.26604 -10.26257 -10.21996
 Alpha  occ. eigenvalues --  -10.19610 -10.19535 -10.18431 -10.18378  -1.05820
 Alpha  occ. eigenvalues --   -1.03443  -0.90077  -0.77633  -0.70763  -0.68544
 Alpha  occ. eigenvalues --   -0.64188  -0.56255  -0.53216  -0.50316  -0.47920
 Alpha  occ. eigenvalues --   -0.46829  -0.44371  -0.42835  -0.40916  -0.40072
 Alpha  occ. eigenvalues --   -0.39399  -0.38749  -0.38593  -0.36677  -0.35595
 Alpha  occ. eigenvalues --   -0.33278  -0.29103  -0.25065  -0.23644
 Alpha virt. eigenvalues --   -0.00774   0.05748   0.08961   0.10099   0.11549
 Alpha virt. eigenvalues --    0.13293   0.14037   0.14221   0.15889   0.16779
 Alpha virt. eigenvalues --    0.18213   0.19657   0.19909   0.21064   0.21346

 Mulliken charges:
               1
     1  C   -0.460139
     2  C    0.261182
     3  C   -0.446234
     4  C   -0.316200
     5  C    0.421980
     6  O   -0.325224
     7  C   -0.445491
     8  C    0.370078
     9  O   -0.449074
    10  H    0.125774
    11  H    0.121682
    12  H    0.128808
    13  H    0.129833
    14  H    0.126161
    15  H    0.119157
    16  H    0.104932
    17  H    0.119181
    18  H    0.122294
    19  H    0.291302
 Sum of Mulliken charges =   0.00000

 Dipole moment (field-independent basis, Debye):
    X=              2.1454    Y=              1.4288    Z=              0.4739  Tot=              2.6208
 Quadrupole moment (field-independent basis, Debye-Ang):
   XX=            -63.9116   YY=            -48.6699   ZZ=            -52.0953
   XY=             -6.1952   XZ=             -3.2430   YZ=             -1.7790

  Exact polarizability:  88.421  -1.668  74.596  -0.560   2.077  68.890
 Approx polarizability: 131.468   5.968 110.556   5.502   7.163 106.236

                      1                      2                      3
                      A                      A                      A
 Frequencies --    104.1274               171.5383               191.4931
 Red. masses --      5.4738                 1.1305                 2.2459
 Frc consts  --      0.0350                 0.0196                 0.0485
 IR Inten    --      5.6502                 0.2724                 0.5335

                      4                      5                      6
                      A                      A                      A
 Frequencies --    198.4390               246.6204               300.7619
 Red. masses --      1.3577                 2.1324                 1.8601
 Frc consts  --      0.0315                 0.0764                 0.0991
 IR Inten    --      1.7037                 2.4835                18.3878

                      7                      8                      9
                      A                      A                      A
 Frequencies --    319.0571               344.0902               378.6513
 Red. masses --      1.9843                 2.3093                 2.2702
 Frc consts  --      0.1190                 0.1611                 0.1918
 IR Inten    --      9.8481                23.9555                50.1647

                     10                     11                     12
                      A                      A                      A
 Frequencies --    459.2581               465.5501               504.7880
 Red. masses --      2.5977                 3.1643                 3.3777
 Frc consts  --      0.3228                 0.4041                 0.5071
 IR Inten    --      3.4463                 2.4996                 1.8417

                     13                     14                     15
                      A                      A                      A
 Frequencies --    560.6334               618.8772               673.3014
 Red. masses --      3.1469                 3.3536                 3.1028
 Frc consts  --      0.5828                 0.7568                 0.8288
 IR Inten    --      1.1904                 9.9985                 6.4422

                     16                     17                     18
                      A                      A                      A
 Frequencies --    676.9038               822.7224               855.3408
 Red. masses --      4.5925                 2.5254                 4.5328
 Frc consts  --      1.2398                 1.0071                 1.9539
 IR Inten    --      8.0576                32.4484                11.3889

                     19                     20                     21
                      A                      A                      A
 Frequencies --    916.2440               969.5550               973.0960
 Red. masses --      1.4844                 1.3878                 2.7169
 Frc consts  --      0.7342                 0.7686                 1.5158
 IR Inten    --      9.5210                 0.4641                 6.5883

                     22                     23                     24
                      A                      A                      A
 Frequencies --    987.9972              1026.0329              1056.9305
 Red. masses --      1.8342                 1.4326                 1.9307
 Frc consts  --      1.0549                 0.8886                 1.2708
 IR Inten    --      3.8269                 2.3656                21.4420

                     25                     26                     27
                      A                      A                      A
 Frequencies --   1097.3686              1130.6256              1147.6214
 Red. masses --      1.2715                 2.4443                 1.7836
 Frc consts  --      0.9021                 1.8410                 1.3840
 IR Inten    --     15.4679                46.8258                20.3007

                     28                     29                     30
                      A                      A                      A
 Frequencies --   1179.5755              1198.3490              1258.4363
 Red. masses --      2.6868                 1.6740                 2.8101
 Frc consts  --      2.2026                 1.4163                 2.6221
 IR Inten    --     46.2749                15.0906                38.2258

                     31                     32                     33
                      A                      A                      A
 Frequencies --   1283.2334              1325.8008              1408.6683
 Red. masses --      2.0405                 2.6938                 1.2868
 Frc consts  --      1.9797                 2.7898                 1.5044
 IR Inten    --     10.5729               171.0907                 1.7256

                     34                     35                     36
                      A                      A                      A
 Frequencies --   1425.5924              1448.3861              1477.5036
 Red. masses --      1.2688                 1.4190                 1.2663
 Frc consts  --      1.5193                 1.7539                 1.6287
 IR Inten    --      0.7543                 6.5574                 2.0992

                     37                     38                     39
                      A                      A                      A
 Frequencies --   1480.7182              1489.4103              1502.9791
 Red. masses --      1.0543                 1.0849                 1.0564
 Frc consts  --      1.3620                 1.4180                 1.4060
 IR Inten    --      0.8484                 6.9745                 6.0413

                     40                     41                     42
                      A                      A                      A
 Frequencies --   1520.8135              1869.7593              3033.4390
 Red. masses --      1.4417                12.4090                 1.0380
 Frc consts  --      1.9646                25.5598                 5.6275
 IR Inten    --      9.9235               354.4640                16.4898

                     43                     44                     45
                      A                      A                      A
 Frequencies --   3040.1360              3045.0752              3093.4457
 Red. masses --      1.0377                 1.0593                 1.1008
 Frc consts  --      5.6507                 5.7870                 6.2063
 IR Inten    --     38.7196                11.3682                 6.9876

                     46                     47                     48
                      A                      A                      A
 Frequencies --   3100.1789              3100.5225              3124.7873
 Red. masses --      1.1038                 1.1013                 1.0988
 Frc consts  --      6.2504                 6.2377                 6.3213
 IR Inten    --     20.3902                23.6264                19.0992

                     49                     50                     51
                      A                      A                      A
 Frequencies --   3134.4898              3188.3366              3791.9728
 Red. masses --      1.0996                 1.0934                 1.0659
 Frc consts  --      6.3655                 6.5486                 9.0298
 IR Inten    --     14.5939                 4.1479                25.1488

 - Thermochemistry -
 -------------------
 Temperature   298.150 Kelvin.  Pressure   1.00000 Atm.
 Atom     1 has atomic number  6 and mass  12.00000

 Molecular mass:   126.06808 amu.
 Principal axes and moments of inertia in atomic units:
                           1         2         3
     Eigenvalues --   740.528401229.679901526.29023
           X            0.99680  -0.07468  -0.02854
           Y            0.07370   0.99670  -0.03398
           Z            0.03099   0.03177   0.99901
 This molecule is an asymmetric top.
 Rotational symmetry number  1.
 Warning -- assumption of classical behavior for rotation
           may cause significant error
 Rotational temperatures (Kelvin)      0.11696     0.07044     0.05675
 Rotational constants (GHZ):           2.43710     1.46765     1.18244
 Zero-point vibrational energy     411032.3 (Joules/Mol)
                                   98.23908 (Kcal/Mol)
 Warning -- explicit consideration of  14 degrees of freedom as
           vibrations may cause significant error
 Vibrational temperatures:    149.82   246.80   275.52   285.51   354.83
          (Kelvin)            432.73   459.05   495.07   544.79   660.77
                              669.82   726.28   806.63   890.43   968.73
                              973.91  1183.71  1230.64  1318.27  1394.97
                             1400.07  1421.51  1476.23  1520.69  1578.87
                             1626.72  1651.17  1697.14  1724.15  1810.61
                             1846.28  1907.53  2026.76  2051.11  2083.90
                             2125.80  2130.42  2142.93  2162.45  2188.11
                             2690.16  4364.44  4374.07  4381.18  4450.77
                             4460.46  4460.95  4495.87  4509.83  4587.30
                             5455.80

 Zero-point correction=                           0.156554 (Hartree/Particle)
 Thermal correction to Energy=                    0.165725
 Thermal correction to Enthalpy=                  0.166669
 Thermal correction to Gibbs Free Energy=         0.123341
 Sum of electronic and zero-point Energies=           -423.020567
 Sum of electronic and thermal Energies=              -423.011397
 Sum of electronic and thermal Enthalpies=            -423.010452
 Sum of electronic and thermal Free Energies=         -423.053780

                     E (Thermal)             CV                S
                      KCal/Mol        Cal/Mol-Kelvin    Cal/Mol-Kelvin
 Total                  103.994             35.322             91.191
 Electronic               0.000              0.000              0.000
 Translational            0.889              2.981             40.409
 Rotational               0.889              2.981             28.721
 Vibrational            102.216             29.361             22.061
 Vibration     1          0.605              1.946              3.376
 Vibration     2          0.626              1.878              2.419
 Vibration     3          0.634              1.852              2.213
 Vibration     4          0.637              1.842              2.148
 Vibration     5          0.661              1.768              1.755
 Vibration     6          0.693              1.672              1.413
 Vibration     7          0.705              1.637              1.315
 Vibration     8          0.723              1.587              1.193
 Vibration     9          0.749              1.516              1.045
 Vibration    10          0.817              1.340              0.768
 Vibration    11          0.823              1.326              0.750
 Vibration    12          0.860              1.239              0.646
 Vibration    13          0.916              1.116              0.523
 Vibration    14          0.979              0.992              0.418

 Normal termination of Gaussian 09 at Mon Jan 27 16:33:51 2020.
