 Gaussian 09, Revision D.01,
 Gaussian 09:  ES64L-G09RevD.01 24-Apr-2013

 -----------------------------
 # b3lyp 6-31G(2df,p) opt Freq
 -----------------------------

 -----
 titel
 -----
 Symbolic Z-matrix:
 Charge =  0 Multiplicity = 1

 SCF Done:  E(RB3LYP) =  -423.143656325     A.U. after   14 cycles
 Optimization completed.
    -- Stationary point found.
 Normal termination of Gaussian 09 at Mon Jan 27 22:55:26 2020.

 ----------------------------------------------------------------------
 #N Geom=AllCheck Guess=TCheck SCRF=Check GenChk RB3LYP/6-31G(2df,p) Fr
 eq
 ----------------------------------------------------------------------

 Structure from the checkpoint file:  "/scratch/puck/g09_f2d19de9-1ad8-478a-a201-0c62f08b2569/Gau-183269.chk"
 -----
 titel
 -----
 Charge =  0 Multiplicity = 1

                         Standard orientation:
 ---------------------------------------------------------------------
 Center     Atomic      Atomic             Coordinates (Angstroms)
 Number     Number       Type             X           Y           Z
 ---------------------------------------------------------------------
      1          6           0       -1.784606   -0.837245   -1.082899
      2          6           0       -0.284802   -0.632385   -0.901797
      3          6           0        0.450683   -1.237851    0.361187
      4          6           0        1.890535   -0.834604    0.047853
      5          6           0        1.778395    0.434104   -0.368148
      6          6           0        0.274237    0.689987   -0.258665
      7          8           0       -0.305846    1.908991   -0.609444
      8          6           0        0.030567    0.057619    1.164117
      9          8           0       -1.283709    0.134024    1.651020
     10          1           0       -2.185029   -0.078784   -1.765082
     11          1           0       -1.965404   -1.815616   -1.542053
     12          1           0       -2.339030   -0.793039   -0.147629
     13          1           0        0.223807   -0.870447   -1.840187
     14          1           0        0.240363   -2.238100    0.734368
     15          1           0        2.773059   -1.447502    0.165897
     16          1           0        2.530401    1.142176   -0.689742
     17          1           0        0.232145    2.624394   -0.252411
     18          1           0        0.744497    0.352552    1.944336
     19          1           0       -1.668428    0.942500    1.290008
 ---------------------------------------------------------------------

 SCF Done:  E(RB3LYP) =  -423.143656325     A.U. after    1 cycles

 The electronic state is 1-A.
 Alpha  occ. eigenvalues --  -19.15646 -19.13659 -10.24199 -10.22773 -10.19209
 Alpha  occ. eigenvalues --  -10.18719 -10.18381 -10.18173 -10.16323  -1.04296
 Alpha  occ. eigenvalues --   -1.01818  -0.88633  -0.74452  -0.69129  -0.66491
 Alpha  occ. eigenvalues --   -0.62221  -0.56023  -0.53938  -0.52576  -0.48840
 Alpha  occ. eigenvalues --   -0.47253  -0.44402  -0.41530  -0.39977  -0.38754
 Alpha  occ. eigenvalues --   -0.38436  -0.36104  -0.34551  -0.34010  -0.33644
 Alpha  occ. eigenvalues --   -0.29797  -0.26374  -0.26193  -0.23023
 Alpha virt. eigenvalues --    0.00894   0.06262   0.10618   0.11323   0.12722
 Alpha virt. eigenvalues --    0.14298   0.14884   0.16092   0.17070   0.18106
 Alpha virt. eigenvalues --    0.18320   0.19233   0.20405   0.21869   0.24114

 Mulliken charges:
               1
     1  C   -0.452116
     2  C    0.025381
     3  C   -0.136256
     4  C   -0.086086
     5  C   -0.175506
     6  C    0.303460
     7  O   -0.498271
     8  C    0.121401
     9  O   -0.453906
    10  H    0.121986
    11  H    0.110218
    12  H    0.137878
    13  H    0.070815
    14  H    0.070350
    15  H    0.104581
    16  H    0.100034
    17  H    0.284563
    18  H    0.062920
    19  H    0.288554
 Sum of Mulliken charges =   0.00000

 Dipole moment (field-independent basis, Debye):
    X=              1.4100    Y=              1.1250    Z=             -0.2448  Tot=              1.8203
 Quadrupole moment (field-independent basis, Debye-Ang):
   XX=            -52.3586   YY=            -47.3285   ZZ=            -57.5075
   XY=              0.4839   XZ=              1.0273   YZ=              2.1915

  Exact polarizability:  82.370  -0.069  77.980   1.693  -1.482  65.850
 Approx polarizability: 115.032  -2.821 126.783  -0.085  -7.691 100.827

                      1                      2                      3
                      A                      A                      A
 Frequencies --    144.0030               173.4179               205.3105
 Red. masses --      1.3115                 2.1553                 2.8341
 Frc consts  --      0.0160                 0.0382                 0.0704
 IR Inten    --     10.5693                 4.7505                 3.3514

                      4                      5                      6
                      A                      A                      A
 Frequencies --    248.1467               290.5810               293.7893
 Red. masses --      2.7365                 1.5962                 2.4886
 Frc consts  --      0.0993                 0.0794                 0.1266
 IR Inten    --     21.9277                37.4549                 7.6660

                      7                      8                      9
                      A                      A                      A
 Frequencies --    356.0804               403.9675               435.9109
 Red. masses --      1.1743                 2.9949                 2.9367
 Frc consts  --      0.0877                 0.2880                 0.3288
 IR Inten    --    100.1322                 4.3562                 7.3335

                     10                     11                     12
                      A                      A                      A
 Frequencies --    462.9587               558.2059               612.4526
 Red. masses --      3.4870                 2.8779                 5.0780
 Frc consts  --      0.4403                 0.5283                 1.1222
 IR Inten    --      5.5662                 1.9713                 5.4910

                     13                     14                     15
                      A                      A                      A
 Frequencies --    660.3197               668.8637               685.9473
 Red. masses --      2.3881                 2.2814                 4.1372
 Frc consts  --      0.6135                 0.6013                 1.1469
 IR Inten    --     18.3028                23.0019                 2.5592

                     16                     17                     18
                      A                      A                      A
 Frequencies --    813.3271               866.5423               900.8197
 Red. masses --      2.0891                 2.8149                 1.4097
 Frc consts  --      0.8142                 1.2453                 0.6740
 IR Inten    --     15.8269                10.9625                 0.4688

                     19                     20                     21
                      A                      A                      A
 Frequencies --    909.6003               934.8385               964.1580
 Red. masses --      2.2021                 3.0568                 2.2062
 Frc consts  --      1.0735                 1.5739                 1.2083
 IR Inten    --      3.6660                32.0938                 0.4593

                     22                     23                     24
                      A                      A                      A
 Frequencies --   1011.6955              1049.3485              1075.6784
 Red. masses --      3.4019                 1.2969                 2.0349
 Frc consts  --      2.0515                 0.8414                 1.3873
 IR Inten    --     26.2141                11.9577                 7.4301

                     25                     26                     27
                      A                      A                      A
 Frequencies --   1094.3451              1111.5611              1134.9051
 Red. masses --      1.4238                 2.2875                 1.4577
 Frc consts  --      1.0046                 1.6652                 1.1062
 IR Inten    --      1.1150                22.4768                72.0066

                     28                     29                     30
                      A                      A                      A
 Frequencies --   1141.3663              1220.4173              1224.7561
 Red. masses --      2.0799                 1.5452                 1.9714
 Frc consts  --      1.5964                 1.3560                 1.7423
 IR Inten    --     32.1793                14.8961                23.4869

                     31                     32                     33
                      A                      A                      A
 Frequencies --   1235.7638              1270.4326              1313.8815
 Red. masses --      1.4628                 2.6742                 1.7426
 Frc consts  --      1.3162                 2.5430                 1.7724
 IR Inten    --      6.2922                69.2537                70.8186

                     34                     35                     36
                      A                      A                      A
 Frequencies --   1341.0470              1360.8960              1367.6627
 Red. masses --      1.5985                 1.6980                 1.2052
 Frc consts  --      1.6937                 1.8528                 1.3282
 IR Inten    --     19.4034                46.5663                 3.3958

                     37                     38                     39
                      A                      A                      A
 Frequencies --   1404.0213              1413.4222              1492.5225
 Red. masses --      1.2579                 1.3295                 1.0503
 Frc consts  --      1.4609                 1.5649                 1.3786
 IR Inten    --      6.6071                17.3674                 2.6013

                     40                     41                     42
                      A                      A                      A
 Frequencies --   1516.7167              1613.0795              3015.1744
 Red. masses --      1.0487                 5.8103                 1.0856
 Frc consts  --      1.4214                 8.9076                 5.8147
 IR Inten    --      3.9034                 2.7665                77.7232

                     43                     44                     45
                      A                      A                      A
 Frequencies --   3035.1669              3063.7130              3088.6003
 Red. masses --      1.0431                 1.0843                 1.0999
 Frc consts  --      5.6615                 5.9966                 6.1819
 IR Inten    --     26.8672                30.6996                20.6628

                     46                     47                     48
                      A                      A                      A
 Frequencies --   3141.1882              3168.1560              3210.0166
 Red. masses --      1.0907                 1.0949                 1.0868
 Frc consts  --      6.3408                 6.4747                 6.5978
 IR Inten    --     23.0033                 7.7836                 4.9771

                     49                     50                     51
                      A                      A                      A
 Frequencies --   3237.6339              3773.1309              3800.6628
 Red. masses --      1.1090                 1.0661                 1.0659
 Frc consts  --      6.8493                 8.9421                 9.0718
 IR Inten    --     10.4563                36.6134                22.0568

 - Thermochemistry -
 -------------------
 Temperature   298.150 Kelvin.  Pressure   1.00000 Atm.
 Atom     1 has atomic number  6 and mass  12.00000

 Molecular mass:   126.06808 amu.
 Principal axes and moments of inertia in atomic units:
                           1         2         3
     Eigenvalues --   844.200331042.397041113.38016
           X            0.99670   0.03833   0.07162
           Y           -0.05036   0.98335   0.17463
           Z           -0.06373  -0.17766   0.98203
 This molecule is an asymmetric top.
 Rotational symmetry number  1.
 Warning -- assumption of classical behavior for rotation
           may cause significant error
 Rotational temperatures (Kelvin)      0.10260     0.08309     0.07779
 Rotational constants (GHZ):           2.13781     1.73134     1.62096
 Zero-point vibrational energy     415799.2 (Joules/Mol)
                                   99.37840 (Kcal/Mol)
 Warning -- explicit consideration of  12 degrees of freedom as
           vibrations may cause significant error
 Vibrational temperatures:    207.19   249.51   295.40   357.03   418.08
          (Kelvin)            422.70   512.32   581.22   627.18   666.09
                              803.13   881.18   950.05   962.34   986.92
                             1170.19  1246.76  1296.08  1308.71  1345.02
                             1387.21  1455.60  1509.78  1547.66  1574.52
                             1599.29  1632.87  1642.17  1755.91  1762.15
                             1777.99  1827.87  1890.38  1929.47  1958.02
                             1967.76  2020.07  2033.60  2147.40  2182.21
                             2320.86  4338.16  4366.92  4407.99  4443.80
                             4519.46  4558.26  4618.49  4658.23  5428.69
                             5468.30

 Zero-point correction=                           0.158370 (Hartree/Particle)
 Thermal correction to Energy=                    0.166901
 Thermal correction to Enthalpy=                  0.167845
 Thermal correction to Gibbs Free Energy=         0.126048
 Sum of electronic and zero-point Energies=           -422.985287
 Sum of electronic and thermal Energies=              -422.976756
 Sum of electronic and thermal Enthalpies=            -422.975811
 Sum of electronic and thermal Free Energies=         -423.017608

                     E (Thermal)             CV                S
                      KCal/Mol        Cal/Mol-Kelvin    Cal/Mol-Kelvin
 Total                  104.732             33.970             87.969
 Electronic               0.000              0.000              0.000
 Translational            0.889              2.981             40.409
 Rotational               0.889              2.981             28.373
 Vibrational            102.954             28.009             19.187
 Vibration     1          0.616              1.909              2.750
 Vibration     2          0.627              1.875              2.398
 Vibration     3          0.640              1.832              2.085
 Vibration     4          0.662              1.766              1.744
 Vibration     5          0.687              1.691              1.471
 Vibration     6          0.689              1.685              1.452
 Vibration     7          0.732              1.563              1.139
 Vibration     8          0.769              1.462              0.948
 Vibration     9          0.796              1.392              0.840
 Vibration    10          0.821              1.332              0.758
 Vibration    11          0.914              1.122              0.527
 Vibration    12          0.972              1.005              0.429

 Normal termination of Gaussian 09 at Mon Jan 27 23:42:31 2020.
