 Gaussian 09, Revision D.01,
 Gaussian 09:  ES64L-G09RevD.01 24-Apr-2013

 -----------------------------
 # b3lyp 6-31G(2df,p) opt Freq
 -----------------------------

 -----
 titel
 -----
 Symbolic Z-matrix:
 Charge =  0 Multiplicity = 1

 SCF Done:  E(RB3LYP) =  -423.125763991     A.U. after   13 cycles
 Optimization completed.
    -- Stationary point found.
 Normal termination of Gaussian 09 at Tue Jan 28 14:07:30 2020.

 ----------------------------------------------------------------------
 #N Geom=AllCheck Guess=TCheck SCRF=Check GenChk RB3LYP/6-31G(2df,p) Fr
 eq
 ----------------------------------------------------------------------

 Structure from the checkpoint file:  "/scratch/puck/g09_46de71c7-6f81-4136-9648-10240b4db230/Gau-33544.chk"
 -----
 titel
 -----
 Charge =  0 Multiplicity = 1

                         Standard orientation:
 ---------------------------------------------------------------------
 Center     Atomic      Atomic             Coordinates (Angstroms)
 Number     Number       Type             X           Y           Z
 ---------------------------------------------------------------------
      1          8           0       -2.912494   -0.445257   -0.236699
      2          6           0       -2.017623    0.587661    0.148384
      3          6           0       -0.655447    0.274228   -0.446459
      4          6           0        0.462703    1.176348    0.149385
      5          6           0        1.820665    0.994261   -0.579939
      6          6           0        1.992612   -0.375732    0.118775
      7          8           0        1.175695   -1.398949   -0.491392
      8          6           0        0.006159   -0.953446    0.231253
      9          6           0        0.861379   -0.005194    1.120167
     10          1           0       -3.768830   -0.269422    0.163683
     11          1           0       -2.357676    1.571891   -0.212568
     12          1           0       -1.937635    0.655890    1.247051
     13          1           0       -0.727424    0.221997   -1.537055
     14          1           0        0.183796    2.179861    0.475455
     15          1           0        1.830482    1.000853   -1.673362
     16          1           0        2.561280    1.708048   -0.203364
     17          1           0        2.993515   -0.739914    0.358543
     18          1           0       -0.628384   -1.780325    0.552189
     19          1           0        0.922582    0.016014    2.204761
 ---------------------------------------------------------------------

 SCF Done:  E(RB3LYP) =  -423.125763991     A.U. after    1 cycles

 The electronic state is 1-A.
 Alpha  occ. eigenvalues --  -19.13621 -19.12645 -10.23004 -10.22987 -10.22579
 Alpha  occ. eigenvalues --  -10.19197 -10.18783 -10.18159 -10.18064  -1.03940
 Alpha  occ. eigenvalues --   -1.01692  -0.84812  -0.76381  -0.69218  -0.64910
 Alpha  occ. eigenvalues --   -0.60316  -0.58135  -0.52085  -0.51496  -0.49588
 Alpha  occ. eigenvalues --   -0.47885  -0.45042  -0.42135  -0.41261  -0.40820
 Alpha  occ. eigenvalues --   -0.38206  -0.37343  -0.33668  -0.32019  -0.30781
 Alpha  occ. eigenvalues --   -0.27716  -0.27536  -0.27064  -0.23236
 Alpha virt. eigenvalues --    0.07155   0.07576   0.10029   0.10186   0.11769
 Alpha virt. eigenvalues --    0.13916   0.15562   0.15675   0.15978   0.16853
 Alpha virt. eigenvalues --    0.17476   0.18233   0.20385   0.21558   0.22088

 Mulliken charges:
               1
     1  O   -0.422496
     2  C   -0.099353
     3  C   -0.005883
     4  C   -0.070216
     5  C   -0.253661
     6  C    0.106938
     7  O   -0.310036
     8  C    0.116688
     9  C   -0.102204
    10  H    0.287727
    11  H    0.088050
    12  H    0.083393
    13  H    0.081295
    14  H    0.063315
    15  H    0.102794
    16  H    0.099382
    17  H    0.075879
    18  H    0.086609
    19  H    0.071779
 Sum of Mulliken charges =   0.00000

 Dipole moment (field-independent basis, Debye):
    X=             -0.8366    Y=              2.2683    Z=              1.8546  Tot=              3.0471
 Quadrupole moment (field-independent basis, Debye-Ang):
   XX=            -46.1469   YY=            -55.7827   ZZ=            -53.0350
   XY=             -0.1142   XZ=             -1.6798   YZ=             -1.9926

  Exact polarizability:  88.364   1.694  69.987  -0.842  -1.334  64.675
 Approx polarizability: 114.230   2.070 106.903  -0.912   1.564 101.048

                      1                      2                      3
                      A                      A                      A
 Frequencies --    102.5136               154.6595               199.2616
 Red. masses --      4.0177                 4.4114                 1.9485
 Frc consts  --      0.0249                 0.0622                 0.0456
 IR Inten    --      2.1024                 1.6884                19.2804

                      4                      5                      6
                      A                      A                      A
 Frequencies --    265.1488               324.9659               368.0697
 Red. masses --      1.1902                 3.1577                 2.7366
 Frc consts  --      0.0493                 0.1965                 0.2184
 IR Inten    --     83.2817                 2.3517                 0.1551

                      7                      8                      9
                      A                      A                      A
 Frequencies --    413.7712               509.0496               687.5325
 Red. masses --      3.9853                 3.1587                 3.9125
 Frc consts  --      0.4020                 0.4823                 1.0896
 IR Inten    --      8.6347                13.8115                 0.5479

                     10                     11                     12
                      A                      A                      A
 Frequencies --    713.6735               801.8474               827.9262
 Red. masses --      3.9549                 2.0646                 1.7332
 Frc consts  --      1.1868                 0.7821                 0.7000
 IR Inten    --      4.4294                 6.9894                 0.0804

                     13                     14                     15
                      A                      A                      A
 Frequencies --    836.8992               869.2960               909.4455
 Red. masses --      1.5194                 2.1785                 2.3326
 Frc consts  --      0.6270                 0.9699                 1.1367
 IR Inten    --      0.5698                 3.4769                 0.3756

                     16                     17                     18
                      A                      A                      A
 Frequencies --    910.8181               955.7930               984.4221
 Red. masses --      2.1510                 2.6134                 3.2727
 Frc consts  --      1.0514                 1.4066                 1.8686
 IR Inten    --     17.1682                39.7264                 6.0012

                     19                     20                     21
                      A                      A                      A
 Frequencies --    999.4575              1012.5000              1044.4441
 Red. masses --      2.8043                 3.5530                 2.3802
 Frc consts  --      1.6504                 2.1460                 1.5298
 IR Inten    --     25.9375                34.2701                 1.6145

                     22                     23                     24
                      A                      A                      A
 Frequencies --   1051.8420              1086.1267              1115.9024
 Red. masses --      1.8652                 4.1106                 1.8474
 Frc consts  --      1.2158                 2.8570                 1.3554
 IR Inten    --      3.6284                78.4594                 2.6198

                     25                     26                     27
                      A                      A                      A
 Frequencies --   1122.2315              1135.1710              1148.4446
 Red. masses --      2.0367                 1.4396                 2.0550
 Frc consts  --      1.5113                 1.0930                 1.5969
 IR Inten    --      4.7471                15.0619                18.9954

                     28                     29                     30
                      A                      A                      A
 Frequencies --   1188.6520              1192.2112              1220.1128
 Red. masses --      1.5148                 1.4656                 1.2550
 Frc consts  --      1.2610                 1.2273                 1.1008
 IR Inten    --      0.2095                 2.3064                 9.5949

                     31                     32                     33
                      A                      A                      A
 Frequencies --   1241.8537              1258.4298              1269.0410
 Red. masses --      1.3053                 1.4030                 1.6190
 Frc consts  --      1.1861                 1.3091                 1.5362
 IR Inten    --      3.7916                 1.4541                 3.0303

                     34                     35                     36
                      A                      A                      A
 Frequencies --   1281.8402              1295.9605              1304.0638
 Red. masses --      1.5041                 1.4294                 1.4182
 Frc consts  --      1.4561                 1.4145                 1.4210
 IR Inten    --     30.2015                17.0926                 3.6871

                     37                     38                     39
                      A                      A                      A
 Frequencies --   1336.2174              1367.5905              1457.7392
 Red. masses --      1.4211                 1.5838                 1.4687
 Frc consts  --      1.4950                 1.7452                 1.8388
 IR Inten    --      9.3244                 1.5441                 8.6525

                     40                     41                     42
                      A                      A                      A
 Frequencies --   1468.9175              1518.7946              2952.8621
 Red. masses --      1.1131                 1.0804                 1.0574
 Frc consts  --      1.4151                 1.4684                 5.4321
 IR Inten    --      1.0663                 4.4178                48.8256

                     43                     44                     45
                      A                      A                      A
 Frequencies --   2982.7018              3042.5102              3068.4542
 Red. masses --      1.1022                 1.0587                 1.0857
 Frc consts  --      5.7774                 5.7740                 6.0226
 IR Inten    --     55.3965                30.0062                30.1690

                     46                     47                     48
                      A                      A                      A
 Frequencies --   3087.9222              3089.6064              3103.8796
 Red. masses --      1.0889                 1.0905                 1.1056
 Frc consts  --      6.1172                 6.1331                 6.2757
 IR Inten    --     84.6699                29.0252                32.1494

                     49                     50                     51
                      A                      A                      A
 Frequencies --   3106.4965              3151.5870              3831.0916
 Red. masses --      1.0907                 1.0947                 1.0664
 Frc consts  --      6.2014                 6.4065                 9.2218
 IR Inten    --     29.5867                27.6974                22.7356

 - Thermochemistry -
 -------------------
 Temperature   298.150 Kelvin.  Pressure   1.00000 Atm.
 Atom     1 has atomic number  8 and mass  15.99491

 Molecular mass:   126.06808 amu.
 Principal axes and moments of inertia in atomic units:
                           1         2         3
     Eigenvalues --   485.522751411.212931611.54132
           X            0.99996   0.00493  -0.00695
           Y           -0.00518   0.99932  -0.03639
           Z            0.00676   0.03643   0.99931
 This molecule is an asymmetric top.
 Rotational symmetry number  1.
 Warning -- assumption of classical behavior for rotation
           may cause significant error
 Rotational temperatures (Kelvin)      0.17839     0.06138     0.05375
 Rotational constants (GHZ):           3.71711     1.27886     1.11989
 Zero-point vibrational energy     420904.6 (Joules/Mol)
                                  100.59861 (Kcal/Mol)
 Warning -- explicit consideration of   8 degrees of freedom as
           vibrations may cause significant error
 Vibrational temperatures:    147.49   222.52   286.69   381.49   467.55
          (Kelvin)            529.57   595.32   732.41   989.20  1026.82
                             1153.68  1191.20  1204.11  1250.72  1308.49
                             1310.46  1375.17  1416.36  1437.99  1456.76
                             1502.72  1513.36  1562.69  1605.53  1614.64
                             1633.26  1652.35  1710.20  1715.32  1755.47
                             1786.75  1810.60  1825.86  1844.28  1864.60
                             1876.25  1922.52  1967.66  2097.36  2113.44
                             2185.20  4248.50  4291.44  4377.49  4414.82
                             4442.83  4445.25  4465.78  4469.55  4534.43
                             5512.08

 Zero-point correction=                           0.160314 (Hartree/Particle)
 Thermal correction to Energy=                    0.167881
 Thermal correction to Enthalpy=                  0.168825
 Thermal correction to Gibbs Free Energy=         0.128229
 Sum of electronic and zero-point Energies=           -422.965450
 Sum of electronic and thermal Energies=              -422.957883
 Sum of electronic and thermal Enthalpies=            -422.956939
 Sum of electronic and thermal Free Energies=         -422.997535

                     E (Thermal)             CV                S
                      KCal/Mol        Cal/Mol-Kelvin    Cal/Mol-Kelvin
 Total                  105.347             29.839             85.442
 Electronic               0.000              0.000              0.000
 Translational            0.889              2.981             40.409
 Rotational               0.889              2.981             28.492
 Vibrational            103.569             23.877             16.541
 Vibration     1          0.605              1.947              3.406
 Vibration     2          0.620              1.897              2.614
 Vibration     3          0.637              1.841              2.140
 Vibration     4          0.671              1.737              1.628
 Vibration     5          0.709              1.626              1.285
 Vibration     6          0.741              1.538              1.088
 Vibration     7          0.777              1.440              0.913
 Vibration     8          0.864              1.230              0.636

 Optimization completed.
    -- Stationary point found.
 Normal termination of Gaussian 09 at Tue Jan 28 14:50:53 2020.
