 Gaussian 09, Revision D.01,
 Gaussian 09:  ES64L-G09RevD.01 24-Apr-2013

 -----------------------------
 # b3lyp 6-31G(2df,p) opt Freq
 -----------------------------

 -----
 titel
 -----
 Symbolic Z-matrix:
 Charge =  0 Multiplicity = 1

 SCF Done:  E(RB3LYP) =  -423.199583402     A.U. after   14 cycles
 Optimization completed.
    -- Stationary point found.
 Normal termination of Gaussian 09 at Mon Jan 27 17:06:30 2020.

 ----------------------------------------------------------------------
 #N Geom=AllCheck Guess=TCheck SCRF=Check GenChk RB3LYP/6-31G(2df,p) Fr
 eq
 ----------------------------------------------------------------------

 Structure from the checkpoint file:  "/scratch/puck/g09_c80570ce-959f-492b-857b-2274a76e027c/Gau-59739.chk"
 -----
 titel
 -----
 Charge =  0 Multiplicity = 1

                         Standard orientation:
 ---------------------------------------------------------------------
 Center     Atomic      Atomic             Coordinates (Angstroms)
 Number     Number       Type             X           Y           Z
 ---------------------------------------------------------------------
      1          6           0        2.478052    0.310622    0.319717
      2          6           0        1.042075   -0.108174    0.138809
      3          6           0        0.018935   -0.250024    1.322279
      4          6           0       -1.077589   -0.104741    0.185847
      5          8           0       -2.391088    0.259857    0.396900
      6          6           0       -0.845188   -1.390646   -0.623954
      7          6           0        0.720601   -1.393285   -0.668983
      8          6           0       -0.033994    0.847183   -0.407966
      9          8           0       -0.072278    1.973879   -0.817770
     10          1           0        2.965917    0.445400   -0.651674
     11          1           0        2.548588    1.259426    0.860293
     12          1           0        3.045903   -0.442556    0.876428
     13          1           0        0.026010   -1.203453    1.855974
     14          1           0        0.034384    0.593753    2.015223
     15          1           0       -2.430465    1.224165    0.412522
     16          1           0       -1.258166   -2.261913   -0.108859
     17          1           0       -1.306075   -1.330313   -1.613008
     18          1           0        1.150196   -2.275861   -0.185842
     19          1           0        1.113278   -1.344146   -1.688592
 ---------------------------------------------------------------------

 SCF Done:  E(RB3LYP) =  -423.199583402     A.U. after    1 cycles

 The electronic state is 1-A.
 Alpha  occ. eigenvalues --  -19.15284 -19.14025 -10.26497 -10.24720 -10.20834
 Alpha  occ. eigenvalues --  -10.19828 -10.19716 -10.19324 -10.18412  -1.05506
 Alpha  occ. eigenvalues --   -1.03463  -0.89510  -0.75018  -0.73157  -0.66365
 Alpha  occ. eigenvalues --   -0.63589  -0.56980  -0.53725  -0.50469  -0.46671
 Alpha  occ. eigenvalues --   -0.46114  -0.45870  -0.42643  -0.40495  -0.39033
 Alpha  occ. eigenvalues --   -0.38110  -0.37861  -0.37434  -0.36252  -0.35463
 Alpha  occ. eigenvalues --   -0.33624  -0.32496  -0.27212  -0.23075
 Alpha virt. eigenvalues --   -0.00660   0.07438   0.08604   0.10966   0.11890
 Alpha virt. eigenvalues --    0.13746   0.14302   0.15771   0.16590   0.16811
 Alpha virt. eigenvalues --    0.17362   0.19206   0.20123   0.20975   0.22118

 Mulliken charges:
               1
     1  C   -0.494284
     2  C    0.195615
     3  C   -0.336634
     4  C    0.315278
     5  O   -0.483587
     6  C   -0.259284
     7  C   -0.258179
     8  C    0.333783
     9  O   -0.344764
    10  H    0.127966
    11  H    0.127586
    12  H    0.119698
    13  H    0.108353
    14  H    0.111448
    15  H    0.294247
    16  H    0.111879
    17  H    0.114737
    18  H    0.106170
    19  H    0.109970
 Sum of Mulliken charges =   0.00000

 Dipole moment (field-independent basis, Debye):
    X=              1.1187    Y=             -1.6087    Z=              0.9144  Tot=              2.1623
 Quadrupole moment (field-independent basis, Debye-Ang):
   XX=            -54.9856   YY=            -55.4010   ZZ=            -52.6677
   XY=             -2.7435   XZ=              0.4135   YZ=              3.4689

  Exact polarizability:  80.439  -0.708  77.209   0.441  -0.724  67.428
 Approx polarizability: 108.994  -2.174 120.673  -0.364  -7.741 104.700

                      1                      2                      3
                      A                      A                      A
 Frequencies --    137.4427               175.2244               184.1905
 Red. masses --      3.5098                 1.4981                 1.6635
 Frc consts  --      0.0391                 0.0271                 0.0333
 IR Inten    --     10.1239                17.8456                 9.6802

                      4                      5                      6
                      A                      A                      A
 Frequencies --    218.8304               248.4168               281.0519
 Red. masses --      2.8301                 1.8667                 2.8320
 Frc consts  --      0.0798                 0.0679                 0.1318
 IR Inten    --      3.0477                 0.6835                 0.6808

                      7                      8                      9
                      A                      A                      A
 Frequencies --    315.3434               399.4131               435.2184
 Red. masses --      1.6667                 2.7395                 2.0811
 Frc consts  --      0.0977                 0.2575                 0.2323
 IR Inten    --     58.7409                 2.1680                 0.5398

                     10                     11                     12
                      A                      A                      A
 Frequencies --    544.7013               564.8316               593.5038
 Red. masses --      3.5438                 3.5991                 5.5159
 Frc consts  --      0.6195                 0.6765                 1.1448
 IR Inten    --      1.1240                 3.8122                 1.8116

                     13                     14                     15
                      A                      A                      A
 Frequencies --    694.7833               717.2113               788.4419
 Red. masses --      4.4234                 4.4959                 2.1568
 Frc consts  --      1.2581                 1.3626                 0.7900
 IR Inten    --      0.9480                11.5439                 1.2775

                     16                     17                     18
                      A                      A                      A
 Frequencies --    864.3720               879.9357               903.0282
 Red. masses --      1.7178                 2.7492                 3.8659
 Frc consts  --      0.7562                 1.2542                 1.8574
 IR Inten    --     12.4014                32.7951                13.5609

                     19                     20                     21
                      A                      A                      A
 Frequencies --    922.9594               957.8759               968.2707
 Red. masses --      2.1328                 2.6094                 1.4294
 Frc consts  --      1.0705                 1.4106                 0.7896
 IR Inten    --     11.4208                 2.0028                 4.9636

                     22                     23                     24
                      A                      A                      A
 Frequencies --   1007.9680              1060.9158              1071.6108
 Red. masses --      1.4999                 1.9898                 1.5777
 Frc consts  --      0.8979                 1.3195                 1.0674
 IR Inten    --      2.0458                 3.1036                11.9140

                     25                     26                     27
                      A                      A                      A
 Frequencies --   1123.4754              1147.0400              1182.6907
 Red. masses --      1.6292                 1.6852                 1.8173
 Frc consts  --      1.2116                 1.3064                 1.4976
 IR Inten    --     14.0232                27.3280                25.8002

                     28                     29                     30
                      A                      A                      A
 Frequencies --   1216.4275              1233.8693              1248.6641
 Red. masses --      1.4858                 1.5890                 1.6927
 Frc consts  --      1.2953                 1.4253                 1.5550
 IR Inten    --      3.0338                27.4047                 2.9369

                     31                     32                     33
                      A                      A                      A
 Frequencies --   1258.2896              1356.9124              1365.9466
 Red. masses --      1.5958                 2.2700                 2.3247
 Frc consts  --      1.4886                 2.4625                 2.5556
 IR Inten    --      1.7699                91.0747                26.9641

                     34                     35                     36
                      A                      A                      A
 Frequencies --   1397.7890              1419.3728              1486.4214
 Red. masses --      1.9030                 1.4688                 1.1016
 Frc consts  --      2.1906                 1.7435                 1.4340
 IR Inten    --      1.7657                 2.5694                 0.9334

                     37                     38                     39
                      A                      A                      A
 Frequencies --   1489.7382              1491.7179              1497.1513
 Red. masses --      1.0475                 1.0603                 1.0758
 Frc consts  --      1.3697                 1.3902                 1.4208
 IR Inten    --      4.2594                 4.9135                 0.6898

                     40                     41                     42
                      A                      A                      A
 Frequencies --   1520.4795              1879.6970              3032.0354
 Red. masses --      1.1376                12.6411                 1.0356
 Frc consts  --      1.5495                26.3154                 5.6095
 IR Inten    --      1.6519               267.8258                24.7197

                     43                     44                     45
                      A                      A                      A
 Frequencies --   3050.4539              3062.8400              3065.3883
 Red. masses --      1.0582                 1.0561                 1.0588
 Frc consts  --      5.8014                 5.8372                 5.8619
 IR Inten    --     36.2717                25.3222                23.5924

                     46                     47                     48
                      A                      A                      A
 Frequencies --   3091.7281              3096.4721              3106.0524
 Red. masses --      1.1076                 1.1009                 1.1011
 Frc consts  --      6.2377                 6.2192                 6.2590
 IR Inten    --      1.9423                17.6429                15.6067

                     49                     50                     51
                      A                      A                      A
 Frequencies --   3113.8154              3134.6859              3779.9013
 Red. masses --      1.1068                 1.1112                 1.0659
 Frc consts  --      6.3226                 6.4333                 8.9729
 IR Inten    --     30.2182                17.0733                30.9049

 - Thermochemistry -
 -------------------
 Temperature   298.150 Kelvin.  Pressure   1.00000 Atm.
 Atom     1 has atomic number  6 and mass  12.00000

 Molecular mass:   126.06808 amu.
 Principal axes and moments of inertia in atomic units:
                           1         2         3
     Eigenvalues --   725.126961094.025761369.35792
           X            0.99992   0.00261   0.01261
           Y           -0.00340   0.99801   0.06293
           Z           -0.01242  -0.06297   0.99794
 This molecule is an asymmetric top.
 Rotational symmetry number  1.
 Warning -- assumption of classical behavior for rotation
           may cause significant error
 Rotational temperatures (Kelvin)      0.11945     0.07917     0.06325
 Rotational constants (GHZ):           2.48886     1.64963     1.31795
 Zero-point vibrational energy     417404.6 (Joules/Mol)
                                   99.76209 (Kcal/Mol)
 Warning -- explicit consideration of  12 degrees of freedom as
           vibrations may cause significant error
 Vibrational temperatures:    197.75   252.11   265.01   314.85   357.42
          (Kelvin)            404.37   453.71   574.67   626.18   783.70
                              812.67   853.92   999.64  1031.91  1134.39
                             1243.64  1266.03  1299.25  1327.93  1378.17
                             1393.12  1450.24  1526.42  1541.81  1616.43
                             1650.33  1701.63  1750.17  1775.26  1796.55
                             1810.40  1952.29  1965.29  2011.10  2042.16
                             2138.63  2143.40  2146.25  2154.06  2187.63
                             2704.46  4362.42  4388.92  4406.74  4410.40
                             4448.30  4455.13  4468.91  4480.08  4510.11
                             5438.43

 Zero-point correction=                           0.158981 (Hartree/Particle)
 Thermal correction to Energy=                    0.167535
 Thermal correction to Enthalpy=                  0.168479
 Thermal correction to Gibbs Free Energy=         0.126395
 Sum of electronic and zero-point Energies=           -423.040602
 Sum of electronic and thermal Energies=              -423.032049
 Sum of electronic and thermal Enthalpies=            -423.031104
 Sum of electronic and thermal Free Energies=         -423.073188

                     E (Thermal)             CV                S
                      KCal/Mol        Cal/Mol-Kelvin    Cal/Mol-Kelvin
 Total                  105.130             33.177             88.573
 Electronic               0.000              0.000              0.000
 Translational            0.889              2.981             40.409
 Rotational               0.889              2.981             28.476
 Vibrational            103.352             27.216             19.689
 Vibration     1          0.614              1.916              2.839
 Vibration     2          0.627              1.873              2.379
 Vibration     3          0.631              1.861              2.286
 Vibration     4          0.647              1.812              1.969
 Vibration     5          0.662              1.765              1.742
 Vibration     6          0.681              1.709              1.527
 Vibration     7          0.703              1.644              1.334
 Vibration     8          0.765              1.471              0.965
 Vibration     9          0.796              1.393              0.842
 Vibration    10          0.900              1.151              0.555
 Vibration    11          0.921              1.107              0.514
 Vibration    12          0.951              1.046              0.461

 Optimization completed.
    -- Stationary point found.
 Normal termination of Gaussian 09 at Mon Jan 27 17:52:19 2020.
