 Gaussian 09, Revision D.01,
 Gaussian 09:  ES64L-G09RevD.01 24-Apr-2013

 -----------------------------
 # b3lyp 6-31G(2df,p) opt Freq
 -----------------------------

 -----
 titel
 -----
 Symbolic Z-matrix:
 Charge =  0 Multiplicity = 1

 SCF Done:  E(RB3LYP) =  -423.175613382     A.U. after   14 cycles
 Optimization completed.
    -- Stationary point found.
 Normal termination of Gaussian 09 at Tue Jan 28 08:46:05 2020.

 ----------------------------------------------------------------------
 #N Geom=AllCheck Guess=TCheck SCRF=Check GenChk RB3LYP/6-31G(2df,p) Fr
 eq
 ----------------------------------------------------------------------

 Structure from the checkpoint file:  "/scratch/puck/g09_04a149c4-53aa-4a16-92d3-d211366260ee/Gau-129403.chk"
 -----
 titel
 -----
 Charge =  0 Multiplicity = 1

                         Standard orientation:
 ---------------------------------------------------------------------
 Center     Atomic      Atomic             Coordinates (Angstroms)
 Number     Number       Type             X           Y           Z
 ---------------------------------------------------------------------
      1          6           0       -2.670106    0.078803   -0.174835
      2          6           0       -1.420840   -0.513448   -0.834396
      3          6           0       -0.171150   -0.448618    0.050598
      4          8           0       -0.368581   -1.059672    1.307602
      5          6           0        1.139064   -0.802704   -0.693826
      6          6           0        2.297840   -0.553050    0.197130
      7          6           0        1.674883    0.645683   -0.511717
      8          6           0        0.394647    1.011530    0.162574
      9          8           0       -0.115370    2.051134    0.475318
     10          1           0       -3.534990   -0.010340   -0.838732
     11          1           0       -2.900315   -0.439319    0.759810
     12          1           0       -2.516453    1.134288    0.060779
     13          1           0       -1.591361   -1.569166   -1.096359
     14          1           0       -1.209884   -0.000605   -1.780556
     15          1           0       -0.743952   -1.936371    1.163259
     16          1           0        1.195412   -1.390871   -1.601356
     17          1           0        2.180448   -0.670145    1.268904
     18          1           0        3.275346   -0.825142   -0.186819
     19          1           0        2.251332    1.266789   -1.185459
 ---------------------------------------------------------------------

 SCF Done:  E(RB3LYP) =  -423.175613382     A.U. after    1 cycles

 The electronic state is 1-A.
 Alpha  occ. eigenvalues --  -19.14825 -19.13049 -10.26477 -10.24678 -10.20937
 Alpha  occ. eigenvalues --  -10.20806 -10.20696 -10.19264 -10.16990  -1.04474
 Alpha  occ. eigenvalues --   -1.02793  -0.90358  -0.78031  -0.70526  -0.65056
 Alpha  occ. eigenvalues --   -0.60949  -0.59701  -0.53460  -0.49914  -0.48362
 Alpha  occ. eigenvalues --   -0.47557  -0.45672  -0.41720  -0.41590  -0.40197
 Alpha  occ. eigenvalues --   -0.38472  -0.37349  -0.36285  -0.35026  -0.33474
 Alpha  occ. eigenvalues --   -0.31705  -0.29348  -0.27489  -0.23577
 Alpha virt. eigenvalues --   -0.01284   0.06167   0.09897   0.10261   0.12971
 Alpha virt. eigenvalues --    0.13282   0.14110   0.14521   0.15790   0.16106
 Alpha virt. eigenvalues --    0.18351   0.19201   0.19788   0.20762   0.22719

 Mulliken charges:
               1
     1  C   -0.385745
     2  C   -0.255386
     3  C    0.271285
     4  O   -0.468902
     5  C   -0.097908
     6  C   -0.298917
     7  C   -0.168853
     8  C    0.399548
     9  O   -0.327348
    10  H    0.107338
    11  H    0.118441
    12  H    0.152618
    13  H    0.087882
    14  H    0.108964
    15  H    0.279762
    16  H    0.099721
    17  H    0.141649
    18  H    0.124843
    19  H    0.111009
 Sum of Mulliken charges =   0.00000

 Dipole moment (field-independent basis, Debye):
    X=              0.9337    Y=             -3.2407    Z=             -2.0983  Tot=              3.9720
 Quadrupole moment (field-independent basis, Debye-Ang):
   XX=            -49.0252   YY=            -55.4860   ZZ=            -54.0061
   XY=              2.1324   XZ=             -0.6467   YZ=             -2.0131

  Exact polarizability:  88.792  -1.567  75.207  -1.993   0.776  64.159
 Approx polarizability: 114.526  -4.991 124.400  -4.336   4.410 100.557

                      1                      2                      3
                      A                      A                      A
 Frequencies --    106.0380               127.8138               166.2345
 Red. masses --      3.3532                 2.8202                 2.0508
 Frc consts  --      0.0222                 0.0271                 0.0334
 IR Inten    --      2.4642                 1.7710                 1.7153

                      4                      5                      6
                      A                      A                      A
 Frequencies --    213.2853               236.8266               262.6580
 Red. masses --      1.9237                 1.8624                 1.1262
 Frc consts  --      0.0516                 0.0615                 0.0458
 IR Inten    --      0.1598                 7.4219                84.6302

                      7                      8                      9
                      A                      A                      A
 Frequencies --    276.8801               322.1554               374.3500
 Red. masses --      4.3474                 3.4334                 3.7687
 Frc consts  --      0.1964                 0.2099                 0.3112
 IR Inten    --      5.0150                 6.9273                 0.8953

                     10                     11                     12
                      A                      A                      A
 Frequencies --    492.5014               538.2523               643.4063
 Red. masses --      3.1922                 3.4081                 3.8827
 Frc consts  --      0.4562                 0.5817                 0.9470
 IR Inten    --     15.0291                 2.6148                 1.7445

                     13                     14                     15
                      A                      A                      A
 Frequencies --    683.5245               745.7864               793.2703
 Red. masses --      3.5094                 2.9283                 1.4342
 Frc consts  --      0.9660                 0.9596                 0.5317
 IR Inten    --      2.7554                13.8075                 3.8399

                     16                     17                     18
                      A                      A                      A
 Frequencies --    807.2911               858.3248               891.1458
 Red. masses --      3.6156                 1.6521                 2.2307
 Frc consts  --      1.3883                 0.7171                 1.0437
 IR Inten    --     24.1322                16.4341                12.4666

                     19                     20                     21
                      A                      A                      A
 Frequencies --    925.0793               956.6028               987.6952
 Red. masses --      2.0992                 1.7255                 2.3127
 Frc consts  --      1.0584                 0.9303                 1.3293
 IR Inten    --     18.0193                23.0173                 9.2400

                     22                     23                     24
                      A                      A                      A
 Frequencies --   1010.2564              1027.2170              1060.6180
 Red. masses --      1.3849                 1.6445                 1.3663
 Frc consts  --      0.8328                 1.0224                 0.9055
 IR Inten    --     13.0462                15.9870                 4.5293

                     25                     26                     27
                      A                      A                      A
 Frequencies --   1090.9916              1107.6913              1124.7528
 Red. masses --      1.5038                 1.7140                 1.9567
 Frc consts  --      1.0546                 1.2391                 1.4584
 IR Inten    --     11.6247                 8.2785                27.2464

                     28                     29                     30
                      A                      A                      A
 Frequencies --   1133.4848              1179.5805              1209.5037
 Red. masses --      1.7542                 2.9335                 2.8651
 Frc consts  --      1.3279                 2.4048                 2.4695
 IR Inten    --     23.1003                33.4445                44.4640

                     31                     32                     33
                      A                      A                      A
 Frequencies --   1272.0477              1290.6068              1309.3211
 Red. masses --      1.2892                 1.7586                 2.4406
 Frc consts  --      1.2291                 1.7259                 2.4651
 IR Inten    --     25.1881                 2.6771                 3.9100

                     34                     35                     36
                      A                      A                      A
 Frequencies --   1362.0463              1391.8798              1414.5195
 Red. masses --      1.5104                 1.7889                 1.2330
 Frc consts  --      1.6510                 2.0420                 1.4536
 IR Inten    --      0.8318                13.8278                 6.0249

                     37                     38                     39
                      A                      A                      A
 Frequencies --   1481.9211              1489.6153              1494.0975
 Red. masses --      1.0771                 1.1636                 1.0446
 Frc consts  --      1.3936                 1.5213                 1.3740
 IR Inten    --      0.2159                 3.1739                 5.1442

                     40                     41                     42
                      A                      A                      A
 Frequencies --   1512.6113              1873.3994              2990.9481
 Red. masses --      1.0572                12.2792                 1.0691
 Frc consts  --      1.4251                25.3911                 5.6349
 IR Inten    --      5.5893               287.2288                33.4139

                     43                     44                     45
                      A                      A                      A
 Frequencies --   3049.9222              3054.0809              3118.2941
 Red. masses --      1.0363                 1.0914                 1.1011
 Frc consts  --      5.6794                 5.9976                 6.3080
 IR Inten    --     26.0733                18.0604                24.7784

                     46                     47                     48
                      A                      A                      A
 Frequencies --   3134.4474              3136.5489              3191.3840
 Red. masses --      1.0534                 1.1015                 1.0913
 Frc consts  --      6.0977                 6.3846                 6.5487
 IR Inten    --     14.6967                11.5414                 8.4121

                     49                     50                     51
                      A                      A                      A
 Frequencies --   3201.7917              3222.3755              3780.8644
 Red. masses --      1.0981                 1.1155                 1.0660
 Frc consts  --      6.6328                 6.8244                 8.9779
 IR Inten    --      4.9321                 3.2146                13.6882

 - Thermochemistry -
 -------------------
 Temperature   298.150 Kelvin.  Pressure   1.00000 Atm.
 Atom     1 has atomic number  6 and mass  12.00000

 Molecular mass:   126.06808 amu.
 Principal axes and moments of inertia in atomic units:
                           1         2         3
     Eigenvalues --   692.550401225.276181474.76441
           X            0.99998  -0.00294   0.00594
           Y            0.00299   0.99995  -0.00913
           Z           -0.00592   0.00915   0.99994
 This molecule is an asymmetric top.
 Rotational symmetry number  1.
 Warning -- assumption of classical behavior for rotation
           may cause significant error
 Rotational temperatures (Kelvin)      0.12506     0.07069     0.05873
 Rotational constants (GHZ):           2.60593     1.47293     1.22375
 Zero-point vibrational energy     413464.9 (Joules/Mol)
                                   98.82049 (Kcal/Mol)
 Warning -- explicit consideration of  11 degrees of freedom as
           vibrations may cause significant error
 Vibrational temperatures:    152.56   183.90   239.17   306.87   340.74
          (Kelvin)            377.91   398.37   463.51   538.61   708.60
                              774.42   925.72   983.44  1073.02  1141.34
                             1161.51  1234.94  1282.16  1330.98  1376.34
                             1421.07  1453.53  1477.93  1525.99  1569.69
                             1593.72  1618.27  1630.83  1697.15  1740.20
                             1830.19  1856.89  1883.82  1959.68  2002.60
                             2035.18  2132.15  2143.22  2149.67  2176.31
                             2695.40  4303.30  4388.15  4394.14  4486.52
                             4509.77  4512.79  4591.68  4606.66  4636.27
                             5439.81

 Zero-point correction=                           0.157480 (Hartree/Particle)
 Thermal correction to Energy=                    0.166520
 Thermal correction to Enthalpy=                  0.167464
 Thermal correction to Gibbs Free Energy=         0.124108
 Sum of electronic and zero-point Energies=           -423.018133
 Sum of electronic and thermal Energies=              -423.009094
 Sum of electronic and thermal Enthalpies=            -423.008150
 Sum of electronic and thermal Free Energies=         -423.051506

                     E (Thermal)             CV                S
                      KCal/Mol        Cal/Mol-Kelvin    Cal/Mol-Kelvin
 Total                  104.493             34.204             91.250
 Electronic               0.000              0.000              0.000
 Translational            0.889              2.981             40.409
 Rotational               0.889              2.981             28.616
 Vibrational            102.715             28.243             22.225
 Vibration     1          0.605              1.944              3.340
 Vibration     2          0.611              1.925              2.979
 Vibration     3          0.624              1.884              2.478
 Vibration     4          0.644              1.821              2.015
 Vibration     5          0.656              1.784              1.827
 Vibration     6          0.670              1.741              1.644
 Vibration     7          0.678              1.716              1.553
 Vibration     8          0.707              1.631              1.299
 Vibration     9          0.745              1.525              1.062
 Vibration    10          0.848              1.267              0.677
 Vibration    11          0.893              1.165              0.569

 Optimization completed.
    -- Stationary point found.
 Normal termination of Gaussian 09 at Tue Jan 28 09:29:49 2020.
