 Gaussian 09, Revision D.01,
 Gaussian 09:  ES64L-G09RevD.01 24-Apr-2013

 -----------------------------
 # b3lyp 6-31G(2df,p) opt Freq
 -----------------------------

 -----
 titel
 -----
 Symbolic Z-matrix:
 Charge =  0 Multiplicity = 1

 SCF Done:  E(RB3LYP) =  -423.158393248     A.U. after   14 cycles
 Optimization completed.
    -- Stationary point found.
 Normal termination of Gaussian 09 at Tue Jan 28 03:59:05 2020.

 ----------------------------------------------------------------------
 #N Geom=AllCheck Guess=TCheck SCRF=Check GenChk RB3LYP/6-31G(2df,p) Fr
 eq
 ----------------------------------------------------------------------

 Structure from the checkpoint file:  "/scratch/puck/g09_99ac2ecc-bb33-4f9c-a90d-b89e4800dba1/Gau-92437.chk"
 -----
 titel
 -----
 Charge =  0 Multiplicity = 1

                         Standard orientation:
 ---------------------------------------------------------------------
 Center     Atomic      Atomic             Coordinates (Angstroms)
 Number     Number       Type             X           Y           Z
 ---------------------------------------------------------------------
      1          6           0       -2.504340    1.492836    0.326470
      2          6           0       -1.649490    0.467329   -0.391352
      3          6           0       -1.859577   -0.997551    0.033097
      4          8           0       -0.563480   -1.579859   -0.059493
      5          6           0        0.361623   -0.543561   -0.362513
      6          6           0        1.615384   -0.714596    0.496882
      7          6           0        2.680902    0.212296    0.143302
      8          6           0        3.557067    0.974086   -0.165314
      9          8           0       -0.275127    0.669910   -0.068381
     10          1           0       -3.563306    1.328285    0.104162
     11          1           0       -2.357116    1.421329    1.408093
     12          1           0       -2.240966    2.504272    0.006516
     13          1           0       -1.783295    0.556933   -1.481919
     14          1           0       -2.222520   -1.064719    1.067566
     15          1           0       -2.557367   -1.531381   -0.621343
     16          1           0        0.620008   -0.592684   -1.435318
     17          1           0        1.317723   -0.588942    1.543801
     18          1           0        1.955321   -1.749621    0.377456
     19          1           0        4.330965    1.651090   -0.429456
 ---------------------------------------------------------------------

 SCF Done:  E(RB3LYP) =  -423.158393248     A.U. after    1 cycles

 The electronic state is 1-A.
 Alpha  occ. eigenvalues --  -19.15061 -19.14522 -10.28262 -10.24320 -10.23371
 Alpha  occ. eigenvalues --  -10.20656 -10.18606 -10.17894 -10.16783  -1.09188
 Alpha  occ. eigenvalues --   -0.99569  -0.81397  -0.76816  -0.71558  -0.68249
 Alpha  occ. eigenvalues --   -0.61172  -0.60689  -0.53536  -0.51447  -0.49842
 Alpha  occ. eigenvalues --   -0.48090  -0.45473  -0.43231  -0.42122  -0.41377
 Alpha  occ. eigenvalues --   -0.40630  -0.38199  -0.37963  -0.33978  -0.32875
 Alpha  occ. eigenvalues --   -0.27792  -0.26951  -0.26138  -0.25108
 Alpha virt. eigenvalues --    0.05391   0.06066   0.09060   0.10777   0.12193
 Alpha virt. eigenvalues --    0.12888   0.13199   0.14267   0.14344   0.15733
 Alpha virt. eigenvalues --    0.16462   0.17595   0.18054   0.19257   0.22437

 Mulliken charges:
               1
     1  C   -0.413940
     2  C    0.122020
     3  C   -0.098032
     4  O   -0.272272
     5  C    0.222091
     6  C   -0.378394
     7  C    0.305199
     8  C   -0.448979
     9  O   -0.258186
    10  H    0.121686
    11  H    0.129276
    12  H    0.134832
    13  H    0.075920
    14  H    0.100242
    15  H    0.106579
    16  H    0.075254
    17  H    0.138359
    18  H    0.142756
    19  H    0.195589
 Sum of Mulliken charges =   0.00000

 Dipole moment (field-independent basis, Debye):
    X=             -1.6512    Y=              0.2588    Z=             -0.3052  Tot=              1.6990
 Quadrupole moment (field-independent basis, Debye-Ang):
   XX=            -47.2929   YY=            -54.9291   ZZ=            -52.2781
   XY=              0.2285   XZ=             -0.4012   YZ=             -0.8635

  Exact polarizability:  99.162   9.043  72.640  -4.270  -2.895  61.538
 Approx polarizability: 125.813  20.684 110.050  -8.531  -6.902  93.261

                      1                      2                      3
                      A                      A                      A
 Frequencies --     46.2271                73.9102               119.6434
 Red. masses --      2.9871                 3.5710                 3.1644
 Frc consts  --      0.0038                 0.0115                 0.0267
 IR Inten    --      1.5752                 1.4664                 0.5498

                      4                      5                      6
                      A                      A                      A
 Frequencies --    138.5422               225.3910               274.6933
 Red. masses --      4.0695                 1.1184                 3.0435
 Frc consts  --      0.0460                 0.0335                 0.1353
 IR Inten    --      0.7628                 0.1535                 1.4146

                      7                      8                      9
                      A                      A                      A
 Frequencies --    348.6158               350.9217               420.0227
 Red. masses --      3.4294                 2.6926                 4.6935
 Frc consts  --      0.2456                 0.1954                 0.4879
 IR Inten    --      1.2781                 4.1496                 0.4205

                     10                     11                     12
                      A                      A                      A
 Frequencies --    458.7093               522.8621               621.3040
 Red. masses --      2.3969                 3.5268                 1.2470
 Frc consts  --      0.2972                 0.5681                 0.2836
 IR Inten    --      2.6596                12.3275                43.0179

                     13                     14                     15
                      A                      A                      A
 Frequencies --    626.7287               649.5706               734.3595
 Red. masses --      3.3367                 1.2313                 7.0316
 Frc consts  --      0.7722                 0.3061                 2.2342
 IR Inten    --      2.7796                43.0279                 4.5468

                     16                     17                     18
                      A                      A                      A
 Frequencies --    843.1250               886.7950               939.2927
 Red. masses --      2.4411                 2.3114                 2.2961
 Frc consts  --      1.0224                 1.0710                 1.1936
 IR Inten    --      9.1334                 4.4172                15.2077

                     19                     20                     21
                      A                      A                      A
 Frequencies --    954.8837               964.0653               998.6081
 Red. masses --      1.4044                 3.4790                 3.7508
 Frc consts  --      0.7545                 1.9051                 2.2038
 IR Inten    --      3.8515                13.4036                20.1825

                     22                     23                     24
                      A                      A                      A
 Frequencies --   1048.4053              1074.4156              1115.4831
 Red. masses --      3.2295                 4.4544                 2.7074
 Frc consts  --      2.0914                 3.0296                 1.9848
 IR Inten    --     48.1724                56.4360                31.6108

                     25                     26                     27
                      A                      A                      A
 Frequencies --   1150.7194              1161.1380              1173.7297
 Red. masses --      2.5593                 2.1694                 2.1551
 Frc consts  --      1.9967                 1.7233                 1.7492
 IR Inten    --    102.8565                68.1044                90.1940

                     28                     29                     30
                      A                      A                      A
 Frequencies --   1227.9860              1237.4632              1305.6270
 Red. masses --      1.2192                 1.2738                 1.3258
 Frc consts  --      1.0832                 1.1493                 1.3316
 IR Inten    --      1.9318                 9.2830                 2.0200

                     31                     32                     33
                      A                      A                      A
 Frequencies --   1331.3554              1361.1846              1381.3672
 Red. masses --      1.2139                 1.2270                 1.3284
 Frc consts  --      1.2678                 1.3394                 1.4934
 IR Inten    --      9.3214                24.8686                 9.2777

                     34                     35                     36
                      A                      A                      A
 Frequencies --   1402.6340              1410.4921              1438.9552
 Red. masses --      1.3734                 1.3161                 1.5424
 Frc consts  --      1.5920                 1.5428                 1.8816
 IR Inten    --     16.5875                26.6495                29.7166

                     37                     38                     39
                      A                      A                      A
 Frequencies --   1456.2115              1485.1965              1499.0552
 Red. masses --      1.1145                 1.0561                 1.0506
 Frc consts  --      1.3924                 1.3726                 1.3909
 IR Inten    --      1.6485                 3.5679                 3.2562

                     40                     41                     42
                      A                      A                      A
 Frequencies --   1527.0612              2244.2371              2945.2402
 Red. masses --      1.0918                 5.9259                 1.0828
 Frc consts  --      1.5001                17.5850                 5.5340
 IR Inten    --      1.8594                 2.4038                63.6477

                     43                     44                     45
                      A                      A                      A
 Frequencies --   2968.2913              3010.8319              3042.2184
 Red. masses --      1.0831                 1.0618                 1.0583
 Frc consts  --      5.6223                 5.6713                 5.7710
 IR Inten    --     49.5207                58.7309                10.5597

                     46                     47                     48
                      A                      A                      A
 Frequencies --   3044.3364              3065.6234              3084.4573
 Red. masses --      1.0351                 1.1033                 1.1024
 Frc consts  --      5.6524                 6.1091                 6.1791
 IR Inten    --     16.3575                44.1998                 8.4091

                     49                     50                     51
                      A                      A                      A
 Frequencies --   3117.8344              3125.6376              3508.3161
 Red. masses --      1.1014                 1.1023                 1.1626
 Frc consts  --      6.3080                 6.3451                 8.4309
 IR Inten    --     20.3353                18.3908                65.8880

 - Thermochemistry -
 -------------------
 Temperature   298.150 Kelvin.  Pressure   1.00000 Atm.
 Atom     1 has atomic number  6 and mass  12.00000

 Molecular mass:   126.06808 amu.
 Principal axes and moments of inertia in atomic units:
                           1         2         3
     Eigenvalues --   533.174281815.853902213.80366
           X            0.99986  -0.01635  -0.00387
           Y            0.01634   0.99986  -0.00223
           Z            0.00391   0.00217   0.99999
 This molecule is an asymmetric top.
 Rotational symmetry number  1.
 Warning -- assumption of classical behavior for rotation
           may cause significant error
 Rotational temperatures (Kelvin)      0.16245     0.04770     0.03912
 Rotational constants (GHZ):           3.38490     0.99388     0.81522
 Zero-point vibrational energy     413571.6 (Joules/Mol)
                                   98.84599 (Kcal/Mol)
 Warning -- explicit consideration of  11 degrees of freedom as
           vibrations may cause significant error
 Vibrational temperatures:     66.51   106.34   172.14   199.33   324.29
          (Kelvin)            395.22   501.58   504.90   604.32   659.98
                              752.28   893.92   901.72   934.59  1056.58
                             1213.07  1275.90  1351.43  1373.86  1387.07
                             1436.77  1508.42  1545.84  1604.93  1655.63
                             1670.62  1688.73  1766.80  1780.43  1878.50
                             1915.52  1958.44  1987.48  2018.07  2029.38
                             2070.33  2095.16  2136.86  2156.80  2197.10
                             3228.95  4237.54  4270.70  4331.91  4377.07
                             4380.12  4410.74  4437.84  4485.86  4497.09
                             5047.68

 Zero-point correction=                           0.157521 (Hartree/Particle)
 Thermal correction to Energy=                    0.166866
 Thermal correction to Enthalpy=                  0.167811
 Thermal correction to Gibbs Free Energy=         0.122474
 Sum of electronic and zero-point Energies=           -423.000872
 Sum of electronic and thermal Energies=              -422.991527
 Sum of electronic and thermal Enthalpies=            -422.990583
 Sum of electronic and thermal Free Energies=         -423.035919

                     E (Thermal)             CV                S
                      KCal/Mol        Cal/Mol-Kelvin    Cal/Mol-Kelvin
 Total                  104.710             33.915             95.419
 Electronic               0.000              0.000              0.000
 Translational            0.889              2.981             40.409
 Rotational               0.889              2.981             29.151
 Vibrational            102.933             27.953             25.860
 Vibration     1          0.595              1.979              4.973
 Vibration     2          0.599              1.966              4.046
 Vibration     3          0.609              1.933              3.106
 Vibration     4          0.614              1.915              2.824
 Vibration     5          0.650              1.802              1.915
 Vibration     6          0.677              1.720              1.566
 Vibration     7          0.726              1.578              1.172
 Vibration     8          0.728              1.573              1.162
 Vibration     9          0.783              1.427              0.892
 Vibration    10          0.817              1.342              0.770
 Vibration    11          0.878              1.199              0.603

 Optimization completed.
    -- Stationary point found.
 Normal termination of Gaussian 09 at Tue Jan 28 04:42:41 2020.
