 Gaussian 09, Revision D.01,
 Gaussian 09:  ES64L-G09RevD.01 24-Apr-2013

 -----------------------------
 # b3lyp 6-31G(2df,p) opt Freq
 -----------------------------

 -----
 titel
 -----
 Symbolic Z-matrix:
 Charge =  0 Multiplicity = 1

 SCF Done:  E(RB3LYP) =  -423.190501609     A.U. after   14 cycles
 Optimization completed.
    -- Stationary point found.
 Normal termination of Gaussian 09 at Mon Jan 27 12:52:27 2020.

 ----------------------------------------------------------------------
 #N Geom=AllCheck Guess=TCheck SCRF=Check GenChk RB3LYP/6-31G(2df,p) Fr
 eq
 ----------------------------------------------------------------------

 Structure from the checkpoint file:  "/scratch/puck/g09_78bfc925-d9d7-4828-b950-e2f5bd808b01/Gau-99487.chk"
 -----
 titel
 -----
 Charge =  0 Multiplicity = 1

                         Standard orientation:
 ---------------------------------------------------------------------
 Center     Atomic      Atomic             Coordinates (Angstroms)
 Number     Number       Type             X           Y           Z
 ---------------------------------------------------------------------
      1          8           0       -0.206117    1.998796   -0.053541
      2          6           0       -0.544809    0.841793   -0.060606
      3          8           0        0.321957   -0.194763   -0.215529
      4          6           0        1.688164    0.150280   -0.348204
      5          6           0        2.631867   -1.003842   -0.415058
      6          6           0        2.593238   -0.116499    0.815846
      7          6           0       -1.945736    0.372681    0.082897
      8          6           0       -2.261426   -0.921926    0.814039
      9          6           0       -2.436291   -0.854755   -0.667574
     10          1           0        1.846490    1.032545   -0.954975
     11          1           0        2.201623   -1.994639   -0.323486
     12          1           0        3.477971   -0.936332   -1.089291
     13          1           0        2.137069   -0.530874    1.707583
     14          1           0        3.409712    0.572779    0.998506
     15          1           0       -2.635729    1.198209    0.201940
     16          1           0       -1.419424   -1.483124    1.199472
     17          1           0       -3.142176   -0.921091    1.445818
     18          1           0       -1.712381   -1.369277   -1.286924
     19          1           0       -3.439927   -0.806857   -1.074121
 ---------------------------------------------------------------------

 SCF Done:  E(RB3LYP) =  -423.190501608     A.U. after    1 cycles

 The electronic state is 1-A.
 Alpha  occ. eigenvalues --  -19.18079 -19.11729 -10.30088 -10.24349 -10.20409
 Alpha  occ. eigenvalues --  -10.19935 -10.19896 -10.19225 -10.19058  -1.09772
 Alpha  occ. eigenvalues --   -1.00998  -0.87254  -0.85357  -0.68477  -0.61467
 Alpha  occ. eigenvalues --   -0.61010  -0.60731  -0.56012  -0.51678  -0.49313
 Alpha  occ. eigenvalues --   -0.48579  -0.46736  -0.44183  -0.43121  -0.40117
 Alpha  occ. eigenvalues --   -0.37465  -0.37377  -0.36559  -0.34130  -0.32293
 Alpha  occ. eigenvalues --   -0.30253  -0.29619  -0.27085  -0.26046
 Alpha virt. eigenvalues --    0.01489   0.08974   0.09748   0.10319   0.11829
 Alpha virt. eigenvalues --    0.13241   0.14292   0.15600   0.16291   0.16385
 Alpha virt. eigenvalues --    0.16727   0.21691   0.21852   0.22463   0.22799

 Mulliken charges:
               1
     1  O   -0.374891
     2  C    0.444284
     3  O   -0.259701
     4  C    0.156519
     5  C   -0.301020
     6  C   -0.280175
     7  C   -0.108759
     8  C   -0.257986
     9  C   -0.258179
    10  H    0.123814
    11  H    0.125231
    12  H    0.121375
    13  H    0.123247
    14  H    0.123628
    15  H    0.112194
    16  H    0.130995
    17  H    0.122387
    18  H    0.134757
    19  H    0.122281
 Sum of Mulliken charges =   0.00000

 Dipole moment (field-independent basis, Debye):
    X=             -0.1733    Y=             -2.1159    Z=              0.0259  Tot=              2.1232
 Quadrupole moment (field-independent basis, Debye-Ang):
   XX=            -44.7323   YY=            -59.0629   ZZ=            -51.7661
   XY=              0.6716   XZ=             -1.0898   YZ=             -0.3790

  Exact polarizability:  92.508   1.579  74.573  -0.675   0.858  64.373
 Approx polarizability: 111.817   3.499 119.866  -0.660   1.361  96.025

                      1                      2                      3
                      A                      A                      A
 Frequencies --     29.9848                75.8533                96.7855
 Red. masses --      2.7942                 4.8966                 2.8605
 Frc consts  --      0.0015                 0.0166                 0.0158
 IR Inten    --      0.3403                 0.0077                 1.8758

                      4                      5                      6
                      A                      A                      A
 Frequencies --    134.3069               251.2307               271.9085
 Red. masses --      3.2869                 3.6591                 2.9937
 Frc consts  --      0.0349                 0.1361                 0.1304
 IR Inten    --      1.4602                 3.8936                 1.9550

                      7                      8                      9
                      A                      A                      A
 Frequencies --    363.6476               423.7107               481.2605
 Red. masses --      3.6022                 2.8684                 5.4477
 Frc consts  --      0.2807                 0.3034                 0.7434
 IR Inten    --      4.1175                 4.3495                 7.5711

                     10                     11                     12
                      A                      A                      A
 Frequencies --    585.2686               744.1681               753.9502
 Red. masses --      2.8388                 3.0469                 1.1753
 Frc consts  --      0.5729                 0.9942                 0.3936
 IR Inten    --      2.0763                 5.7067                 0.5663

                     13                     14                     15
                      A                      A                      A
 Frequencies --    787.2175               813.1420               834.8663
 Red. masses --      1.0885                 1.3354                 1.9238
 Frc consts  --      0.3974                 0.5202                 0.7900
 IR Inten    --      0.4859                 4.9234                 6.6300

                     16                     17                     18
                      A                      A                      A
 Frequencies --    847.4121               854.0705               926.6570
 Red. masses --      2.2662                 3.5125                 2.7931
 Frc consts  --      0.9588                 1.5096                 1.4131
 IR Inten    --      2.2855                 3.4267                 1.7014

                     19                     20                     21
                      A                      A                      A
 Frequencies --    939.3886               975.9709              1004.2721
 Red. masses --      2.9658                 2.9556                 3.0686
 Frc consts  --      1.5420                 1.6587                 1.8235
 IR Inten    --     30.1867                10.5596                20.8517

                     22                     23                     24
                      A                      A                      A
 Frequencies --   1051.3245              1062.7896              1073.7155
 Red. masses --      1.3772                 1.3721                 1.4288
 Frc consts  --      0.8968                 0.9131                 0.9705
 IR Inten    --     23.5562                46.1691                 1.7659

                     25                     26                     27
                      A                      A                      A
 Frequencies --   1084.5128              1089.6378              1119.6099
 Red. masses --      1.5961                 1.3267                 1.2173
 Frc consts  --      1.1061                 0.9281                 0.8990
 IR Inten    --     64.1195                 3.2794                 7.1400

                     28                     29                     30
                      A                      A                      A
 Frequencies --   1135.4821              1180.6146              1191.4268
 Red. masses --      1.1105                 2.2306                 1.3315
 Frc consts  --      0.8436                 1.8319                 1.1136
 IR Inten    --      1.3228                79.0454                 0.1823

                     31                     32                     33
                      A                      A                      A
 Frequencies --   1206.1263              1218.2197              1240.0012
 Red. masses --      1.3632                 2.1552                 1.8233
 Frc consts  --      1.1684                 1.8844                 1.6518
 IR Inten    --      0.5042                 2.6510                 4.3450

                     34                     35                     36
                      A                      A                      A
 Frequencies --   1283.3132              1374.5116              1402.9178
 Red. masses --      2.8603                 1.7234                 1.6087
 Frc consts  --      2.7754                 1.9184                 1.8655
 IR Inten    --    364.4496                41.8000                 4.8518

                     37                     38                     39
                      A                      A                      A
 Frequencies --   1455.5429              1460.3832              1492.7777
 Red. masses --      1.0905                 1.0873                 1.3342
 Frc consts  --      1.3612                 1.3663                 1.7517
 IR Inten    --      1.8197                 2.3499                 2.0061

                     40                     41                     42
                      A                      A                      A
 Frequencies --   1499.9915              1816.5852              3139.9952
 Red. masses --      1.4537                11.9057                 1.0507
 Frc consts  --      1.9270                23.1482                 6.1034
 IR Inten    --     10.0142               277.5365                13.2428

                     43                     44                     45
                      A                      A                      A
 Frequencies --   3143.1195              3146.6304              3149.6628
 Red. masses --      1.0581                 1.0507                 1.0585
 Frc consts  --      6.1589                 6.1292                 6.1866
 IR Inten    --      3.8282                14.2164                 7.8628

                     46                     47                     48
                      A                      A                      A
 Frequencies --   3197.7954              3199.3347              3223.0239
 Red. masses --      1.0909                 1.0905                 1.1187
 Frc consts  --      6.5727                 6.5765                 6.8469
 IR Inten    --      3.6305                 2.7031                 0.4370

                     49                     50                     51
                      A                      A                      A
 Frequencies --   3233.0529              3237.5421              3247.4872
 Red. masses --      1.1178                 1.1150                 1.1154
 Frc consts  --      6.8837                 6.8857                 6.9307
 IR Inten    --      0.0925                12.5121                 8.9984

 - Thermochemistry -
 -------------------
 Temperature   298.150 Kelvin.  Pressure   1.00000 Atm.
 Atom     1 has atomic number  8 and mass  15.99491

 Molecular mass:   126.06808 amu.
 Principal axes and moments of inertia in atomic units:
                           1         2         3
     Eigenvalues --   563.895741753.246342043.50625
           X            0.99998   0.00598  -0.00020
           Y           -0.00598   0.99998   0.00085
           Z            0.00020  -0.00085   1.00000
 This molecule is an asymmetric top.
 Rotational symmetry number  1.
 Warning -- assumption of classical behavior for rotation
           may cause significant error
 Rotational temperatures (Kelvin)      0.15360     0.04940     0.04238
 Rotational constants (GHZ):           3.20049     1.02937     0.88316
 Zero-point vibrational energy     416014.5 (Joules/Mol)
                                   99.42986 (Kcal/Mol)
 Warning -- explicit consideration of  10 degrees of freedom as
           vibrations may cause significant error
 Vibrational temperatures:     43.14   109.14   139.25   193.24   361.46
          (Kelvin)            391.22   523.21   609.62   692.43   842.07
                             1070.69  1084.76  1132.63  1169.93  1201.18
                             1219.24  1228.82  1333.25  1351.57  1404.20
                             1444.92  1512.62  1529.12  1544.84  1560.37
                             1567.74  1610.87  1633.70  1698.64  1714.20
                             1735.34  1752.74  1784.08  1846.40  1977.61
                             2018.48  2094.20  2101.16  2147.77  2158.15
                             2613.66  4517.75  4522.24  4527.29  4531.66
                             4600.91  4603.12  4637.21  4651.64  4658.10
                             4672.40

 Zero-point correction=                           0.158452 (Hartree/Particle)
 Thermal correction to Energy=                    0.167369
 Thermal correction to Enthalpy=                  0.168314
 Thermal correction to Gibbs Free Energy=         0.123239
 Sum of electronic and zero-point Energies=           -423.032050
 Sum of electronic and thermal Energies=              -423.023132
 Sum of electronic and thermal Enthalpies=            -423.022188
 Sum of electronic and thermal Free Energies=         -423.067263

                     E (Thermal)             CV                S
                      KCal/Mol        Cal/Mol-Kelvin    Cal/Mol-Kelvin
 Total                  105.026             32.559             94.868
 Electronic               0.000              0.000              0.000
 Translational            0.889              2.981             40.409
 Rotational               0.889              2.981             29.092
 Vibrational            103.248             26.598             25.367
 Vibration     1          0.594              1.984              5.830
 Vibration     2          0.599              1.965              3.995
 Vibration     3          0.603              1.951              3.518
 Vibration     4          0.613              1.919              2.883
 Vibration     5          0.663              1.761              1.722
 Vibration     6          0.675              1.725              1.584
 Vibration     7          0.737              1.547              1.106
 Vibration     8          0.786              1.419              0.879
 Vibration     9          0.838              1.292              0.707
 Vibration    10          0.942              1.063              0.476

 Optimization completed.
    -- Stationary point found.
 Normal termination of Gaussian 09 at Mon Jan 27 13:29:29 2020.
