 Gaussian 09, Revision D.01,
 Gaussian 09:  ES64L-G09RevD.01 24-Apr-2013

 -----------------------------
 # b3lyp 6-31G(2df,p) opt Freq
 -----------------------------

 -----
 titel
 -----
 Symbolic Z-matrix:
 Charge =  0 Multiplicity = 1

 SCF Done:  E(RB3LYP) =  -423.016470814     A.U. after   14 cycles
 Optimization completed.
    -- Stationary point found.
 Normal termination of Gaussian 09 at Tue Jan 28 13:32:06 2020.

 ----------------------------------------------------------------------
 #N Geom=AllCheck Guess=TCheck SCRF=Check GenChk RB3LYP/6-31G(2df,p) Fr
 eq
 ----------------------------------------------------------------------

 Structure from the checkpoint file:  "/scratch/puck/g09_4330d716-7c6d-41f2-affd-a5e9cfe96358/Gau-31604.chk"
 -----
 titel
 -----
 Charge =  0 Multiplicity = 1

                         Standard orientation:
 ---------------------------------------------------------------------
 Center     Atomic      Atomic             Coordinates (Angstroms)
 Number     Number       Type             X           Y           Z
 ---------------------------------------------------------------------
      1          6           0        3.006929   -0.275013   -0.155807
      2          8           0        1.688976   -0.661132    0.178934
      3          6           0        0.883708    0.403455    0.583756
      4          6           0        0.278298    1.350079   -0.587411
      5          6           0       -0.973913    0.490494   -0.399604
      6          6           0       -1.042512   -0.992975   -0.871124
      7          6           0       -1.757448   -0.839753    0.466610
      8          8           0       -2.433674    0.417941   -0.082478
      9          6           0       -0.608538    0.075226    1.003452
     10          1           0        3.506529    0.217227    0.692334
     11          1           0        3.552880   -1.185503   -0.411774
     12          1           0        3.030226    0.408564   -1.016508
     13          1           0        1.392465    0.986351    1.364424
     14          1           0        0.175225    2.375454   -0.224836
     15          1           0        0.765510    1.342195   -1.566252
     16          1           0       -1.696973   -1.162336   -1.726186
     17          1           0       -0.115068   -1.561522   -0.899062
     18          1           0       -2.431189   -1.513893    1.001288
     19          1           0       -0.941161    0.769915    1.775710
 ---------------------------------------------------------------------

 SCF Done:  E(RB3LYP) =  -423.016470814     A.U. after    1 cycles

 The electronic state is 1-A.
 Alpha  occ. eigenvalues --  -19.15635 -19.12773 -10.25893 -10.25565 -10.24412
 Alpha  occ. eigenvalues --  -10.23503 -10.20181 -10.18168 -10.18060  -1.05273
 Alpha  occ. eigenvalues --   -1.03778  -0.84279  -0.74783  -0.70663  -0.67332
 Alpha  occ. eigenvalues --   -0.61300  -0.60082  -0.52793  -0.50827  -0.48561
 Alpha  occ. eigenvalues --   -0.46591  -0.45810  -0.43804  -0.42577  -0.41230
 Alpha  occ. eigenvalues --   -0.39259  -0.36438  -0.34436  -0.34044  -0.32361
 Alpha  occ. eigenvalues --   -0.30588  -0.26584  -0.25398  -0.22300
 Alpha virt. eigenvalues --    0.05139   0.07403   0.09075   0.10291   0.11779
 Alpha virt. eigenvalues --    0.13452   0.13881   0.14353   0.14486   0.16141
 Alpha virt. eigenvalues --    0.16362   0.17080   0.17707   0.19728   0.20386

 Mulliken charges:
               1
     1  C   -0.241353
     2  O   -0.226506
     3  C    0.072356
     4  C   -0.380920
     5  C    0.383827
     6  C   -0.257535
     7  C    0.002058
     8  O   -0.382327
     9  C   -0.057082
    10  H    0.111255
    11  H    0.134005
    12  H    0.113570
    13  H    0.084701
    14  H    0.122523
    15  H    0.111484
    16  H    0.102278
    17  H    0.127930
    18  H    0.091865
    19  H    0.087870
 Sum of Mulliken charges =   0.00000

 Dipole moment (field-independent basis, Debye):
    X=              2.8402    Y=              0.2997    Z=             -0.0184  Tot=              2.8561
 Quadrupole moment (field-independent basis, Debye-Ang):
   XX=            -54.9794   YY=            -52.4082   ZZ=            -52.2985
   XY=              4.2465   XZ=             -1.6070   YZ=              0.7683

  Exact polarizability:  91.927   5.483  71.037  -2.154   2.097  68.903
 Approx polarizability: 126.205   4.857 109.717  -2.617   0.273 106.558

                      1                      2                      3
                      A                      A                      A
 Frequencies --    100.2254               159.6305               168.5242
 Red. masses --      2.6043                 2.0296                 1.8450
 Frc consts  --      0.0154                 0.0305                 0.0309
 IR Inten    --      1.1421                 1.2585                 1.1554

                      4                      5                      6
                      A                      A                      A
 Frequencies --    238.3500               321.1250               357.8159
 Red. masses --      2.4958                 3.2366                 3.3844
 Frc consts  --      0.0835                 0.1966                 0.2553
 IR Inten    --      5.3055                 2.9857                 1.5323

                      7                      8                      9
                      A                      A                      A
 Frequencies --    417.2803               424.1776               536.4046
 Red. masses --      2.8255                 4.5309                 3.3865
 Frc consts  --      0.2899                 0.4803                 0.5741
 IR Inten    --      1.1654                 6.3052                 5.9469

                     10                     11                     12
                      A                      A                      A
 Frequencies --    594.3967               684.3527               746.0329
 Red. masses --      3.1161                 3.0283                 3.9989
 Frc consts  --      0.6486                 0.8356                 1.3113
 IR Inten    --      7.9044                 3.8480                 3.5982

                     13                     14                     15
                      A                      A                      A
 Frequencies --    751.9753               801.4409               839.3798
 Red. masses --      2.7710                 3.0626                 4.3826
 Frc consts  --      0.9232                 1.1590                 1.8193
 IR Inten    --      4.5837                 3.4685                16.7830

                     16                     17                     18
                      A                      A                      A
 Frequencies --    876.2527               924.7397               964.6489
 Red. masses --      3.0637                 3.0806                 2.2110
 Frc consts  --      1.3860                 1.5521                 1.2122
 IR Inten    --     27.9958                21.6641                10.1076

                     19                     20                     21
                      A                      A                      A
 Frequencies --    995.1755              1017.3368              1031.2436
 Red. masses --      1.8515                 1.4139                 2.1903
 Frc consts  --      1.0804                 0.8622                 1.3724
 IR Inten    --     18.7826                 9.1976                 3.6703

                     22                     23                     24
                      A                      A                      A
 Frequencies --   1043.1493              1087.8319              1131.2406
 Red. masses --      1.7275                 2.4189                 1.6979
 Frc consts  --      1.1075                 1.6865                 1.2802
 IR Inten    --      3.7121                73.3296                13.2630

                     25                     26                     27
                      A                      A                      A
 Frequencies --   1137.5991              1174.8773              1180.2415
 Red. masses --      1.7222                 1.5311                 1.3752
 Frc consts  --      1.3131                 1.2452                 1.1287
 IR Inten    --     37.2049                37.2374                30.0199

                     28                     29                     30
                      A                      A                      A
 Frequencies --   1187.7283              1196.0196              1202.6737
 Red. masses --      1.3130                 1.5337                 1.7353
 Frc consts  --      1.0913                 1.2926                 1.4788
 IR Inten    --      2.1427                20.0521                 7.9132

                     31                     32                     33
                      A                      A                      A
 Frequencies --   1223.6175              1233.1897              1263.2094
 Red. masses --      1.7504                 1.6497                 1.9056
 Frc consts  --      1.5441                 1.4782                 1.7916
 IR Inten    --     59.5782                24.1320                12.4025

                     34                     35                     36
                      A                      A                      A
 Frequencies --   1294.6376              1345.3470              1385.7906
 Red. masses --      2.7090                 1.5328                 1.2368
 Frc consts  --      2.6752                 1.6346                 1.3994
 IR Inten    --     14.7536                 1.4520                38.1985

                     37                     38                     39
                      A                      A                      A
 Frequencies --   1464.4014              1478.8465              1486.0912
 Red. masses --      1.1190                 1.1408                 1.0628
 Frc consts  --      1.4138                 1.4699                 1.3829
 IR Inten    --      0.8926                 0.8040                 5.6149

                     40                     41                     42
                      A                      A                      A
 Frequencies --   1495.3671              1508.5316              2982.4267
 Red. masses --      1.1738                 1.0746                 1.0396
 Frc consts  --      1.5464                 1.4409                 5.4480
 IR Inten    --      6.5408                 6.0144                40.9790

                     43                     44                     45
                      A                      A                      A
 Frequencies --   2997.0850              3035.2700              3060.4088
 Red. masses --      1.0829                 1.1021                 1.0581
 Frc consts  --      5.7312                 5.9825                 5.8390
 IR Inten    --     66.3089                38.5644                46.4642

                     46                     47                     48
                      A                      A                      A
 Frequencies --   3079.9822              3096.0309              3106.6892
 Red. masses --      1.0817                 1.0632                 1.0872
 Frc consts  --      6.0458                 6.0046                 6.1825
 IR Inten    --     60.3914                41.6890                19.2144

                     49                     50                     51
                      A                      A                      A
 Frequencies --   3123.5178              3126.8915              3179.3876
 Red. masses --      1.0974                 1.1083                 1.1120
 Frc consts  --      6.3080                 6.3845                 6.6226
 IR Inten    --     27.5167                15.6275                 8.3225

 - Thermochemistry -
 -------------------
 Temperature   298.150 Kelvin.  Pressure   1.00000 Atm.
 Atom     1 has atomic number  6 and mass  12.00000

 Molecular mass:   126.06808 amu.
 Principal axes and moments of inertia in atomic units:
                           1         2         3
     Eigenvalues --   440.771281500.850241593.39119
           X            0.99978   0.01984  -0.00646
           Y           -0.01924   0.99642   0.08228
           Z            0.00807  -0.08214   0.99659
 This molecule is an asymmetric top.
 Rotational symmetry number  1.
 Warning -- assumption of classical behavior for rotation
           may cause significant error
 Rotational temperatures (Kelvin)      0.19651     0.05771     0.05436
 Rotational constants (GHZ):           4.09451     1.20248     1.13264
 Zero-point vibrational energy     414258.4 (Joules/Mol)
                                   99.01012 (Kcal/Mol)
 Warning -- explicit consideration of  10 degrees of freedom as
           vibrations may cause significant error
 Vibrational temperatures:    144.20   229.67   242.47   342.93   462.03
          (Kelvin)            514.82   600.37   610.30   771.77   855.20
                              984.63  1073.37  1081.92  1153.09  1207.68
                             1260.73  1330.49  1387.91  1431.83  1463.72
                             1483.73  1500.86  1565.15  1627.60  1636.75
                             1690.38  1698.10  1708.87  1720.80  1730.38
                             1760.51  1774.28  1817.47  1862.69  1935.65
                             1993.84  2106.94  2127.73  2138.15  2151.50
                             2170.44  4291.04  4312.13  4367.07  4403.24
                             4431.40  4454.49  4469.83  4494.04  4498.89
                             4574.42

 Zero-point correction=                           0.157783 (Hartree/Particle)
 Thermal correction to Energy=                    0.165774
 Thermal correction to Enthalpy=                  0.166719
 Thermal correction to Gibbs Free Energy=         0.125407
 Sum of electronic and zero-point Energies=           -422.858688
 Sum of electronic and thermal Energies=              -422.850696
 Sum of electronic and thermal Enthalpies=            -422.849752
 Sum of electronic and thermal Free Energies=         -422.891064

                     E (Thermal)             CV                S
                      KCal/Mol        Cal/Mol-Kelvin    Cal/Mol-Kelvin
 Total                  104.025             31.312             86.948
 Electronic               0.000              0.000              0.000
 Translational            0.889              2.981             40.409
 Rotational               0.889              2.981             28.446
 Vibrational            102.248             25.351             18.094
 Vibration     1          0.604              1.949              3.450
 Vibration     2          0.621              1.892              2.554
 Vibration     3          0.625              1.881              2.452
 Vibration     4          0.656              1.782              1.815
 Vibration     5          0.707              1.633              1.304
 Vibration     6          0.733              1.559              1.132
 Vibration     7          0.780              1.433              0.901
 Vibration     8          0.786              1.418              0.878
 Vibration     9          0.891              1.170              0.573
 Vibration    10          0.952              1.044              0.459

 Optimization completed.
    -- Stationary point found.
 Normal termination of Gaussian 09 at Tue Jan 28 14:15:16 2020.
