 Gaussian 09, Revision D.01,
 Gaussian 09:  ES64L-G09RevD.01 24-Apr-2013

 -----------------------------
 # b3lyp 6-31G(2df,p) opt Freq
 -----------------------------

 -----
 titel
 -----
 Symbolic Z-matrix:
 Charge =  0 Multiplicity = 1

 SCF Done:  E(RB3LYP) =  -423.129258138     A.U. after   14 cycles
 Optimization completed.
    -- Stationary point found.
 Normal termination of Gaussian 09 at Tue Jan 28 14:09:42 2020.

 ----------------------------------------------------------------------
 #N Geom=AllCheck Guess=TCheck SCRF=Check GenChk RB3LYP/6-31G(2df,p) Fr
 eq
 ----------------------------------------------------------------------

 Structure from the checkpoint file:  "/scratch/puck/g09_1409d877-1c1d-4888-a8c7-5069cb0e8c3a/Gau-147346.chk"
 -----
 titel
 -----
 Charge =  0 Multiplicity = 1

                         Standard orientation:
 ---------------------------------------------------------------------
 Center     Atomic      Atomic             Coordinates (Angstroms)
 Number     Number       Type             X           Y           Z
 ---------------------------------------------------------------------
      1          8           0        3.598738   -0.141281    0.095925
      2          6           0        2.271082   -0.302740   -0.376195
      3          6           0        1.363645    0.562952    0.504474
      4          6           0       -0.078036    0.423922    0.156144
      5          6           0       -0.961944    1.256637   -0.403307
      6          6           0       -2.230408    0.387296   -0.445523
      7          6           0       -2.248814   -0.211423    0.993410
      8          6           0       -0.964759   -0.830741    0.365482
      9          8           0       -1.692447   -0.901666   -0.904330
     10          1           0        4.183149   -0.656629   -0.467465
     11          1           0        2.170195    0.014906   -1.424976
     12          1           0        1.951143   -1.355418   -0.321631
     13          1           0        1.538137    0.267841    1.547934
     14          1           0        1.680948    1.606811    0.411934
     15          1           0       -0.851924    2.277455   -0.739433
     16          1           0       -3.116630    0.726985   -0.979476
     17          1           0       -2.148348    0.463743    1.845789
     18          1           0       -3.043759   -0.947188    1.137470
     19          1           0       -0.517839   -1.770341    0.690176
 ---------------------------------------------------------------------

 SCF Done:  E(RB3LYP) =  -423.129258138     A.U. after    1 cycles

 The electronic state is 1-A.
 Alpha  occ. eigenvalues --  -19.13508 -19.12505 -10.23984 -10.23935 -10.22969
 Alpha  occ. eigenvalues --  -10.19008 -10.18866 -10.18834 -10.17811  -1.04231
 Alpha  occ. eigenvalues --   -1.01637  -0.81508  -0.75828  -0.70404  -0.68265
 Alpha  occ. eigenvalues --   -0.61871  -0.55417  -0.53165  -0.52670  -0.48584
 Alpha  occ. eigenvalues --   -0.46917  -0.45498  -0.41695  -0.40757  -0.40345
 Alpha  occ. eigenvalues --   -0.38598  -0.36801  -0.34613  -0.33206  -0.32636
 Alpha  occ. eigenvalues --   -0.32160  -0.26850  -0.24730  -0.22746
 Alpha virt. eigenvalues --    0.00498   0.07760   0.09954   0.10306   0.12347
 Alpha virt. eigenvalues --    0.13503   0.14253   0.15077   0.15502   0.16735
 Alpha virt. eigenvalues --    0.17285   0.19117   0.19371   0.20547   0.21320

 Mulliken charges:
               1
     1  O   -0.417463
     2  C   -0.065815
     3  C   -0.332453
     4  C    0.366167
     5  C   -0.217081
     6  C    0.029129
     7  C   -0.216080
     8  C   -0.033818
     9  O   -0.286337
    10  H    0.287515
    11  H    0.097712
    12  H    0.091163
    13  H    0.114894
    14  H    0.114528
    15  H    0.106642
    16  H    0.080124
    17  H    0.097180
    18  H    0.106521
    19  H    0.077473
 Sum of Mulliken charges =   0.00000

 Dipole moment (field-independent basis, Debye):
    X=              0.2365    Y=              0.2470    Z=              0.3173  Tot=              0.4666
 Quadrupole moment (field-independent basis, Debye-Ang):
   XX=            -50.9853   YY=            -51.6366   ZZ=            -54.1627
   XY=             -6.2556   XZ=             -6.2054   YZ=             -2.2559

  Exact polarizability:  95.315  -3.551  71.349   2.153  -4.445  63.811
 Approx polarizability: 124.094  -9.775 113.689  10.203  -7.432 101.327

                      1                      2                      3
                      A                      A                      A
 Frequencies --     66.2824                86.5820                99.8844
 Red. masses --      2.7036                 3.0654                 4.0823
 Frc consts  --      0.0070                 0.0135                 0.0240
 IR Inten    --      2.5430                 5.7853                 2.8252

                      4                      5                      6
                      A                      A                      A
 Frequencies --    252.7683               264.0861               322.6905
 Red. masses --      1.0783                 2.9207                 3.7597
 Frc consts  --      0.0406                 0.1200                 0.2307
 IR Inten    --    104.1530                 0.6670                 7.3937

                      7                      8                      9
                      A                      A                      A
 Frequencies --    358.0074               495.1206               593.4482
 Red. masses --      4.0335                 2.1122                 3.1742
 Frc consts  --      0.3046                 0.3051                 0.6586
 IR Inten    --      2.7242                 1.5896                 7.1331

                     10                     11                     12
                      A                      A                      A
 Frequencies --    608.8732               702.5963               777.9910
 Red. masses --      4.3842                 4.2796                 1.7973
 Frc consts  --      0.9576                 1.2447                 0.6409
 IR Inten    --     16.4670                 5.6358                 2.0446

                     13                     14                     15
                      A                      A                      A
 Frequencies --    789.9110               820.0794               843.8125
 Red. masses --      2.1463                 1.7221                 2.1536
 Frc consts  --      0.7890                 0.6824                 0.9035
 IR Inten    --      4.5652                 2.8028                22.6086

                     16                     17                     18
                      A                      A                      A
 Frequencies --    853.2076               890.8136               914.5820
 Red. masses --      2.7149                 2.7418                 4.1635
 Frc consts  --      1.1644                 1.2819                 2.0519
 IR Inten    --     15.6824                 6.7456                14.1850

                     19                     20                     21
                      A                      A                      A
 Frequencies --    934.7922              1003.4255              1022.4110
 Red. masses --      2.8435                 2.7729                 1.8148
 Frc consts  --      1.4640                 1.6450                 1.1177
 IR Inten    --     22.5313                35.3523                 0.4705

                     22                     23                     24
                      A                      A                      A
 Frequencies --   1044.4888              1063.4935              1079.4979
 Red. masses --      1.5746                 1.6737                 5.4198
 Frc consts  --      1.0121                 1.1153                 3.7211
 IR Inten    --      3.6754                 3.2456                84.7946

                     25                     26                     27
                      A                      A                      A
 Frequencies --   1093.8632              1156.7391              1189.6561
 Red. masses --      1.5947                 1.4519                 1.9125
 Frc consts  --      1.1242                 1.1446                 1.5947
 IR Inten    --      4.1690                 4.5369                 3.5928

                     28                     29                     30
                      A                      A                      A
 Frequencies --   1207.8637              1230.3552              1234.0731
 Red. masses --      1.4826                 1.2164                 1.4554
 Frc consts  --      1.2744                 1.0849                 1.3059
 IR Inten    --      2.0979                11.7270                12.6135

                     31                     32                     33
                      A                      A                      A
 Frequencies --   1241.8072              1259.5854              1295.8175
 Red. masses --      1.2529                 1.4947                 1.3894
 Frc consts  --      1.1384                 1.3972                 1.3746
 IR Inten    --     27.2065                 2.2234                 4.2476

                     34                     35                     36
                      A                      A                      A
 Frequencies --   1297.7455              1322.8339              1333.5415
 Red. masses --      1.3892                 1.4280                 1.4744
 Frc consts  --      1.3784                 1.4723                 1.5448
 IR Inten    --      1.3916                 7.9598                10.6525

                     37                     38                     39
                      A                      A                      A
 Frequencies --   1454.9570              1485.2221              1487.5178
 Red. masses --      1.4241                 1.0949                 1.1352
 Frc consts  --      1.7762                 1.4230                 1.4799
 IR Inten    --      8.0128                 2.1175                 0.1690

                     40                     41                     42
                      A                      A                      A
 Frequencies --   1526.4283              1683.6597              2972.9939
 Red. masses --      1.0859                 7.6526                 1.0568
 Frc consts  --      1.4907                12.7811                 5.5034
 IR Inten    --      3.2176                 4.8477                45.4677

                     43                     44                     45
                      A                      A                      A
 Frequencies --   3004.1878              3022.7403              3062.2654
 Red. masses --      1.1013                 1.0653                 1.0553
 Frc consts  --      5.8563                 5.7346                 5.8304
 IR Inten    --     33.3788                32.9889                42.2463

                     46                     47                     48
                      A                      A                      A
 Frequencies --   3080.4832              3123.9150              3134.2220
 Red. masses --      1.0988                 1.0910                 1.1071
 Frc consts  --      6.1435                 6.2732                 6.4075
 IR Inten    --     24.9525                45.4693                23.5958

                     49                     50                     51
                      A                      A                      A
 Frequencies --   3137.3437              3238.4737              3831.4004
 Red. masses --      1.0965                 1.0987                 1.0664
 Frc consts  --      6.3590                 6.7888                 9.2230
 IR Inten    --     45.3937                 4.6126                24.7334

 - Thermochemistry -
 -------------------
 Temperature   298.150 Kelvin.  Pressure   1.00000 Atm.
 Atom     1 has atomic number  8 and mass  15.99491

 Molecular mass:   126.06808 amu.
 Principal axes and moments of inertia in atomic units:
                           1         2         3
     Eigenvalues --   401.928102084.196692147.50373
           X            0.99988  -0.00917  -0.01263
           Y            0.00771   0.99374  -0.11147
           Z            0.01358   0.11136   0.99369
 This molecule is an asymmetric top.
 Rotational symmetry number  1.
 Rotational temperatures (Kelvin)      0.21550     0.04156     0.04033
 Rotational constants (GHZ):           4.49021     0.86592     0.84039
 Zero-point vibrational energy     418684.2 (Joules/Mol)
                                  100.06793 (Kcal/Mol)
 Warning -- explicit consideration of  10 degrees of freedom as
           vibrations may cause significant error
 Vibrational temperatures:     95.37   124.57   143.71   363.68   379.96
          (Kelvin)            464.28   515.09   712.37   853.84   876.03
                             1010.88  1119.35  1136.50  1179.91  1214.06
                             1227.57  1281.68  1315.88  1344.96  1443.70
                             1471.02  1502.78  1530.13  1553.15  1573.82
                             1664.29  1711.65  1737.84  1770.20  1775.55
                             1786.68  1812.26  1864.39  1867.16  1903.26
                             1918.67  2093.36  2136.90  2140.20  2196.19
                             2422.41  4277.47  4322.35  4349.04  4405.91
                             4432.12  4494.61  4509.44  4513.93  4659.44
                             5512.52

 Zero-point correction=                           0.159468 (Hartree/Particle)
 Thermal correction to Energy=                    0.167834
 Thermal correction to Enthalpy=                  0.168778
 Thermal correction to Gibbs Free Energy=         0.125661
 Sum of electronic and zero-point Energies=           -422.969790
 Sum of electronic and thermal Energies=              -422.961425
 Sum of electronic and thermal Enthalpies=            -422.960480
 Sum of electronic and thermal Free Energies=         -423.003597

                     E (Thermal)             CV                S
                      KCal/Mol        Cal/Mol-Kelvin    Cal/Mol-Kelvin
 Total                  105.317             31.478             90.746
 Electronic               0.000              0.000              0.000
 Translational            0.889              2.981             40.409
 Rotational               0.889              2.981             28.977
 Vibrational            103.540             25.517             21.360
 Vibration     1          0.598              1.970              4.261
 Vibration     2          0.601              1.959              3.736
 Vibration     3          0.604              1.949              3.457
 Vibration     4          0.664              1.758              1.711
 Vibration     5          0.671              1.739              1.635
 Vibration     6          0.708              1.630              1.296
 Vibration     7          0.733              1.559              1.131
 Vibration     8          0.851              1.261              0.670
 Vibration     9          0.951              1.046              0.461
 Vibration    10          0.968              1.013              0.435

 Optimization completed.
    -- Stationary point found.
 Normal termination of Gaussian 09 at Tue Jan 28 14:48:07 2020.
