 Gaussian 09, Revision D.01,
 Gaussian 09:  ES64L-G09RevD.01 24-Apr-2013

 -----------------------------
 # b3lyp 6-31G(2df,p) opt Freq
 -----------------------------

 -----
 titel
 -----
 Symbolic Z-matrix:
 Charge =  0 Multiplicity = 1

 SCF Done:  E(RB3LYP) =  -423.162901712     A.U. after   14 cycles
 Optimization completed.
    -- Stationary point found.
 Normal termination of Gaussian 09 at Mon Jan 27 16:27:38 2020.

 ----------------------------------------------------------------------
 #N Geom=AllCheck Guess=TCheck SCRF=Check GenChk RB3LYP/6-31G(2df,p) Fr
 eq
 ----------------------------------------------------------------------

 Structure from the checkpoint file:  "/scratch/puck/g09_783cd9ce-5453-4543-937c-425b10a23413/Gau-109761.chk"
 -----
 titel
 -----
 Charge =  0 Multiplicity = 1

                         Standard orientation:
 ---------------------------------------------------------------------
 Center     Atomic      Atomic             Coordinates (Angstroms)
 Number     Number       Type             X           Y           Z
 ---------------------------------------------------------------------
      1          6           0        2.004036   -1.183789    0.812411
      2          6           0        1.049734   -0.379083   -0.034291
      3          8           0        0.367288   -1.075717   -1.098035
      4          6           0       -0.416600   -0.643433    0.006113
      5          6           0       -1.503050    0.349862   -0.229724
      6          6           0       -2.935582   -0.133512   -0.253525
      7          6           0       -2.441074    0.681990    0.908732
      8          6           0        1.518046    0.987032   -0.436516
      9          8           0        2.429362    1.566152    0.099025
     10          1           0        2.259524   -0.629104    1.718869
     11          1           0        1.560004   -2.143011    1.087244
     12          1           0        2.933421   -1.372094    0.266735
     13          1           0       -0.705004   -1.452774    0.683668
     14          1           0       -1.258651    1.156550   -0.910750
     15          1           0       -3.611610    0.328704   -0.963421
     16          1           0       -3.112708   -1.192037   -0.093951
     17          1           0       -2.773004    1.708994    1.006237
     18          1           0       -2.285491    0.175106    1.855485
     19          1           0        0.967261    1.421782   -1.297234
 ---------------------------------------------------------------------

 SCF Done:  E(RB3LYP) =  -423.162901712     A.U. after    1 cycles

 The electronic state is 1-A.
 Alpha  occ. eigenvalues --  -19.16467 -19.14533 -10.27349 -10.25634 -10.25234
 Alpha  occ. eigenvalues --  -10.20786 -10.20036 -10.19882 -10.18734  -1.08662
 Alpha  occ. eigenvalues --   -1.05049  -0.87218  -0.76163  -0.69497  -0.66995
 Alpha  occ. eigenvalues --   -0.61305  -0.59783  -0.54888  -0.51941  -0.49988
 Alpha  occ. eigenvalues --   -0.47921  -0.45749  -0.43803  -0.42626  -0.40367
 Alpha  occ. eigenvalues --   -0.39005  -0.38700  -0.37870  -0.37631  -0.33682
 Alpha  occ. eigenvalues --   -0.31374  -0.29345  -0.27442  -0.25465
 Alpha virt. eigenvalues --   -0.03552   0.08208   0.08597   0.09676   0.11057
 Alpha virt. eigenvalues --    0.12479   0.12731   0.13483   0.14405   0.16800
 Alpha virt. eigenvalues --    0.18030   0.19613   0.20402   0.21483   0.22323

 Mulliken charges:
               1
     1  C   -0.468237
     2  C    0.252675
     3  O   -0.288489
     4  C    0.027037
     5  C   -0.023379
     6  C   -0.266736
     7  C   -0.266359
     8  C    0.119437
     9  O   -0.253302
    10  H    0.144087
    11  H    0.124894
    12  H    0.138340
    13  H    0.093286
    14  H    0.095241
    15  H    0.121856
    16  H    0.120227
    17  H    0.123207
    18  H    0.118792
    19  H    0.087422
 Sum of Mulliken charges =   0.00000

 Dipole moment (field-independent basis, Debye):
    X=             -2.3890    Y=             -0.6986    Z=              0.8408  Tot=              2.6272
 Quadrupole moment (field-independent basis, Debye-Ang):
   XX=            -55.8298   YY=            -55.0409   ZZ=            -53.7523
   XY=             -5.3358   XZ=             -0.3214   YZ=             -4.0775

  Exact polarizability:  96.785   2.557  71.775   3.541  -2.075  65.060
 Approx polarizability: 128.713  11.930 107.123   6.474   3.705 103.428

                      1                      2                      3
                      A                      A                      A
 Frequencies --     56.7736                90.6549               130.0696
 Red. masses --      3.7396                 3.1101                 1.6428
 Frc consts  --      0.0071                 0.0151                 0.0164
 IR Inten    --      0.9334                 4.4999                 0.5231

                      4                      5                      6
                      A                      A                      A
 Frequencies --    157.1601               193.0350               253.5607
 Red. masses --      1.5815                 2.5998                 3.6658
 Frc consts  --      0.0230                 0.0571                 0.1389
 IR Inten    --      0.5816                 2.5157                 9.1736

                      7                      8                      9
                      A                      A                      A
 Frequencies --    308.6916               345.4813               381.4390
 Red. masses --      3.1472                 2.9282                 3.0587
 Frc consts  --      0.1767                 0.2059                 0.2622
 IR Inten    --      2.9073                 2.5374                 3.8021

                     10                     11                     12
                      A                      A                      A
 Frequencies --    433.5250               509.8941               553.6813
 Red. masses --      3.3675                 4.1016                 5.1091
 Frc consts  --      0.3729                 0.6283                 0.9228
 IR Inten    --      3.8959                12.6907                 0.4229

                     13                     14                     15
                      A                      A                      A
 Frequencies --    759.6914               764.3762               820.7536
 Red. masses --      3.0087                 1.2701                 1.9747
 Frc consts  --      1.0231                 0.4372                 0.7837
 IR Inten    --     11.2083                 1.1449                 3.7431

                     16                     17                     18
                      A                      A                      A
 Frequencies --    831.4067               884.6362               901.3730
 Red. masses --      1.3771                 3.1561                 3.6840
 Frc consts  --      0.5608                 1.4552                 1.7635
 IR Inten    --      4.0549                24.1319                28.8036

                     19                     20                     21
                      A                      A                      A
 Frequencies --    931.2530               971.2779              1012.1736
 Red. masses --      3.1773                 2.1327                 1.5283
 Frc consts  --      1.6235                 1.1854                 0.9225
 IR Inten    --      0.9297                13.9077                 0.5492

                     22                     23                     24
                      A                      A                      A
 Frequencies --   1049.2382              1064.6905              1081.5484
 Red. masses --      1.6449                 1.3128                 1.3840
 Frc consts  --      1.0669                 0.8768                 0.9538
 IR Inten    --     14.2995                 3.4591                 7.9404

                     25                     26                     27
                      A                      A                      A
 Frequencies --   1096.5326              1118.9948              1127.8957
 Red. masses --      1.9401                 1.5734                 1.1979
 Frc consts  --      1.3744                 1.1608                 0.8978
 IR Inten    --     20.5959                18.1774                 6.2198

                     28                     29                     30
                      A                      A                      A
 Frequencies --   1195.5515              1197.6395              1225.7132
 Red. masses --      2.0398                 1.3803                 1.9111
 Frc consts  --      1.7178                 1.1664                 1.6916
 IR Inten    --      6.0791                 0.1233                 1.9372

                     31                     32                     33
                      A                      A                      A
 Frequencies --   1282.6216              1326.3885              1345.7378
 Red. masses --      2.5665                 1.6456                 1.8672
 Frc consts  --      2.4877                 1.7058                 1.9923
 IR Inten    --     14.0451                 3.5709                 3.2739

                     34                     35                     36
                      A                      A                      A
 Frequencies --   1401.8599              1416.7520              1471.4571
 Red. masses --      1.2864                 1.2867                 1.0858
 Frc consts  --      1.4894                 1.5216                 1.3851
 IR Inten    --      0.6050                12.2523                 2.0027

                     37                     38                     39
                      A                      A                      A
 Frequencies --   1473.5163              1481.7607              1494.0619
 Red. masses --      1.1717                 1.2945                 1.1980
 Frc consts  --      1.4989                 1.6746                 1.5756
 IR Inten    --      1.0463                17.2593                12.4850

                     40                     41                     42
                      A                      A                      A
 Frequencies --   1510.1120              1819.8778              2911.4488
 Red. masses --      1.6481                10.7185                 1.0842
 Frc consts  --      2.2143                20.9156                 5.4147
 IR Inten    --      5.1773               188.9022                78.2645

                     43                     44                     45
                      A                      A                      A
 Frequencies --   3050.9012              3062.2295              3120.4902
 Red. masses --      1.0356                 1.0854                 1.1005
 Frc consts  --      5.6796                 5.9967                 6.3135
 IR Inten    --     10.6723                21.0596                11.1986

                     46                     47                     48
                      A                      A                      A
 Frequencies --   3135.1325              3137.2647              3139.2071
 Red. masses --      1.0510                 1.1029                 1.0590
 Frc consts  --      6.0863                 6.3955                 6.1485
 IR Inten    --     15.2071                10.4022                 9.0216

                     49                     50                     51
                      A                      A                      A
 Frequencies --   3178.1936              3214.8580              3229.8392
 Red. masses --      1.0894                 1.1177                 1.1149
 Frc consts  --      6.4834                 6.8059                 6.8528
 IR Inten    --      5.7377                 0.1905                14.3658

 - Thermochemistry -
 -------------------
 Temperature   298.150 Kelvin.  Pressure   1.00000 Atm.
 Atom     1 has atomic number  6 and mass  12.00000

 Molecular mass:   126.06808 amu.
 Principal axes and moments of inertia in atomic units:
                           1         2         3
     Eigenvalues --   608.369891778.514632008.27656
           X            0.99950  -0.03057   0.00834
           Y            0.03120   0.99528  -0.09185
           Z           -0.00550   0.09206   0.99574
 This molecule is an asymmetric top.
 Rotational symmetry number  1.
 Warning -- assumption of classical behavior for rotation
           may cause significant error
 Rotational temperatures (Kelvin)      0.14237     0.04870     0.04313
 Rotational constants (GHZ):           2.96652     1.01475     0.89865
 Zero-point vibrational energy     410632.7 (Joules/Mol)
                                   98.14356 (Kcal/Mol)
 Warning -- explicit consideration of  12 degrees of freedom as
           vibrations may cause significant error
 Vibrational temperatures:     81.68   130.43   187.14   226.12   277.73
          (Kelvin)            364.82   444.14   497.07   548.80   623.74
                              733.62   796.62  1093.03  1099.77  1180.88
                             1196.21  1272.79  1296.87  1339.86  1397.45
                             1456.29  1509.62  1531.85  1556.10  1577.66
                             1609.98  1622.79  1720.13  1723.13  1763.53
                             1845.40  1908.37  1936.21  2016.96  2038.39
                             2117.10  2120.06  2131.92  2149.62  2172.71
                             2618.40  4188.92  4389.56  4405.86  4489.68
                             4510.75  4513.82  4516.61  4572.71  4625.46
                             4647.01

 Zero-point correction=                           0.156402 (Hartree/Particle)
 Thermal correction to Energy=                    0.165793
 Thermal correction to Enthalpy=                  0.166737
 Thermal correction to Gibbs Free Energy=         0.121611
 Sum of electronic and zero-point Energies=           -423.006500
 Sum of electronic and thermal Energies=              -422.997109
 Sum of electronic and thermal Enthalpies=            -422.996164
 Sum of electronic and thermal Free Energies=         -423.041290

                     E (Thermal)             CV                S
                      KCal/Mol        Cal/Mol-Kelvin    Cal/Mol-Kelvin
 Total                  104.037             34.109             94.976
 Electronic               0.000              0.000              0.000
 Translational            0.889              2.981             40.409
 Rotational               0.889              2.981             29.165
 Vibrational            102.259             28.147             25.402
 Vibration     1          0.596              1.975              4.566
 Vibration     2          0.602              1.956              3.646
 Vibration     3          0.612              1.923              2.945
 Vibration     4          0.621              1.895              2.584
 Vibration     5          0.635              1.850              2.198
 Vibration     6          0.665              1.757              1.706
 Vibration     7          0.698              1.657              1.369
 Vibration     8          0.724              1.584              1.187
 Vibration     9          0.751              1.510              1.033
 Vibration    10          0.794              1.397              0.847
 Vibration    11          0.865              1.228              0.634
 Vibration    12          0.909              1.132              0.537

 Optimization completed.
    -- Stationary point found.
 Normal termination of Gaussian 09 at Mon Jan 27 17:03:59 2020.
