 Gaussian 09, Revision D.01,
 Gaussian 09:  ES64L-G09RevD.01 24-Apr-2013

 -----------------------------
 # b3lyp 6-31G(2df,p) opt Freq
 -----------------------------

 -----
 titel
 -----
 Symbolic Z-matrix:
 Charge =  0 Multiplicity = 1

 SCF Done:  E(RB3LYP) =  -423.167304194     A.U. after   14 cycles
 Optimization completed.
    -- Stationary point found.
 Normal termination of Gaussian 09 at Tue Jan 28 03:57:53 2020.

 ----------------------------------------------------------------------
 #N Geom=AllCheck Guess=TCheck SCRF=Check GenChk RB3LYP/6-31G(2df,p) Fr
 eq
 ----------------------------------------------------------------------

 Structure from the checkpoint file:  "/scratch/puck/g09_d24a1719-48b6-4621-b721-0d9397e2734b/Gau-32169.chk"
 -----
 titel
 -----
 Charge =  0 Multiplicity = 1

                         Standard orientation:
 ---------------------------------------------------------------------
 Center     Atomic      Atomic             Coordinates (Angstroms)
 Number     Number       Type             X           Y           Z
 ---------------------------------------------------------------------
      1          6           0       -3.031063   -0.534271    0.607182
      2          6           0       -1.965160   -0.112812   -0.404788
      3          8           0       -1.480574    1.196608   -0.082939
      4          6           0       -0.060612    1.202225   -0.003896
      5          6           0        0.352918   -0.240455   -0.172688
      6          6           0       -0.730833   -0.973003   -0.421119
      7          6           0        1.748859   -0.701956   -0.103574
      8          6           0        2.736886   -0.133747    0.835191
      9          8           0        2.759899    0.223544   -0.541953
     10          1           0       -3.841966    0.199316    0.623094
     11          1           0       -3.453805   -1.508412    0.339278
     12          1           0       -2.601433   -0.601134    1.610982
     13          1           0       -2.427574   -0.083956   -1.407148
     14          1           0        0.371874    1.836692   -0.791929
     15          1           0        0.250190    1.628971    0.961622
     16          1           0       -0.756492   -2.038011   -0.617917
     17          1           0        1.915234   -1.727402   -0.433526
     18          1           0        2.442014    0.656868    1.522658
     19          1           0        3.561386   -0.760039    1.174170
 ---------------------------------------------------------------------

 SCF Done:  E(RB3LYP) =  -423.167304194     A.U. after    1 cycles

 The electronic state is 1-A.
 Alpha  occ. eigenvalues --  -19.15883 -19.13183 -10.24982 -10.24168 -10.23556
 Alpha  occ. eigenvalues --  -10.22949 -10.19637 -10.18727 -10.17478  -1.07761
 Alpha  occ. eigenvalues --   -1.03113  -0.80436  -0.76840  -0.68331  -0.67421
 Alpha  occ. eigenvalues --   -0.64855  -0.57695  -0.55785  -0.51603  -0.49940
 Alpha  occ. eigenvalues --   -0.47138  -0.45268  -0.43687  -0.41060  -0.40515
 Alpha  occ. eigenvalues --   -0.38940  -0.37965  -0.37402  -0.34554  -0.33634
 Alpha  occ. eigenvalues --   -0.31752  -0.28058  -0.26175  -0.23137
 Alpha virt. eigenvalues --    0.00238   0.09415   0.10150   0.10656   0.11390
 Alpha virt. eigenvalues --    0.12705   0.13313   0.14697   0.15097   0.16415
 Alpha virt. eigenvalues --    0.17712   0.18216   0.19000   0.20554   0.22126

 Mulliken charges:
               1
     1  C   -0.387121
     2  C    0.110782
     3  O   -0.282580
     4  C   -0.165145
     5  C    0.323748
     6  C   -0.249033
     7  C   -0.031796
     8  C   -0.185344
     9  O   -0.231235
    10  H    0.127508
    11  H    0.110548
    12  H    0.117633
    13  H    0.082250
    14  H    0.119528
    15  H    0.102702
    16  H    0.101493
    17  H    0.095763
    18  H    0.119875
    19  H    0.120423
 Sum of Mulliken charges =   0.00000

 Dipole moment (field-independent basis, Debye):
    X=              0.0325    Y=             -1.9967    Z=              1.0979  Tot=              2.2789
 Quadrupole moment (field-independent basis, Debye-Ang):
   XX=            -54.6214   YY=            -52.4427   ZZ=            -53.0534
   XY=              0.8525   XZ=              5.0727   YZ=              1.4138

  Exact polarizability: 106.685   8.371  72.339   7.707   4.288  61.353
 Approx polarizability: 141.246  19.275 111.738  11.837   7.147  95.436

                      1                      2                      3
                      A                      A                      A
 Frequencies --     54.0149                87.3768               131.8198
 Red. masses --      3.7193                 2.8169                 3.4998
 Frc consts  --      0.0064                 0.0127                 0.0358
 IR Inten    --      1.4073                 3.4784                 3.1198

                      4                      5                      6
                      A                      A                      A
 Frequencies --    173.2647               235.4289               264.8247
 Red. masses --      3.1500                 1.1022                 3.4122
 Frc consts  --      0.0557                 0.0360                 0.1410
 IR Inten    --      0.1730                 0.1363                 3.4393

                      7                      8                      9
                      A                      A                      A
 Frequencies --    346.6888               409.8469               512.5381
 Red. masses --      2.8891                 3.6616                 3.3712
 Frc consts  --      0.2046                 0.3624                 0.5218
 IR Inten    --      2.4576                 1.2442                 1.1035

                     10                     11                     12
                      A                      A                      A
 Frequencies --    535.7790               617.4107               729.2805
 Red. masses --      2.3526                 3.2142                 3.4321
 Frc consts  --      0.3979                 0.7219                 1.0755
 IR Inten    --      1.8682                 8.6567                 2.0569

                     13                     14                     15
                      A                      A                      A
 Frequencies --    826.2622               842.1767               864.1480
 Red. masses --      4.3944                 3.3664                 2.1674
 Frc consts  --      1.7676                 1.4068                 0.9536
 IR Inten    --     27.4205                16.2653                23.8546

                     16                     17                     18
                      A                      A                      A
 Frequencies --    873.1938               915.5694               932.0218
 Red. masses --      2.2247                 2.2102                 2.7023
 Frc consts  --      0.9994                 1.0916                 1.3830
 IR Inten    --      3.9469                 5.4005                 8.9354

                     19                     20                     21
                      A                      A                      A
 Frequencies --    978.8891              1024.4198              1045.7906
 Red. masses --      1.7187                 2.1103                 1.6812
 Frc consts  --      0.9704                 1.3048                 1.0833
 IR Inten    --     13.6185                 7.7476                11.0697

                     22                     23                     24
                      A                      A                      A
 Frequencies --   1077.1632              1096.4737              1109.2413
 Red. masses --      1.9854                 1.2272                 2.5676
 Frc consts  --      1.3573                 0.8693                 1.8614
 IR Inten    --     24.6648                 0.0977                33.4178

                     25                     26                     27
                      A                      A                      A
 Frequencies --   1135.9740              1149.0191              1169.3577
 Red. masses --      2.3642                 1.4080                 1.3349
 Frc consts  --      1.7975                 1.0952                 1.0755
 IR Inten    --     40.6270                 0.3206                 2.0097

                     28                     29                     30
                      A                      A                      A
 Frequencies --   1205.1453              1219.1836              1270.4539
 Red. masses --      1.0915                 1.9223                 1.6474
 Frc consts  --      0.9340                 1.6835                 1.5666
 IR Inten    --      1.2594                 6.9346                 4.9586

                     31                     32                     33
                      A                      A                      A
 Frequencies --   1303.7102              1350.4050              1370.9539
 Red. masses --      1.4586                 1.9248                 1.3503
 Frc consts  --      1.4606                 2.0680                 1.4953
 IR Inten    --     13.1384                 4.6386                19.2737

                     34                     35                     36
                      A                      A                      A
 Frequencies --   1391.0138              1399.6955              1418.5840
 Red. masses --      1.7703                 1.3492                 1.7314
 Frc consts  --      2.0182                 1.5574                 2.0528
 IR Inten    --      6.3615                 8.5848                21.1679

                     37                     38                     39
                      A                      A                      A
 Frequencies --   1485.2583              1494.6460              1522.8811
 Red. masses --      1.0556                 1.0498                 1.1458
 Frc consts  --      1.3721                 1.3817                 1.5656
 IR Inten    --      1.7782                 2.1035                 0.6396

                     40                     41                     42
                      A                      A                      A
 Frequencies --   1523.9420              1723.6815              2942.3201
 Red. masses --      1.1709                 7.8788                 1.0817
 Frc consts  --      1.6022                13.7918                 5.5174
 IR Inten    --      2.6842                 1.0797                70.4666

                     43                     44                     45
                      A                      A                      A
 Frequencies --   2985.1376              3004.9244              3036.9514
 Red. masses --      1.0569                 1.1047                 1.0344
 Frc consts  --      5.5490                 5.8770                 5.6212
 IR Inten    --     59.7105                35.0052                20.9072

                     46                     47                     48
                      A                      A                      A
 Frequencies --   3084.6380              3110.9064              3111.7596
 Red. masses --      1.0501                 1.1010                 1.0885
 Frc consts  --      5.8867                 6.2781                 6.2102
 IR Inten    --     28.9738                21.0528                19.7420

                     49                     50                     51
                      A                      A                      A
 Frequencies --   3121.2769              3173.3695              3208.2687
 Red. masses --      1.1030                 1.1193                 1.0950
 Frc consts  --      6.3310                 6.6408                 6.6407
 IR Inten    --     24.3172                26.0209                 6.0880

 - Thermochemistry -
 -------------------
 Temperature   298.150 Kelvin.  Pressure   1.00000 Atm.
 Atom     1 has atomic number  6 and mass  12.00000

 Molecular mass:   126.06808 amu.
 Principal axes and moments of inertia in atomic units:
                           1         2         3
     Eigenvalues --   402.753701942.351082108.99511
           X            0.99993   0.01024   0.00648
           Y           -0.01037   0.99974   0.02044
           Z           -0.00627  -0.02051   0.99977
 This molecule is an asymmetric top.
 Rotational symmetry number  1.
 Rotational temperatures (Kelvin)      0.21505     0.04459     0.04107
 Rotational constants (GHZ):           4.48100     0.92915     0.85574
 Zero-point vibrational energy     416283.0 (Joules/Mol)
                                   99.49402 (Kcal/Mol)
 Warning -- explicit consideration of  11 degrees of freedom as
           vibrations may cause significant error
 Vibrational temperatures:     77.72   125.72   189.66   249.29   338.73
          (Kelvin)            381.02   498.81   589.68   737.43   770.87
                              888.32  1049.27  1188.81  1211.70  1243.31
                             1256.33  1317.30  1340.97  1408.40  1473.91
                             1504.66  1549.80  1577.58  1595.95  1634.41
                             1653.18  1682.44  1733.93  1754.13  1827.90
                             1875.75  1942.93  1972.49  2001.36  2013.85
                             2041.02  2136.95  2150.46  2191.08  2192.61
                             2479.99  4233.34  4294.94  4323.41  4369.49
                             4438.10  4475.89  4477.12  4490.82  4565.77
                             4615.98

 Zero-point correction=                           0.158554 (Hartree/Particle)
 Thermal correction to Energy=                    0.167272
 Thermal correction to Enthalpy=                  0.168216
 Thermal correction to Gibbs Free Energy=         0.124364
 Sum of electronic and zero-point Energies=           -423.008750
 Sum of electronic and thermal Energies=              -423.000032
 Sum of electronic and thermal Enthalpies=            -422.999088
 Sum of electronic and thermal Free Energies=         -423.042941

                     E (Thermal)             CV                S
                      KCal/Mol        Cal/Mol-Kelvin    Cal/Mol-Kelvin
 Total                  104.965             31.870             92.296
 Electronic               0.000              0.000              0.000
 Translational            0.889              2.981             40.409
 Rotational               0.889              2.981             28.891
 Vibrational            103.187             25.908             22.996
 Vibration     1          0.596              1.976              4.665
 Vibration     2          0.601              1.958              3.718
 Vibration     3          0.612              1.922              2.919
 Vibration     4          0.627              1.875              2.400
 Vibration     5          0.655              1.787              1.837
 Vibration     6          0.671              1.737              1.630
 Vibration     7          0.725              1.582              1.181
 Vibration     8          0.774              1.449              0.927
 Vibration     9          0.868              1.222              0.628
 Vibration    10          0.891              1.171              0.574
 Vibration    11          0.977              0.995              0.421

 Normal termination of Gaussian 09 at Tue Jan 28 04:39:58 2020.
