 Gaussian 09, Revision D.01,
 Gaussian 09:  ES64L-G09RevD.01 24-Apr-2013

 -----------------------------
 # b3lyp 6-31G(2df,p) opt Freq
 -----------------------------

 -----
 titel
 -----
 Symbolic Z-matrix:
 Charge =  0 Multiplicity = 1

 SCF Done:  E(RB3LYP) =  -423.128476072     A.U. after   12 cycles
 Optimization completed.
    -- Stationary point found.
 Normal termination of Gaussian 09 at Tue Jan 28 00:02:03 2020.

 ----------------------------------------------------------------------
 #N Geom=AllCheck Guess=TCheck SCRF=Check GenChk RB3LYP/6-31G(2df,p) Fr
 eq
 ----------------------------------------------------------------------

 Structure from the checkpoint file:  "/scratch/puck/g09_0adc98a4-7ef3-4417-a25e-6cd367e564ce/Gau-104175.chk"
 -----
 titel
 -----
 Charge =  0 Multiplicity = 1

                         Standard orientation:
 ---------------------------------------------------------------------
 Center     Atomic      Atomic             Coordinates (Angstroms)
 Number     Number       Type             X           Y           Z
 ---------------------------------------------------------------------
      1          8           0       -2.058825   -1.352886   -0.239913
      2          6           0       -0.811442   -1.079306    0.354637
      3          6           0        0.406925   -0.885483   -0.591833
      4          6           0        1.816574   -1.151321    0.036471
      5          6           0        2.070863    0.387426    0.172280
      6          6           0        0.588988    0.584837   -0.089496
      7          8           0       -0.028423    1.721903   -0.675504
      8          6           0       -1.208175    1.533980    0.152271
      9          6           0       -0.568720    0.360001    0.923451
     10          1           0       -2.145249   -0.811628   -1.031564
     11          1           0       -0.670938   -1.862032    1.106364
     12          1           0        0.291951   -1.165812   -1.640990
     13          1           0        1.771915   -1.674974    0.995082
     14          1           0        2.514618   -1.681014   -0.612777
     15          1           0        2.486868    0.773402    1.107050
     16          1           0        2.669686    0.763100   -0.663443
     17          1           0       -1.413238    2.425378    0.753738
     18          1           0       -2.101142    1.296999   -0.439471
     19          1           0       -0.476562    0.483646    2.002662
 ---------------------------------------------------------------------

 SCF Done:  E(RB3LYP) =  -423.128476072     A.U. after    1 cycles

 The electronic state is 1-A.
 Alpha  occ. eigenvalues --  -19.14101 -19.13703 -10.23676 -10.23563 -10.23530
 Alpha  occ. eigenvalues --  -10.19249 -10.18736 -10.18570 -10.18276  -1.04616
 Alpha  occ. eigenvalues --   -1.02162  -0.85908  -0.76443  -0.68970  -0.66480
 Alpha  occ. eigenvalues --   -0.62148  -0.58978  -0.51511  -0.50854  -0.50322
 Alpha  occ. eigenvalues --   -0.47882  -0.45604  -0.42984  -0.42369  -0.38198
 Alpha  occ. eigenvalues --   -0.37773  -0.37132  -0.35535  -0.34409  -0.32179
 Alpha  occ. eigenvalues --   -0.30285  -0.27366  -0.25976  -0.23486
 Alpha virt. eigenvalues --    0.06122   0.07148   0.09023   0.09619   0.11742
 Alpha virt. eigenvalues --    0.13363   0.13868   0.14906   0.16271   0.17630
 Alpha virt. eigenvalues --    0.18139   0.19132   0.20138   0.21015   0.21714

 Mulliken charges:
               1
     1  O   -0.434412
     2  C    0.125319
     3  C   -0.153611
     4  C   -0.236622
     5  C   -0.325962
     6  C    0.486462
     7  O   -0.329523
     8  C   -0.116129
     9  C   -0.175379
    10  H    0.284807
    11  H    0.089072
    12  H    0.069040
    13  H    0.105804
    14  H    0.112013
    15  H    0.100210
    16  H    0.116157
    17  H    0.112867
    18  H    0.094731
    19  H    0.075154
 Sum of Mulliken charges =   0.00000

 Dipole moment (field-independent basis, Debye):
    X=              0.7057    Y=             -0.1277    Z=              0.4954  Tot=              0.8716
 Quadrupole moment (field-independent basis, Debye-Ang):
   XX=            -53.3816   YY=            -57.6212   ZZ=            -50.9176
   XY=             -4.8786   XZ=              1.4294   YZ=              2.4926

  Exact polarizability:  82.966  -4.153  74.768   0.341   1.735  65.640
 Approx polarizability: 112.465  -2.233 108.034   0.389  -0.637 103.141

                      1                      2                      3
                      A                      A                      A
 Frequencies --     75.7101               215.9000               227.1713
 Red. masses --      3.2980                 2.2141                 1.8332
 Frc consts  --      0.0111                 0.0608                 0.0557
 IR Inten    --      3.7646                 2.2350                29.0451

                      4                      5                      6
                      A                      A                      A
 Frequencies --    270.1715               290.7533               363.8428
 Red. masses --      3.2662                 1.4451                 3.0522
 Frc consts  --      0.1405                 0.0720                 0.2381
 IR Inten    --      0.5371                56.1951                 0.5816

                      7                      8                      9
                      A                      A                      A
 Frequencies --    373.4044               517.8583               534.5513
 Red. masses --      3.4054                 4.7166                 3.3839
 Frc consts  --      0.2798                 0.7452                 0.5697
 IR Inten    --      9.7974                 4.2864                 2.8417

                     10                     11                     12
                      A                      A                      A
 Frequencies --    668.9377               722.7554               761.3652
 Red. masses --      2.6250                 1.6580                 2.3933
 Frc consts  --      0.6921                 0.5103                 0.8174
 IR Inten    --      6.4522                 2.9908                 4.3417

                     13                     14                     15
                      A                      A                      A
 Frequencies --    820.1260               854.9001               890.8415
 Red. masses --      2.4233                 2.1830                 2.2911
 Frc consts  --      0.9603                 0.9400                 1.0713
 IR Inten    --      7.3099                 4.7591                 2.3494

                     16                     17                     18
                      A                      A                      A
 Frequencies --    900.4293               922.5147               979.0416
 Red. masses --      1.9532                 3.0949                 2.0547
 Frc consts  --      0.9330                 1.5518                 1.1604
 IR Inten    --      8.4923                 1.4379                19.6386

                     19                     20                     21
                      A                      A                      A
 Frequencies --    986.4922               991.4581              1027.8020
 Red. masses --      4.9738                 2.3793                 2.2640
 Frc consts  --      2.8518                 1.3780                 1.4091
 IR Inten    --     58.0993                 1.2658                41.2599

                     22                     23                     24
                      A                      A                      A
 Frequencies --   1066.4448              1072.4276              1097.3750
 Red. masses --      1.8961                 2.2582                 1.9269
 Frc consts  --      1.2705                 1.5302                 1.3671
 IR Inten    --      2.6856                12.3553                24.5140

                     25                     26                     27
                      A                      A                      A
 Frequencies --   1135.7976              1149.5724              1159.8038
 Red. masses --      2.5475                 1.6134                 1.2976
 Frc consts  --      1.9363                 1.2562                 1.0284
 IR Inten    --     84.6641                28.5018                 7.5653

                     28                     29                     30
                      A                      A                      A
 Frequencies --   1193.2316              1215.5224              1219.6510
 Red. masses --      1.7418                 1.3381                 1.3945
 Frc consts  --      1.4611                 1.1648                 1.2222
 IR Inten    --     24.0473                10.7540                 4.5602

                     31                     32                     33
                      A                      A                      A
 Frequencies --   1247.9742              1250.5220              1265.8855
 Red. masses --      1.4721                 1.5075                 1.6098
 Frc consts  --      1.3509                 1.3890                 1.5199
 IR Inten    --      1.8242                 6.5595                24.0295

                     34                     35                     36
                      A                      A                      A
 Frequencies --   1296.6908              1312.2040              1321.0921
 Red. masses --      1.7067                 1.8087                 2.1757
 Frc consts  --      1.6907                 1.8349                 2.2373
 IR Inten    --      6.8516                 4.0805                37.7809

                     37                     38                     39
                      A                      A                      A
 Frequencies --   1351.4924              1428.4653              1475.7012
 Red. masses --      1.5947                 1.2291                 1.0863
 Frc consts  --      1.7162                 1.4777                 1.3938
 IR Inten    --      9.7111                62.7588                 1.0192

                     40                     41                     42
                      A                      A                      A
 Frequencies --   1493.2583              1525.7997              3020.6064
 Red. masses --      1.1327                 1.1096                 1.0586
 Frc consts  --      1.4881                 1.5220                 5.6910
 IR Inten    --      5.7086                 2.1462                74.6628

                     43                     44                     45
                      A                      A                      A
 Frequencies --   3050.4826              3059.7764              3066.9740
 Red. masses --      1.0576                 1.0853                 1.0633
 Frc consts  --      5.7983                 5.9866                 5.8931
 IR Inten    --     36.6858                17.1760                40.1831

                     46                     47                     48
                      A                      A                      A
 Frequencies --   3069.8122              3089.6016              3100.4150
 Red. masses --      1.1066                 1.0896                 1.1062
 Frc consts  --      6.1440                 6.1283                 6.2650
 IR Inten    --     28.1995                31.1729                 9.7421

                     49                     50                     51
                      A                      A                      A
 Frequencies --   3107.6659              3128.8615              3811.1491
 Red. masses --      1.0901                 1.1056                 1.0659
 Frc consts  --      6.2025                 6.3772                 9.1218
 IR Inten    --     32.0890                31.9181                12.8730

 - Thermochemistry -
 -------------------
 Temperature   298.150 Kelvin.  Pressure   1.00000 Atm.
 Atom     1 has atomic number  8 and mass  15.99491

 Molecular mass:   126.06808 amu.
 Principal axes and moments of inertia in atomic units:
                           1         2         3
     Eigenvalues --   745.86977 955.750041432.21008
           X            0.99286  -0.11914   0.00521
           Y            0.11903   0.99271   0.01901
           Z           -0.00744  -0.01825   0.99981
 This molecule is an asymmetric top.
 Rotational symmetry number  1.
 Warning -- assumption of classical behavior for rotation
           may cause significant error
 Rotational temperatures (Kelvin)      0.11612     0.09062     0.06048
 Rotational constants (GHZ):           2.41965     1.88830     1.26011
 Zero-point vibrational energy     419771.3 (Joules/Mol)
                                  100.32775 (Kcal/Mol)
 Warning -- explicit consideration of   9 degrees of freedom as
           vibrations may cause significant error
 Vibrational temperatures:    108.93   310.63   326.85   388.72   418.33
          (Kelvin)            523.49   537.24   745.08   769.10   962.45
                             1039.88  1095.43  1179.98  1230.01  1281.72
                             1295.52  1327.29  1408.62  1419.34  1426.49
                             1478.78  1534.37  1542.98  1578.88  1634.16
                             1653.98  1668.70  1716.79  1748.86  1754.80
                             1795.55  1799.22  1821.32  1865.65  1887.97
                             1900.75  1944.49  2055.24  2123.20  2148.46
                             2195.28  4345.97  4388.96  4402.33  4412.69
                             4416.77  4445.24  4460.80  4471.23  4501.73
                             5483.39

 Zero-point correction=                           0.159882 (Hartree/Particle)
 Thermal correction to Energy=                    0.167598
 Thermal correction to Enthalpy=                  0.168542
 Thermal correction to Gibbs Free Energy=         0.127732
 Sum of electronic and zero-point Energies=           -422.968594
 Sum of electronic and thermal Energies=              -422.960878
 Sum of electronic and thermal Enthalpies=            -422.959934
 Sum of electronic and thermal Free Energies=         -423.000744

                     E (Thermal)             CV                S
                      KCal/Mol        Cal/Mol-Kelvin    Cal/Mol-Kelvin
 Total                  105.169             30.615             85.891
 Electronic               0.000              0.000              0.000
 Translational            0.889              2.981             40.409
 Rotational               0.889              2.981             28.414
 Vibrational            103.392             24.654             17.068
 Vibration     1          0.599              1.965              3.999
 Vibration     2          0.645              1.817              1.993
 Vibration     3          0.651              1.800              1.901
 Vibration     4          0.674              1.728              1.595
 Vibration     5          0.687              1.691              1.470
 Vibration     6          0.737              1.547              1.106
 Vibration     7          0.745              1.527              1.066
 Vibration     8          0.873              1.210              0.615
 Vibration     9          0.890              1.174              0.577

 Normal termination of Gaussian 09 at Tue Jan 28 00:51:28 2020.
