 Gaussian 09, Revision D.01,
 Gaussian 09:  ES64L-G09RevD.01 24-Apr-2013

 -----------------------------
 # b3lyp 6-31G(2df,p) opt Freq
 -----------------------------

 -----
 titel
 -----
 Symbolic Z-matrix:
 Charge =  0 Multiplicity = 1

 SCF Done:  E(RB3LYP) =  -423.161764533     A.U. after   14 cycles
 Optimization completed.
    -- Stationary point found.
 Normal termination of Gaussian 09 at Tue Jan 28 14:10:41 2020.

 ----------------------------------------------------------------------
 #N Geom=AllCheck Guess=TCheck SCRF=Check GenChk RB3LYP/6-31G(2df,p) Fr
 eq
 ----------------------------------------------------------------------

 Structure from the checkpoint file:  "/scratch/puck/g09_1df90576-e0b3-4367-8e75-9d790bd696df/Gau-32299.chk"
 -----
 titel
 -----
 Charge =  0 Multiplicity = 1

                         Standard orientation:
 ---------------------------------------------------------------------
 Center     Atomic      Atomic             Coordinates (Angstroms)
 Number     Number       Type             X           Y           Z
 ---------------------------------------------------------------------
      1          6           0        2.892872   -0.664507    0.102444
      2          8           0        1.979282    0.393215    0.296176
      3          6           0        0.756754    0.224866   -0.404729
      4          6           0        0.049269    1.554055   -0.499522
      5          6           0       -1.125094    1.563041    0.132629
      6          6           0       -1.457620    0.238554    0.754418
      7          6           0       -2.296783   -0.733933   -0.115387
      8          8           0       -1.110342   -1.416008   -0.568075
      9          6           0       -0.268086   -0.663501    0.334414
     10          1           0        3.167177   -0.773252   -0.958342
     11          1           0        3.790260   -0.425227    0.678231
     12 .678231
     12          1           0        2.498375   -1.630140    0.452697
     13          1           0        0.950196   -0.210895   -1.398888
     14          1           0        0.491160    2.392281   -1.025563
     15          1           0       -1.794753    2.415286    0.184654
     16          1           0       -1.744155    0.295026    1.806731
     17          1           0       -2.952605   -1.401021    0.458787
     18          1           0       -2.862722   -0.291397   -0.943115
     19          1           0        0.197678   -1.299765    1.094398
 ---------------------------------------------------------------------

 SCF Done:  E(RB3LYP) =  -423.161764533     A.U. after    1 cycles

 The electronic state is 1-A.
 Alpha  occ. eigenvalues --  -19.13847 -19.13238 -10.23063 -10.23035 -10.22919
 Alpha  occ. eigenvalues --  -10.22261 -10.19537 -10.18923 -10.18371  -1.04082
 Alpha  occ. eigenvalues --   -1.02754  -0.82986  -0.73919  -0.69671  -0.68371
 Alpha  occ. eigenvalues --   -0.63149  -0.55397  -0.54127  -0.51957  -0.49424
 Alpha  occ. eigenvalues --   -0.47235  -0.44815  -0.44155  -0.43070  -0.42323
 Alpha  occ. eigenvalues --   -0.38374  -0.37179  -0.35040  -0.33435  -0.31698
 Alpha  occ. eigenvalues --   -0.30421  -0.26659  -0.25607  -0.23921
 Alpha virt. eigenvalues --    0.00931   0.08333   0.09645   0.10765   0.13527
 Alpha virt. eigenvalues --    0.13697   0.14059   0.14849   0.15622   0.16776
 Alpha virt. eigenvalues --    0.17096   0.17747   0.18771   0.20196   0.22064

 Mulliken charges:
               1
     1  C   -0.238319
     2  O   -0.249447
     3  C    0.071562
     4  C   -0.091354
     5  C   -0.081521
     6  C   -0.122874
     7  C   -0.076406
     8  O   -0.290702
     9  C    0.085535
    10  H    0.107413
    11  H    0.126870
    12  H    0.108326
    13  H    0.080841
    14  H    0.102639
    15  H    0.099972
    16  H    0.085045
    17  H    0.098427
    18  H    0.103884
    19  H    0.080111
 Sum of Mulliken charges =   0.00000

 Dipole moment (field-independent basis, Debye):
    X=             -0.5066    Y=              0.4003    Z=              0.4619  Tot=              0.7939
 Quadrupole moment (field-independent basis, Debye-Ang):
   XX=            -48.0966   YY=            -54.5748   ZZ=            -53.3554
   XY=             -4.1745   XZ=             -2.7134   YZ=             -2.9846

  Exact polarizability:  96.943  -2.213  72.602  -5.499  -3.564  62.371
 Approx polarizability: 131.261  -1.729 104.404 -11.543  -1.810  99.053

                      1                      2                      3
                      A                      A                      A
 Frequencies --     91.0284               109.3904               166.4485
 Red. masses --      3.5668                 2.3704                 1.4989
 Frc consts  --      0.0174                 0.0167                 0.0245
 IR Inten    --      2.8483                 3.2449                 0.4602

                      4                      5                      6
                      A                      A                      A
 Frequencies --    189.8218               278.8139               300.7559
 Red. masses --      2.0785                 3.7344                 3.1255
 Frc consts  --      0.0441                 0.1710                 0.1666
 IR Inten    --      0.6069                 7.9419                 3.5221

                      7                      8                      9
                      A                      A                      A
 Frequencies --    401.3587               433.0035               539.7866
 Red. masses --      2.7752                 3.9880                 3.6453
 Frc consts  --      0.2634                 0.4405                 0.6258
 IR Inten    --      1.2767                 1.0171                 2.6760

                     10                     11                     12
                      A                      A                      A
 Frequencies --    679.5243               753.7526               799.1926
 Red. masses --      4.3504                 2.6210                 2.0034
 Frc consts  --      1.1836                 0.8774                 0.7539
 IR Inten    --      1.0095                 5.7588                19.7011

                     13                     14                     15
                      A                      A                      A
 Frequencies --    835.4853               869.1301               892.5325
 Red. masses --      1.9478                 2.0915                 4.1697
 Frc consts  --      0.8011                 0.9308                 1.9571
 IR Inten    --      1.2468                 3.5084                10.4224

                     16                     17                     18
                      A                      A                      A
 Frequencies --    969.5896               977.3294               989.6849
 Red. masses --      2.4816                 1.2872                 3.8545
 Frc consts  --      1.3745                 0.7244                 2.2244
 IR Inten    --      2.2885                 3.2937                28.1768

                     19                     20                     21
                      A                      A                      A
 Frequencies --   1004.5057              1031.0463              1053.0646
 Red. masses --      3.5409                 5.7704                 3.2470
 Frc consts  --      2.1051                 3.6142                 2.1215
 IR Inten    --     37.3525                71.3003                10.2479

                     22                     23                     24
                      A                      A                      A
 Frequencies --   1065.0788              1080.5100              1124.1293
 Red. masses --      1.8930                 1.6700                 1.4187
 Frc consts  --      1.2652                 1.1487                 1.0563
 IR Inten    --     15.2646                 1.9238                48.4296

                     25                     26                     27
                      A                      A                      A
 Frequencies --   1143.7674              1166.5214              1182.3001
 Red. masses --      2.7911                 1.1416                 1.3006
 Frc consts  --      2.1513                 0.9153                 1.0711
 IR Inten    --    128.7483                 1.5245                 5.5298

                     28                     29                     30
                      A                      A                      A
 Frequencies --   1210.1353              1220.6842              1242.0864
 Red. masses --      1.6757                 1.7167                 1.4046
 Frc consts  --      1.4458                 1.5072                 1.2767
 IR Inten    --     28.4014                 4.5622                 9.2561

                     31                     32                     33
                      A                      A                      A
 Frequencies --   1295.1453              1302.1783              1320.4590
 Red. masses --      1.2927                 1.4838                 1.4364
 Frc consts  --      1.2776                 1.4824                 1.4756
 IR Inten    --      1.2102                 0.4865                 2.0118

                     34                     35                     36
                      A                      A                      A
 Frequencies --   1346.0055              1362.1476              1397.4765
 Red. masses --      1.6255                 1.3282                 1.7328
 Frc consts  --      1.7351                 1.4520                 1.9939
 IR Inten    --      4.6706                12.9513                21.9450

                     37                     38                     39
                      A                      A                      A
 Frequencies --   1478.7798              1488.0415              1508.9402
 Red. masses --      1.1307                 1.0613                 1.0603
 Frc consts  --      1.4568                 1.3845                 1.4224
 IR Inten    --      0.8825                 4.2028                 7.7585

                     40                     41                     42
                      A                      A                      A
 Frequencies --   1521.1600              1675.9131              2969.6791
 Red. masses --      1.1005                 6.5443                 1.0718
 Frc consts  --      1.5003                10.8297                 5.5691
 IR Inten    --      1.5939                 1.7215                16.2007

                     43                     44                     45
                      A                      A                      A
 Frequencies --   2978.8986              3011.5041              3023.6885
 Red. masses --      1.0458                 1.0570                 1.1025
 Frc consts  --      5.4680                 5.6480                 5.9387
 IR Inten    --     72.3503                93.6031                43.7987

                     46                     47                     48
                      A                      A                      A
 Frequencies --   3054.5536              3062.5863              3087.5171
 Red. masses --      1.0874                 1.1071                 1.0882
 Frc consts  --      5.9777                 6.1178                 6.1120
 IR Inten    --     53.7022                20.9622                45.4755

                     49                     50                     51
                      A                      A                      A
 Frequencies --   3114.0508              3181.8433              3211.4110
 Red. masses --      1.0966                 1.0862                 1.1022
 Frc consts  --      6.2654                 6.4789                 6.6975
 IR Inten    --     30.8076                 8.3480                15.5264

 - Thermochemistry -
 -------------------
 Temperature   298.150 Kelvin.  Pressure   1.00000 Atm.
 Atom     1 has atomic number  6 and mass  12.00000

 Molecular mass:   126.06808 amu.
 Principal axes and moments of inertia in atomic units:
                           1         2         3
     Eigenvalues --   572.693571359.012141715.07880
           X            0.99941  -0.03331  -0.00883
           Y            0.03302   0.99895  -0.03167
           Z            0.00987   0.03136   0.99946
 This molecule is an asymmetric top.
 Rotational symmetry number  1.
 Warning -- assumption of classical behavior for rotation
           may cause significant error
 Rotational temperatures (Kelvin)      0.15124     0.06373     0.05050
 Rotational constants (GHZ):           3.15132     1.32798     1.05228
 Zero-point vibrational energy     419844.0 (Joules/Mol)
                                  100.34513 (Kcal/Mol)
 Warning -- explicit consideration of   9 degrees of freedom as
           vibrations may cause significant error
 Vibrational temperatures:    130.97   157.39   239.48   273.11   401.15
          (Kelvin)            432.72   577.46   622.99   776.63   977.68
                             1084.48  1149.86  1202.08  1250.48  1284.15
                             1395.02  1406.16  1423.93  1445.26  1483.44
                             1515.12  1532.41  1554.61  1617.37  1645.62
                             1678.36  1701.06  1741.11  1756.29  1787.08
                             1863.42  1873.54  1899.84  1936.60  1959.82
                             2010.65  2127.63  2140.96  2171.03  2188.61
                             2411.26  4272.70  4285.97  4332.88  4350.41
                             4394.82  4406.37  4442.24  4480.42  4577.96
                             4620.50

 Zero-point correction=                           0.159910 (Hartree/Particle)
 Thermal correction to Energy=                    0.168012
 Thermal correction to Enthalpy=                  0.168956
 Thermal correction to Gibbs Free Energy=         0.126902
 Sum of electronic and zero-point Energies=           -423.001854
 Sum of electronic and thermal Energies=              -422.993753
 Sum of electronic and thermal Enthalpies=            -422.992809
 Sum of electronic and thermal Free Energies=         -423.034862

                     E (Thermal)             CV                S
                      KCal/Mol        Cal/Mol-Kelvin    Cal/Mol-Kelvin
 Total                  105.429             30.409             88.510
 Electronic               0.000              0.000              0.000
 Translational            0.889              2.981             40.409
 Rotational               0.889              2.981             28.681
 Vibrational            103.652             24.448             19.421
 Vibration     1          0.602              1.956              3.638
 Vibration     2          0.606              1.942              3.280
 Vibration     3          0.624              1.884              2.475
 Vibration     4          0.633              1.854              2.230
 Vibration     5          0.679              1.713              1.541
 Vibration     6          0.693              1.672              1.413
 Vibration     7          0.767              1.467              0.958
 Vibration     8          0.794              1.398              0.849
 Vibration     9          0.895              1.162              0.566

 Optimization completed.
    -- Stationary point found.
 Normal termination of Gaussian 09 at Tue Jan 28 14:59:49 2020.
