 Gaussian 09, Revision D.01,
 Gaussian 09:  ES64L-G09RevD.01 24-Apr-2013

 -----------------------------
 # b3lyp 6-31G(2df,p) opt Freq
 -----------------------------

 -----
 titel
 -----
 Symbolic Z-matrix:
 Charge =  0 Multiplicity = 1

 SCF Done:  E(RB3LYP) =  -423.134552993     A.U. after   13 cycles
 Optimization completed.
    -- Stationary point found.
 Normal termination of Gaussian 09 at Mon Jan 27 18:39:21 2020.

 ----------------------------------------------------------------------
 #N Geom=AllCheck Guess=TCheck SCRF=Check GenChk RB3LYP/6-31G(2df,p) Fr
 eq
 ----------------------------------------------------------------------

 Structure from the checkpoint file:  "/scratch/puck/g09_9536c5bb-6b06-4f71-98c2-9c8c264fc34c/Gau-182946.chk"
 -----
 titel
 -----
 Charge =  0 Multiplicity = 1

                         Standard orientation:
 ---------------------------------------------------------------------
 Center     Atomic      Atomic             Coordinates (Angstroms)
 Number     Number       Type             X           Y           Z
 ---------------------------------------------------------------------
      1          8           0        1.408459   -1.187221   -1.128881
      2          6           0        0.823765   -0.538129   -0.040923
      3          6           0        1.765397    0.554244    0.556001
      4          6           0        0.798393    1.688898    0.063544
      5          6           0       -0.240814    0.605956   -0.148336
      6          8           0       -1.329441    0.600043   -1.062951
      7          6           0       -2.157122   -0.121013   -0.107570
      8          6           0       -1.049217   -0.107122    0.970178
      9          6           0       -0.065075   -1.314029    0.969801
     10          1           0        0.697078   -1.502095   -1.698535
     11          1           0        1.880431    0.503630    1.640773
     12          1           0        2.749425    0.551965    0.087080
     13          1           0        0.559224    2.503276    0.752616
     14          1           0        1.138830    2.112618   -0.885861
     15          1           0       -3.056505    0.453585    0.140046
     16          1           0       -2.452962   -1.109063   -0.482059
     17          1           0       -1.299959    0.359994    1.922144
     18          1           0        0.399373   -1.559502    1.929170
     19          1           0       -0.499042   -2.229815    0.553109
 ---------------------------------------------------------------------

 SCF Done:  E(RB3LYP) =  -423.134552993     A.U. after    1 cycles

 The electronic state is 1-A.
 Alpha  occ. eigenvalues --  -19.14044 -19.13833 -10.23590 -10.22954 -10.22760
 Alpha  occ. eigenvalues --  -10.19277 -10.18450 -10.18331 -10.18326  -1.04623
 Alpha  occ. eigenvalues --   -1.02212  -0.85359  -0.77184  -0.68677  -0.66331
 Alpha  occ. eigenvalues --   -0.61569  -0.58457  -0.53906  -0.50278  -0.48607
 Alpha  occ. eigenvalues --   -0.47274  -0.44133  -0.43509  -0.41425  -0.39322
 Alpha  occ. eigenvalues --   -0.37493  -0.36883  -0.35157  -0.33814  -0.32966
 Alpha  occ. eigenvalues --   -0.29903  -0.28663  -0.26177  -0.22296
 Alpha virt. eigenvalues --    0.06174   0.08613   0.09913   0.10161   0.11568
 Alpha virt. eigenvalues --    0.13006   0.14215   0.14627   0.15580   0.17033
 Alpha virt. eigenvalues --    0.17283   0.18719   0.20989   0.21816   0.23528

 Mulliken charges:
               1
     1  O   -0.484837
     2  C    0.361294
     3  C   -0.262196
     4  C   -0.333074
     5  C    0.420707
     6  O   -0.339501
     7  C   -0.105775
     8  C   -0.134801
     9  C   -0.326578
    10  H    0.282838
    11  H    0.102131
    12  H    0.121245
    13  H    0.098886
    14  H    0.119337
    15  H    0.109902
    16  H    0.099228
    17  H    0.076446
    18  H    0.101916
    19  H    0.092833
 Sum of Mulliken charges =   0.00000

 Dipole moment (field-independent basis, Debye):
    X=             -0.9727    Y=             -0.3706    Z=              1.4293  Tot=              1.7681
 Quadrupole moment (field-independent basis, Debye-Ang):
   XX=            -54.0205   YY=            -52.6389   ZZ=            -53.0782
   XY=              3.7363   XZ=             -0.2828   YZ=              2.2948

  Exact polarizability:  81.998   3.663  73.695   0.463   0.486  67.461
 Approx polarizability: 112.204   2.411 105.327   0.506   0.509 104.849

                      1                      2                      3
                      A                      A                      A
 Frequencies --    100.6954               144.9933               215.4080
 Red. masses --      2.8097                 2.3280                 2.1461
 Frc consts  --      0.0168                 0.0288                 0.0587
 IR Inten    --      4.7376                18.4025                 4.1739

                      4                      5                      6
                      A                      A                      A
 Frequencies --    302.5999               325.1453               377.7505
 Red. masses --      1.7199                 2.1735                 2.6323
 Frc consts  --      0.0928                 0.1354                 0.2213
 IR Inten    --     42.9521                26.1825                 3.3051

                      7                      8                      9
                      A                      A                      A
 Frequencies --    389.3846               481.4172               567.0696
 Red. masses --      2.0591                 3.6359                 3.4202
 Frc consts  --      0.1839                 0.4965                 0.6480
 IR Inten    --      2.5902                 2.3626                 7.7749

                     10                     11                     12
                      A                      A                      A
 Frequencies --    590.9676               666.2446               755.9783
 Red. masses --      4.0276                 2.6920                 1.4401
 Frc consts  --      0.8287                 0.7040                 0.4849
 IR Inten    --      5.4501                 2.5615                 3.0699

                     13                     14                     15
                      A                      A                      A
 Frequencies --    800.0885               820.2107               860.9585
 Red. masses --      3.1648                 2.1839                 2.2995
 Frc consts  --      1.1936                 0.8657                 1.0043
 IR Inten    --      4.9946                 0.9079                 3.4499

                     16                     17                     18
                      A                      A                      A
 Frequencies --    868.7150               917.5794               932.9587
 Red. masses --      2.2706                 2.5313                 1.9179
 Frc consts  --      1.0096                 1.2557                 0.9836
 IR Inten    --      2.6381                 4.4472                20.7629

                     19                     20                     21
                      A                      A                      A
 Frequencies --    972.5419               984.1029              1022.4931
 Red. masses --      1.7909                 5.7945                 2.1042
 Frc consts  --      0.9980                 3.3063                 1.2961
 IR Inten    --     27.5690                58.3999                11.8290

                     22                     23                     24
                      A                      A                      A
 Frequencies --   1054.9505              1065.9650              1107.0393
 Red. masses --      1.9372                 2.9032                 1.9376
 Frc consts  --      1.2703                 1.9437                 1.3991
 IR Inten    --      4.1904                12.2796                30.6834

                     25                     26                     27
                      A                      A                      A
 Frequencies --   1144.1672              1159.2761              1173.3972
 Red. masses --      1.4206                 1.3423                 1.8534
 Frc consts  --      1.0958                 1.0629                 1.5036
 IR Inten    --      2.9930                 2.0923                25.8182

                     28                     29                     30
                      A                      A                      A
 Frequencies --   1176.7602              1209.2458              1217.3327
 Red. masses --      1.7905                 1.4101                 1.6445
 Frc consts  --      1.4609                 1.2148                 1.4359
 IR Inten    --     15.5972                 7.8794                20.2291

                     31                     32                     33
                      A                      A                      A
 Frequencies --   1245.3337              1256.4537              1290.3473
 Red. masses --      1.5875                 1.5336                 1.8056
 Frc consts  --      1.4505                 1.4265                 1.7713
 IR Inten    --      3.9193                22.3474                27.1402

                     34                     35                     36
                      A                      A                      A
 Frequencies --   1313.3326              1322.5633              1351.5545
 Red. masses --      2.8858                 2.2967                 1.5409
 Frc consts  --      2.9327                 2.3669                 1.6584
 IR Inten    --     81.4105                52.8777                 7.5284

                     37                     38                     39
                      A                      A                      A
 Frequencies --   1365.9095              1464.9275              1476.0177
 Red. masses --      1.7079                 1.0876                 1.1070
 Frc consts  --      1.8774                 1.3751                 1.4210
 IR Inten    --     14.2139                 1.8045                 4.5004

                     40                     41                     42
                      A                      A                      A
 Frequencies --   1488.6745              1520.0873              3016.4455
 Red. masses --      1.1489                 1.1112                 1.0565
 Frc consts  --      1.5001                 1.5129                 5.6636
 IR Inten    --      5.7826                 1.0844                74.6952

                     43                     44                     45
                      A                      A                      A
 Frequencies --   3037.6381              3054.8229              3065.8157
 Red. masses --      1.0597                 1.0575                 1.1099
 Frc consts  --      5.7613                 5.8144                 6.1465
 IR Inten    --     41.7717                31.0507                33.7247

                     46                     47                     48
                      A                      A                      A
 Frequencies --   3076.8795              3091.2966              3106.0404
 Red. masses --      1.0615                 1.1046                 1.1072
 Frc consts  --      5.9211                 6.2192                 6.2935
 IR Inten    --     19.3958                19.8929                14.4398

                     49                     50                     51
                      A                      A                      A
 Frequencies --   3114.6971              3144.2250              3793.8780
 Red. masses --      1.0908                 1.1075                 1.0657
 Frc consts  --      6.2349                 6.4506                 9.0375
 IR Inten    --     38.9800                17.0180                18.6330

 - Thermochemistry -
 -------------------
 Temperature   298.150 Kelvin.  Pressure   1.00000 Atm.
 Atom     1 has atomic number  8 and mass  15.99491

 Molecular mass:   126.06808 amu.
 Principal axes and moments of inertia in atomic units:
                           1         2         3
     Eigenvalues --   705.304481051.431491184.54082
           X            0.99773   0.06733   0.00292
           Y           -0.06736   0.99764   0.01347
           Z           -0.00201  -0.01363   0.99991
 This molecule is an asymmetric top.
 Rotational symmetry number  1.
 Warning -- assumption of classical behavior for rotation
           may cause significant error
 Rotational temperatures (Kelvin)      0.12280     0.08238     0.07312
 Rotational constants (GHZ):           2.55881     1.71646     1.52358
 Zero-point vibrational energy     418707.2 (Joules/Mol)
                                  100.07342 (Kcal/Mol)
 Warning -- explicit consideration of  10 degrees of freedom as
           vibrations may cause significant error
 Vibrational temperatures:    144.88   208.61   309.92   435.37   467.81
          (Kelvin)            543.50   560.24   692.65   815.89   850.27
                              958.58  1087.68  1151.15  1180.10  1238.73
                             1249.89  1320.19  1342.32  1399.27  1415.90
                             1471.14  1517.84  1533.68  1592.78  1646.20
                             1667.94  1688.25  1693.09  1739.83  1751.47
                             1791.76  1807.75  1856.52  1889.59  1902.87
                             1944.58  1965.24  2107.70  2123.66  2141.87
                             2187.06  4339.99  4370.48  4395.20  4411.02
                             4426.94  4447.68  4468.89  4481.35  4523.83
                             5458.54

 Zero-point correction=                           0.159477 (Hartree/Particle)
 Thermal correction to Energy=                    0.167268
 Thermal correction to Enthalpy=                  0.168212
 Thermal correction to Gibbs Free Energy=         0.127426
 Sum of electronic and zero-point Energies=           -422.975076
 Sum of electronic and thermal Energies=              -422.967285
 Sum of electronic and thermal Enthalpies=            -422.966341
 Sum of electronic and thermal Free Energies=         -423.007127

                     E (Thermal)             CV                S
                      KCal/Mol        Cal/Mol-Kelvin    Cal/Mol-Kelvin
 Total                  104.962             31.021             85.841
 Electronic               0.000              0.000              0.000
 Translational            0.889              2.981             40.409
 Rotational               0.889              2.981             28.265
 Vibrational            103.185             25.059             17.168
 Vibration     1          0.604              1.949              3.441
 Vibration     2          0.616              1.908              2.737
 Vibration     3          0.645              1.818              1.997
 Vibration     4          0.694              1.669              1.402
 Vibration     5          0.709              1.625              1.284
 Vibration     6          0.748              1.518              1.048
 Vibration     7          0.757              1.493              1.003
 Vibration     8          0.838              1.291              0.706
 Vibration     9          0.923              1.102              0.510
 Vibration    10          0.948              1.051              0.465

 Optimization completed.
    -- Stationary point found.
 Normal termination of Gaussian 09 at Mon Jan 27 19:23:59 2020.
