 Gaussian 09, Revision D.01,
 Gaussian 09:  ES64L-G09RevD.01 24-Apr-2013

 -----------------------------
 # b3lyp 6-31G(2df,p) opt Freq
 -----------------------------

 -----
 titel
 -----
 Symbolic Z-matrix:
 Charge =  0 Multiplicity = 1

 SCF Done:  E(RB3LYP) =  -423.142343918     A.U. after   13 cycles
 Optimization completed.
    -- Stationary point found.
 Normal termination of Gaussian 09 at Mon Jan 27 23:04:48 2020.

 ----------------------------------------------------------------------
 #N Geom=AllCheck Guess=TCheck SCRF=Check GenChk RB3LYP/6-31G(2df,p) Fr
 eq
 ----------------------------------------------------------------------

 Structure from the checkpoint file:  "/scratch/puck/g09_34fff552-0d44-4ddf-8e8b-39c917674022/Gau-48930.chk"
 -----
 titel
 -----
 Charge =  0 Multiplicity = 1

                         Standard orientation:
 ---------------------------------------------------------------------
 Center     Atomic      Atomic             Coordinates (Angstroms)
 Number     Number       Type             X           Y           Z
 ---------------------------------------------------------------------
      1          8           0       -2.411859   -0.684044   -0.599545
      2          6           0       -1.024172   -0.433534   -0.548601
      3          6           0       -0.614623    1.052416   -0.316677
      4          6           0       -0.741020    0.769167    1.209857
      5          6           0       -0.357416   -0.703260    0.836447
      6          6           0        1.164393   -0.697861    0.738887
      7          6           0        1.913267   -0.978437   -0.548552
      8          6           0        1.683626    0.444428   -0.090536
      9          8           0        0.733983    1.268964   -0.723622
     10          1           0       -2.819572   -0.377804    0.216645
     11          1           0       -0.610498   -0.915733   -1.434602
     12          1           0       -1.209409    1.842002   -0.778838
     13          1           0       -0.076481    1.311498    1.885658
     14          1           0       -1.772009    0.886939    1.555560
     15          1           0       -0.748796   -1.540818    1.418840
     16          1           0        1.674411   -0.918603    1.672500
     17          1           0        2.922562   -1.366482   -0.459879
     18          1           0        1.376546   -1.337203   -1.417747
     19          1           0        2.541929    1.019339    0.242248
 ---------------------------------------------------------------------

 SCF Done:  E(RB3LYP) =  -423.142343918     A.U. after    1 cycles

 The electronic state is 1-A.
 Alpha  occ. eigenvalues --  -19.14460 -19.14206 -10.23387 -10.23259 -10.22938
 Alpha  occ. eigenvalues --  -10.19775 -10.19669 -10.18882 -10.18525  -1.04341
 Alpha  occ. eigenvalues --   -1.02271  -0.85786  -0.82680  -0.67274  -0.66380
 Alpha  occ. eigenvalues --   -0.62568  -0.58589  -0.55233  -0.52368  -0.47940
 Alpha  occ. eigenvalues --   -0.46699  -0.46415  -0.45161  -0.41220  -0.38670
 Alpha  occ. eigenvalues --   -0.38134  -0.37926  -0.35645  -0.34210  -0.33236
 Alpha  occ. eigenvalues --   -0.30787  -0.27114  -0.25430  -0.23119
 Alpha virt. eigenvalues --    0.06766   0.08047   0.09867   0.11515   0.12126
 Alpha virt. eigenvalues --    0.13041   0.14226   0.15557   0.16773   0.17840
 Alpha virt. eigenvalues --    0.18203   0.19596   0.21062   0.22034   0.23493

 Mulliken charges:
               1
     1  O   -0.448845
     2  C    0.141687
     3  C    0.092304
     4  C   -0.279330
     5  C   -0.094703
     6  C   -0.054337
     7  C   -0.334421
     8  C    0.106764
     9  O   -0.271632
    10  H    0.282024
    11  H    0.084571
    12  H    0.081055
    13  H    0.105869
    14  H    0.092178
    15  H    0.068373
    16  H    0.092166
    17  H    0.110995
    18  H    0.127714
    19  H    0.097568
 Sum of Mulliken charges =   0.00000

 Dipole moment (field-independent basis, Debye):
    X=              0.3027    Y=             -0.2255    Z=              2.1386  Tot=              2.1717
 Quadrupole moment (field-independent basis, Debye-Ang):
   XX=            -51.1026   YY=            -55.5022   ZZ=            -53.5111
   XY=             -3.6086   XZ=             -2.3459   YZ=              0.8234

  Exact polarizability:  84.090  -4.173  68.182  -2.075   1.987  67.921
 Approx polarizability: 114.827  -2.876 104.466  -2.854   1.210 105.587

                      1                      2                      3
                      A                      A                      A
 Frequencies --    204.4339               221.0649               264.4031
 Red. masses --      3.4742                 1.1505                 3.5284
 Frc consts  --      0.0855                 0.0331                 0.1453
 IR Inten    --      9.8371                54.1035                 3.1976

                      4                      5                      6
                      A                      A                      A
 Frequencies --    301.0289               322.2560               435.0314
 Red. masses --      3.3210                 3.5887                 2.3672
 Frc consts  --      0.1773                 0.2196                 0.2640
 IR Inten    --      3.2442                20.0949                 1.6122

                      7                      8                      9
                      A                      A                      A
 Frequencies --    457.7049               481.3970               511.3974
 Red. masses --      3.8144                 4.7702                 2.9750
 Frc consts  --      0.4708                 0.6513                 0.4584
 IR Inten    --      1.5537                 0.7052                 0.5027

                     10                     11                     12
                      A                      A                      A
 Frequencies --    659.2571               744.6584               806.4356
 Red. masses --      2.9009                 2.2560                 2.9933
 Frc consts  --      0.7428                 0.7371                 1.1469
 IR Inten    --      0.9026                18.2812                 6.7452

                     13                     14                     15
                      A                      A                      A
 Frequencies --    812.3100               857.6063               888.3266
 Red. masses --      1.4573                 2.3143                 2.7007
 Frc consts  --      0.5666                 1.0029                 1.2556
 IR Inten    --     12.8990                 0.6764                 5.6727

                     16                     17                     18
                      A                      A                      A
 Frequencies --    904.6142               925.9960               959.4267
 Red. masses --      2.9444                 2.0330                 2.1983
 Frc consts  --      1.4196                 1.0271                 1.1922
 IR Inten    --     32.9336                10.3049                 8.0549

                     19                     20                     21
                      A                      A                      A
 Frequencies --    967.3799              1004.7152              1012.1091
 Red. masses --      2.4430                 1.9196                 1.7779
 Frc consts  --      1.3470                 1.1417                 1.0730
 IR Inten    --      7.6660                 4.5508                25.7885

                     22                     23                     24
                      A                      A                      A
 Frequencies --   1059.6742              1077.5264              1089.3487
 Red. masses --      1.6251                 2.2295                 1.3838
 Frc consts  --      1.0752                 1.5252                 0.9675
 IR Inten    --     12.0534                 5.3315                 7.8516

                     25                     26                     27
                      A                      A                      A
 Frequencies --   1114.0227              1117.7336              1133.2861
 Red. masses --      1.8021                 1.9363                 1.4651
 Frc consts  --      1.3177                 1.4253                 1.1086
 IR Inten    --     26.5678                56.5025                32.1977

                     28                     29                     30
                      A                      A                      A
 Frequencies --   1148.8051              1174.7993              1219.9011
 Red. masses --      1.6531                 2.3035                 1.5137
 Frc consts  --      1.2854                 1.8731                 1.3272
 IR Inten    --     20.1208                40.2232                 4.9251

                     31                     32                     33
                      A                      A                      A
 Frequencies --   1224.5644              1253.2387              1264.6467
 Red. masses --      1.5700                 1.4496                 1.7811
 Frc consts  --      1.3871                 1.3414                 1.6783
 IR Inten    --      8.9144                30.5770                21.8198

                     34                     35                     36
                      A                      A                      A
 Frequencies --   1277.7507              1310.5891              1345.7985
 Red. masses --      1.6079                 1.4557                 1.4147
 Frc consts  --      1.5466                 1.4732                 1.5097
 IR Inten    --      1.9814                 6.2470                 9.5352

                     37                     38                     39
                      A                      A                      A
 Frequencies --   1361.5944              1401.5619              1439.6942
 Red. masses --      1.4457                 1.6050                 1.3224
 Frc consts  --      1.5791                 1.8576                 1.6149
 IR Inten    --      2.9544                15.6129                39.8255

                     40                     41                     42
                      A                      A                      A
 Frequencies --   1488.9042              1495.5143              3058.0540
 Red. masses --      1.2027                 1.1532                 1.0607
 Frc consts  --      1.5709                 1.5196                 5.8445
 IR Inten    --      5.0113                12.8162                24.5544

                     43                     44                     45
                      A                      A                      A
 Frequencies --   3079.4830              3103.0403              3111.9640
 Red. masses --      1.0866                 1.0875                 1.0887
 Frc consts  --      6.0711                 6.1698                 6.2118
 IR Inten    --     41.8280                47.5239                20.9998

                     46                     47                     48
                      A                      A                      A
 Frequencies --   3117.2448              3139.1499              3142.6976
 Red. masses --      1.1059                 1.0781                 1.0677
 Frc consts  --      6.3317                 6.2597                 6.2128
 IR Inten    --     25.4766                18.1153                12.5528

                     49                     50                     51
                      A                      A                      A
 Frequencies --   3156.8940              3232.8026              3821.3307
 Red. masses --      1.0906                 1.1132                 1.0654
 Frc consts  --      6.4038                 6.8545                 9.1666
 IR Inten    --     28.6150                 8.0947                12.9229

 - Thermochemistry -
 -------------------
 Temperature   298.150 Kelvin.  Pressure   1.00000 Atm.
 Atom     1 has atomic number  8 and mass  15.99491

 Molecular mass:   126.06808 amu.
 Principal axes and moments of inertia in atomic units:
                           1         2         3
     Eigenvalues --   596.954351162.294731254.51378
           X            0.99923  -0.03508  -0.01734
           Y            0.03673   0.99369   0.10602
           Z            0.01351  -0.10657   0.99421
 This molecule is an asymmetric top.
 Rotational symmetry number  1.
 Warning -- assumption of classical behavior for rotation
           may cause significant error
 Rotational temperatures (Kelvin)      0.14509     0.07452     0.06904
 Rotational constants (GHZ):           3.02325     1.55274     1.43860
 Zero-point vibrational energy     422898.9 (Joules/Mol)
                                  101.07525 (Kcal/Mol)
 Warning -- explicit consideration of   9 degrees of freedom as
           vibrations may cause significant error
 Vibrational temperatures:    294.13   318.06   380.42   433.11   463.65
          (Kelvin)            625.91   658.53   692.62   735.79   948.52
                             1071.40  1160.28  1168.73  1233.90  1278.10
                             1301.54  1332.30  1380.40  1391.84  1445.56
                             1456.20  1524.63  1550.32  1567.33  1602.83
                             1608.17  1630.54  1652.87  1690.27  1755.16
                             1761.87  1803.13  1819.54  1838.40  1885.64
                             1936.30  1959.03  2016.53  2071.40  2142.20
                             2151.71  4399.85  4430.68  4464.58  4477.42
                             4485.01  4516.53  4521.64  4542.06  4651.28
                             5498.04

 Zero-point correction=                           0.161074 (Hartree/Particle)
 Thermal correction to Energy=                    0.168323
 Thermal correction to Enthalpy=                  0.169267
 Thermal correction to Gibbs Free Energy=         0.129944
 Sum of electronic and zero-point Energies=           -422.981270
 Sum of electronic and thermal Energies=              -422.974021
 Sum of electronic and thermal Enthalpies=            -422.973077
 Sum of electronic and thermal Free Energies=         -423.012399

                     E (Thermal)             CV                S
                      KCal/Mol        Cal/Mol-Kelvin    Cal/Mol-Kelvin
 Total                  105.624             30.213             82.761
 Electronic               0.000              0.000              0.000
 Translational            0.889              2.981             40.409
 Rotational               0.889              2.981             28.256
 Vibrational            103.847             24.251             14.097
 Vibration     1          0.640              1.834              2.093
 Vibration     2          0.648              1.809              1.950
 Vibration     3          0.671              1.738              1.633
 Vibration     4          0.693              1.672              1.411
 Vibration     5          0.707              1.631              1.299
 Vibration     6          0.796              1.394              0.842
 Vibration     7          0.816              1.344              0.773
 Vibration     8          0.838              1.291              0.706
 Vibration     9          0.867              1.225              0.630

 Optimization completed.
    -- Stationary point found.
 Normal termination of Gaussian 09 at Mon Jan 27 23:57:35 2020.
