 Gaussian 09, Revision D.01,
 Gaussian 09:  ES64L-G09RevD.01 24-Apr-2013

 -----------------------------
 # b3lyp 6-31G(2df,p) opt Freq
 -----------------------------

 -----
 titel
 -----
 Symbolic Z-matrix:
 Charge =  0 Multiplicity = 1

 SCF Done:  E(RB3LYP) =  -423.099212008     A.U. after   13 cycles
 SCF Done:  E(RB3LYP) =  -423.099212396     A.U. after    6 cycles
 Optimization completed.
    -- Stationary point found.
 Normal termination of Gaussian 09 at Tue Jan 28 10:05:25 2020.

 ----------------------------------------------------------------------
 #N Geom=AllCheck Guess=TCheck SCRF=Check GenChk RB3LYP/6-31G(2df,p) Fr
 eq
 ----------------------------------------------------------------------

 Structure from the checkpoint file:  "/scratch/puck/g09_0fc7e9d4-3ff4-49b2-b9d9-c28cc4c56531/Gau-64387.chk"
 -----
 titel
 -----
 Charge =  0 Multiplicity = 1

                         Standard orientation:
 ---------------------------------------------------------------------
 Center     Atomic      Atomic             Coordinates (Angstroms)
 Number     Number       Type             X           Y           Z
 ---------------------------------------------------------------------
      1          8           0       -2.541792    0.380315    0.434420
      2          6           0       -1.768606   -0.427399   -0.444953
      3          6           0       -0.340491   -0.552180    0.005992
      4          6           0        0.276606   -1.722671    0.716400
      5          6           0        0.797327   -1.320444   -0.646270
      6          6           0        1.673117   -0.036047   -0.664208
      7          6           0        1.881218    0.570861    0.711409
      8          6           0        0.559851    0.724769    0.024442
      9          8           0       -0.009308    1.961790   -0.275673
     10          1           0       -2.182439    1.270193    0.342366
     11          1           0       -2.243445   -1.414026   -0.469710
     12          1           0       -1.800895   -0.020287   -1.467590
     13          1           0        0.864536   -1.623079    1.622182
     14          1           0       -0.336258   -2.620694    0.704831
     15          1           0        0.732443   -1.986174   -1.497751
     16          1           0        2.296219    0.245648   -1.502798
     17          1           0        2.037421   -0.015128    1.611367
     18          1           0        2.480927    1.477193    0.672790
     19          1           0        0.086150    2.528180    0.497452
 ---------------------------------------------------------------------

 SCF Done:  E(RB3LYP) =  -423.099212396     A.U. after    1 cycles

 The electronic state is 1-A.
 Alpha  occ. eigenvalues --  -19.16254 -19.12069 -10.24522 -10.22152 -10.19571
 Alpha  occ. eigenvalues --  -10.19391 -10.19300 -10.19162 -10.18955  -1.04476
 Alpha  occ. eigenvalues --   -1.00236  -0.91574  -0.80554  -0.69296  -0.64911
 Alpha  occ. eigenvalues --   -0.61990  -0.56501  -0.54454  -0.51477  -0.50027
 Alpha  occ. eigenvalues --   -0.48150  -0.46168  -0.42733  -0.41873  -0.39833
 Alpha  occ. eigenvalues --   -0.38955  -0.36227  -0.35861  -0.33369  -0.30261
 Alpha  occ. eigenvalues --   -0.29255  -0.27762  -0.25445  -0.20994
 Alpha virt. eigenvalues --    0.05784   0.07860   0.10047   0.10636   0.11396
 Alpha virt. eigenvalues --    0.13188   0.14495   0.15438   0.15706   0.17593
 Alpha virt. eigenvalues --    0.18138   0.19383   0.21008   0.22197   0.23327

 Mulliken charges:
               1
     1  O   -0.421369
     2  C   -0.173624
     3  C    0.270309
     4  C   -0.360563
     5  C   -0.116839
     6  C   -0.115389
     7  C   -0.373519
     8  C    0.342559
     9  O   -0.464438
    10  H    0.279730
    11  H    0.104645
    12  H    0.092961
    13  H    0.111359
    14  H    0.113412
    15  H    0.092234
    16  H    0.098430
    17  H    0.115146
    18  H    0.112772
    19  H    0.292185
 Sum of Mulliken charges =   0.00000

 Dipole moment (field-independent basis, Debye):
    X=              1.9066    Y=              0.6025    Z=              0.2482  Tot=              2.0149
 Quadrupole moment (field-independent basis, Debye-Ang):
   XX=            -58.9685   YY=            -47.6791   ZZ=            -52.4486
   XY=              1.7528   XZ=              2.2964   YZ=              3.7619

  Exact polarizability:  78.865   1.890  78.819   0.866   1.810  66.372
 Approx polarizability: 110.448  -2.277 114.582  -2.609   3.548 105.358

                      1                      2                      3
                      A                      A                      A
 Frequencies --     88.8185               124.0771               193.6823
 Red. masses --      3.8460                 4.4444                 2.2915
 Frc consts  --      0.0179                 0.0403                 0.0506
 IR Inten    --      3.6451                 1.3807                49.7145

                      4                      5                      6
                      A                      A                      A
 Frequencies --    264.0512               272.0870               374.7454
 Red. masses --      1.4335                 3.1541                 4.1101
 Frc consts  --      0.0589                 0.1376                 0.3401
 IR Inten    --     66.0826                 2.8842                 1.2923

                      7                      8                      9
                      A                      A                      A
 Frequencies --    393.1356               420.0925               447.3415
 Red. masses --      2.1599                 2.7571                 2.6432
 Frc consts  --      0.1967                 0.2867                 0.3116
 IR Inten    --      4.4147                 6.9193                 3.1047

                     10                     11                     12
                      A                      A                      A
 Frequencies --    473.4784               505.7887               601.0664
 Red. masses --      1.1301                 2.2462                 3.4462
 Frc consts  --      0.1493                 0.3386                 0.7336
 IR Inten    --     81.1890                10.7082                 5.9012

                     13                     14                     15
                      A                      A                      A
 Frequencies --    679.3271               790.7716               812.4321
 Red. masses --      3.3658                 2.9178                 2.8218
 Frc consts  --      0.9152                 1.0750                 1.0974
 IR Inten    --      4.4659                 1.0435                 5.3124

                     16                     17                     18
                      A                      A                      A
 Frequencies --    861.1983               875.0636               899.2498
 Red. masses --      1.8591                 2.5641                 1.6522
 Frc consts  --      0.8124                 1.1568                 0.7872
 IR Inten    --      5.7843                15.1152                 3.7702

                     19                     20                     21
                      A                      A                      A
 Frequencies --    932.1654               956.6652               963.8583
 Red. masses --      2.5461                 1.3424                 1.6120
 Frc consts  --      1.3035                 0.7238                 0.8823
 IR Inten    --     13.6163                 0.1633                 6.5958

                     22                     23                     24
                      A                      A                      A
 Frequencies --    988.2387              1011.5718              1039.9459
 Red. masses --      1.2996                 1.8350                 1.9220
 Frc consts  --      0.7478                 1.1063                 1.2247
 IR Inten    --      5.0453                16.3928                58.9189

                     25                     26                     27
                      A                      A                      A
 Frequencies --   1051.8078              1067.7467              1088.8943
 Red. masses --      1.9993                 1.7507                 2.0699
 Frc consts  --      1.3032                 1.1760                 1.4460
 IR Inten    --     56.8365                 7.9041                 8.8084

                     28                     29                     30
                      A                      A                      A
 Frequencies --   1095.5169              1153.2609              1188.5503
 Red. masses --      1.4650                 1.7632                 1.6651
 Frc consts  --      1.0359                 1.3817                 1.3858
 IR Inten    --      7.7927                 1.7733               102.4074

                     31                     32                     33
                      A                      A                      A
 Frequencies --   1239.7939              1257.6563              1285.4538
 Red. masses --      1.7405                 1.7130                 1.5986
 Frc consts  --      1.5762                 1.5964                 1.5563
 IR Inten    --     23.1395                 1.4869                17.2948

                     34                     35                     36
                      A                      A                      A
 Frequencies --   1325.1409              1368.2026              1380.4018
 Red. masses --      3.0747                 2.2189                 1.3569
 Frc consts  --      3.1811                 2.4473                 1.5233
 IR Inten    --     35.0099                14.6595                 1.2556

                     37                     38                     39
                      A                      A                      A
 Frequencies --   1404.2406              1429.8516              1484.7497
 Red. masses --      1.5870                 1.2961                 1.7139
 Frc consts  --      1.8438                 1.5612                 2.2261
 IR Inten    --     15.3963                72.6242                12.8126

                     40                     41                     42
                      A                      A                      A
 Frequencies --   1496.1559              1513.3339              2980.5546
 Red. masses --      1.1113                 1.2105                 1.0689
 Frc consts  --      1.4657                 1.6334                 5.5947
 IR Inten    --      1.9399                 4.5764                54.9913

                     43                     44                     45
                      A                      A                      A
 Frequencies --   3069.6498              3110.5572              3124.3097
 Red. masses --      1.0937                 1.0540                 1.0556
 Frc consts  --      6.0721                 6.0088                 6.0708
 IR Inten    --     28.9728                12.9371                19.2681

                     46                     47                     48
                      A                      A                      A
 Frequencies --   3184.9959              3191.9228              3199.7061
 Red. masses --      1.1005                 1.1069                 1.1046
 Frc consts  --      6.5773                 6.6445                 6.6634
 IR Inten    --      2.4807                13.1003                12.3612

                     49                     50                     51
                      A                      A                      A
 Frequencies --   3203.7767              3797.0317              3803.2897
 Red. masses --      1.1009                 1.0659                 1.0663
 Frc consts  --      6.6578                 9.0543                 9.0877
 IR Inten    --     21.3816                47.8798                15.1447

 - Thermochemistry -
 -------------------
 Temperature   298.150 Kelvin.  Pressure   1.00000 Atm.
 Atom     1 has atomic number  8 and mass  15.99491

 Molecular mass:   126.06808 amu.
 Principal axes and moments of inertia in atomic units:
                           1         2         3
     Eigenvalues --   731.534761084.171281511.71204
           X            0.99939   0.02795   0.02090
           Y           -0.02821   0.99952   0.01267
           Z           -0.02054  -0.01325   0.99970
 This molecule is an asymmetric top.
 Rotational symmetry number  1.
 Warning -- assumption of classical behavior for rotation
           may cause significant error
 Rotational temperatures (Kelvin)      0.11840     0.07989     0.05730
 Rotational constants (GHZ):           2.46706     1.66463     1.19384
 Zero-point vibrational energy     415495.4 (Joules/Mol)
                                   99.30578 (Kcal/Mol)
 Warning -- explicit consideration of  12 degrees of freedom as
           vibrations may cause significant error
 Vibrational temperatures:    127.79   178.52   278.67   379.91   391.47
          (Kelvin)            539.17   565.63   604.42   643.62   681.23
                              727.72   864.80   977.40  1137.74  1168.91
                             1239.07  1259.02  1293.82  1341.18  1376.43
                             1386.78  1421.85  1455.42  1496.25  1513.31
                             1536.25  1566.67  1576.20  1659.28  1710.06
                             1783.78  1809.48  1849.48  1906.58  1968.54
                             1986.09  2020.39  2057.23  2136.22  2152.63
                             2177.35  4288.35  4416.54  4475.39  4495.18
                             4582.49  4592.46  4603.66  4609.51  5463.07
                             5472.08

 Zero-point correction=                           0.158254 (Hartree/Particle)
 Thermal correction to Energy=                    0.166792
 Thermal correction to Enthalpy=                  0.167736
 Thermal correction to Gibbs Free Energy=         0.125407
 Sum of electronic and zero-point Energies=           -422.940959
 Sum of electronic and thermal Energies=              -422.932421
 Sum of electronic and thermal Enthalpies=            -422.931476
 Sum of electronic and thermal Free Energies=         -422.973805

                     E (Thermal)             CV                S
                      KCal/Mol        Cal/Mol-Kelvin    Cal/Mol-Kelvin
 Total                  104.663             33.644             89.088
 Electronic               0.000              0.000              0.000
 Translational            0.889              2.981             40.409
 Rotational               0.889              2.981             28.574
 Vibrational            102.886             27.683             20.105
 Vibration     1          0.602              1.957              3.686
 Vibration     2          0.610              1.929              3.036
 Vibration     3          0.635              1.849              2.192
 Vibration     4          0.671              1.739              1.635
 Vibration     5          0.675              1.725              1.583
 Vibration     6          0.746              1.524              1.060
 Vibration     7          0.760              1.485              0.988
 Vibration     8          0.783              1.427              0.892
 Vibration     9          0.806              1.367              0.804
 Vibration    10          0.830              1.309              0.728
 Vibration    11          0.861              1.237              0.644
 Vibration    12          0.959              1.030              0.448

 Normal termination of Gaussian 09 at Tue Jan 28 12:07:25 2020.
