 Gaussian 09, Revision D.01,
 Gaussian 09:  ES64L-G09RevD.01 24-Apr-2013

 -----------------------------
 # b3lyp 6-31G(2df,p) opt Freq
 -----------------------------

 -----
 titel
 -----
 Symbolic Z-matrix:
 Charge =  0 Multiplicity = 1

 SCF Done:  E(RB3LYP) =  -423.210375756     A.U. after   14 cycles
 Optimization completed.
    -- Stationary point found.
 Normal termination of Gaussian 09 at Tue Jan 28 08:13:49 2020.

 ----------------------------------------------------------------------
 #N Geom=AllCheck Guess=TCheck SCRF=Check GenChk RB3LYP/6-31G(2df,p) Fr
 eq
 ----------------------------------------------------------------------

 Structure from the checkpoint file:  "/scratch/puck/g09_f39e248e-b43d-4b50-a2e8-39f2f9efdb31/Gau-81087.chk"
 -----
 titel
 -----
 Charge =  0 Multiplicity = 1

                         Standard orientation:
 ---------------------------------------------------------------------
 Center     Atomic      Atomic             Coordinates (Angstroms)
 Number     Number       Type             X           Y           Z
 ---------------------------------------------------------------------
      1          8           0       -2.610269   -0.439402    0.191229
      2          6           0       -1.463797    0.148678   -0.355754
      3          6           0       -1.048633    1.493646    0.254278
      4          6           0        0.440302    1.620906   -0.158089
      5          6           0        0.966390    0.189356   -0.072192
      6          6           0        2.299872   -0.284982   -0.616835
      7          6           0        2.093597   -0.240408    0.859110
      8          6           0       -0.216858   -0.711929   -0.150590
      9          8           0       -0.253524   -1.914847   -0.010361
     10          1           0       -2.408622   -1.384682    0.261164
     11          1           0       -1.570785    0.281556   -1.450852
     12          1           0       -1.661250    2.329544   -0.089113
     13          1           0       -1.143825    1.425802    1.343733
     14          1           0        0.514089    1.997743   -1.185615
     15          1           0        0.990912    2.315442    0.481283
     16          1           0        2.307085   -1.256166   -1.100139
     17          1           0        2.931149    0.467577   -1.077434
     18          1           0        1.950270   -1.180218    1.380812
     19          1           0        2.576088    0.545789    1.429640
 ---------------------------------------------------------------------

 SCF Done:  E(RB3LYP) =  -423.210375756     A.U. after    1 cycles

 The electronic state is 1-A.
 Alpha  occ. eigenvalues --  -19.13898 -19.13375 -10.26637 -10.23553 -10.20985
 Alpha  occ. eigenvalues --  -10.20368 -10.20339 -10.19824 -10.19083  -1.05295
 Alpha  occ. eigenvalues --   -1.01439  -0.88366  -0.81148  -0.69074  -0.66624
 Alpha  occ. eigenvalues --   -0.61590  -0.58623  -0.53936  -0.50766  -0.49619
 Alpha  occ. eigenvalues --   -0.48116  -0.45995  -0.43457  -0.40495  -0.39679
 Alpha  occ. eigenvalues --   -0.38398  -0.37729  -0.37610  -0.35578  -0.34233
 Alpha  occ. eigenvalues --   -0.31331  -0.28987  -0.27217  -0.24746
 Alpha virt. eigenvalues --   -0.02529   0.08818   0.10266   0.10401   0.11047
 Alpha virt. eigenvalues --    0.11722   0.14356   0.15196   0.16236   0.16855
 Alpha virt. eigenvalues --    0.18516   0.19069   0.20673   0.22183   0.22420

 Mulliken charges:
               1
     1  O   -0.443730
     2  C    0.067743
     3  C   -0.247255
     4  C   -0.324923
     5  C    0.249833
     6  C   -0.306408
     7  C   -0.289067
     8  C    0.316351
     9  O   -0.364925
    10  H    0.290822
    11  H    0.089267
    12  H    0.109793
    13  H    0.116030
    14  H    0.108800
    15  H    0.108672
    16  H    0.135674
    17  H    0.121875
    18  H    0.139787
    19  H    0.121662
 Sum of Mulliken charges =   0.00000

 Dipole moment (field-independent basis, Debye):
    X=              2.0924    Y=              2.0353    Z=             -0.4131  Tot=              2.9481
 Quadrupole moment (field-independent basis, Debye-Ang):
   XX=            -56.5473   YY=            -54.7392   ZZ=            -51.4127
   XY=              1.2483   XZ=              0.9455   YZ=             -0.2090

  Exact polarizability:  87.464   0.291  77.542   0.533  -1.367  63.411
 Approx polarizability: 116.787   2.863 118.418   0.408  -3.552  98.896

                      1                      2                      3
                      A                      A                      A
 Frequencies --     69.2313               162.2985               216.7468
 Red. masses --      5.3102                 2.4614                 2.7956
 Frc consts  --      0.0150                 0.0382                 0.0774
 IR Inten    --      0.3921                 1.6968                 3.6160

                      4                      5                      6
                      A                      A                      A
 Frequencies --    229.4484               282.5955               339.9476
 Red. masses --      3.2719                 4.8729                 2.2693
 Frc consts  --      0.1015                 0.2293                 0.1545
 IR Inten    --      1.2890                23.6973                 2.8032

                      7                      8                      9
                      A                      A                      A
 Frequencies --    396.4373               428.0379               454.9238
 Red. masses --      1.5157                 1.7726                 4.7660
 Frc consts  --      0.1403                 0.1913                 0.5811
 IR Inten    --     62.4896                11.4056                 3.4454

                     10                     11                     12
                      A                      A                      A
 Frequencies --    511.2573               585.7389               693.7714
 Red. masses --      3.5753                 3.0977                 5.1673
 Frc consts  --      0.5506                 0.6262                 1.4654
 IR Inten    --      8.8267                 0.8385                 4.3574

                     13                     14                     15
                      A                      A                      A
 Frequencies --    749.4509               788.8523               805.9818
 Red. masses --      2.2590                 1.2022                 2.3347
 Frc consts  --      0.7476                 0.4408                 0.8936
 IR Inten    --      8.8629                 0.5790                 2.5735

                     16                     17                     18
                      A                      A                      A
 Frequencies --    887.9677               899.2768               936.1543
 Red. masses --      2.5673                 1.9445                 1.6052
 Frc consts  --      1.1927                 0.9265                 0.8288
 IR Inten    --      1.5347                 0.9907                 1.6277

                     19                     20                     21
                      A                      A                      A
 Frequencies --    947.8713               983.4948              1003.2651
 Red. masses --      1.7913                 2.0914                 2.3373
 Frc consts  --      0.9482                 1.1919                 1.3861
 IR Inten    --      0.9630                12.8113                 9.3350

                     22                     23                     24
                      A                      A                      A
 Frequencies --   1053.4394              1077.0045              1084.6441
 Red. masses --      1.7378                 2.1989                 1.6978
 Frc consts  --      1.1363                 1.5027                 1.1768
 IR Inten    --     60.8700               109.6873                 9.3831

                     25                     26                     27
                      A                      A                      A
 Frequencies --   1091.5977              1154.4955              1163.2231
 Red. masses --      1.4844                 2.1808                 1.4393
 Frc consts  --      1.0422                 1.7126                 1.1475
 IR Inten    --      1.9925                47.5810                 0.5478

                     28                     29                     30
                      A                      A                      A
 Frequencies --   1200.9612              1204.0688              1266.2868
 Red. masses --      1.4358                 1.4760                 1.2333
 Frc consts  --      1.2201                 1.2608                 1.1652
 IR Inten    --      5.4979                 4.6624                20.2440

                     31                     32                     33
                      A                      A                      A
 Frequencies --   1287.7230              1302.9409              1310.1028
 Red. masses --      2.0788                 1.7331                 1.3985
 Frc consts  --      2.0310                 1.7335                 1.4143
 IR Inten    --      2.8384                14.3955                 1.1791

                     34                     35                     36
                      A                      A                      A
 Frequencies --   1356.9797              1387.3391              1420.2706
 Red. masses --      1.7719                 2.0034                 1.4727
 Frc consts  --      1.9224                 2.2718                 1.7502
 IR Inten    --     65.0302                17.1429                50.7634

                     37                     38                     39
                      A                      A                      A
 Frequencies --   1455.6670              1486.6127              1493.9383
 Red. masses --      1.0888                 1.3372                 1.1019
 Frc consts  --      1.3593                 1.7412                 1.4490
 IR Inten    --      3.1114                 5.5355                 2.2424

                     40                     41                     42
                      A                      A                      A
 Frequencies --   1504.2217              1816.2060              2908.7268
 Red. masses --      1.1092                12.2972                 1.0783
 Frc consts  --      1.4787                23.8994                 5.3752
 IR Inten    --      2.4665               157.9144                36.7873

                     43                     44                     45
                      A                      A                      A
 Frequencies --   3031.9598              3053.3312              3093.9516
 Red. masses --      1.0676                 1.0628                 1.0960
 Frc consts  --      5.7825                 5.8381                 6.1813
 IR Inten    --     26.2138                21.2341                20.7506

                     46                     47                     48
                      A                      A                      A
 Frequencies --   3115.7374              3130.9834              3134.2225
 Red. masses --      1.1030                 1.0513                 1.0554
 Frc consts  --      6.3088                 6.0722                 6.1084
 IR Inten    --     25.9598                12.3852                10.2069

                     49                     50                     51
                      A                      A                      A
 Frequencies --   3217.3164              3233.1398              3717.3049
 Red. masses --      1.1188                 1.1172                 1.0652
 Frc consts  --      6.8234                 6.8806                 8.6725
 IR Inten    --      0.3674                 4.9974                41.5597

 - Thermochemistry -
 -------------------
 Temperature   298.150 Kelvin.  Pressure   1.00000 Atm.
 Atom     1 has atomic number  8 and mass  15.99491

 Molecular mass:   126.06808 amu.
 Principal axes and moments of inertia in atomic units:
                           1         2         3
     Eigenvalues --   641.630961236.139141670.82837
           X            0.99996  -0.00897   0.00278
           Y            0.00898   0.99996  -0.00238
           Z           -0.00276   0.00240   0.99999
 This molecule is an asymmetric top.
 Rotational symmetry number  1.
 Warning -- assumption of classical behavior for rotation
           may cause significant error
 Rotational temperatures (Kelvin)      0.13499     0.07007     0.05184
 Rotational constants (GHZ):           2.81274     1.45998     1.08015
 Zero-point vibrational energy     419453.5 (Joules/Mol)
                                  100.25179 (Kcal/Mol)
 Warning -- explicit consideration of  11 degrees of freedom as
           vibrations may cause significant error
 Vibrational temperatures:     99.61   233.51   311.85   330.12   406.59
          (Kelvin)            489.11   570.38   615.85   654.53   735.58
                              842.75   998.18  1078.29  1134.98  1159.63
                             1277.59  1293.86  1346.92  1363.77  1415.03
                             1443.47  1515.66  1549.57  1560.56  1570.56
                             1661.06  1673.62  1727.91  1732.38  1821.90
                             1852.74  1874.64  1884.94  1952.39  1996.07
                             2043.45  2094.38  2138.90  2149.44  2164.24
                             2613.11  4185.00  4362.31  4393.06  4451.50
                             4482.85  4504.78  4509.44  4628.99  4651.76
                             5348.37

 Zero-point correction=                           0.159761 (Hartree/Particle)
 Thermal correction to Energy=                    0.168037
 Thermal correction to Enthalpy=                  0.168982
 Thermal correction to Gibbs Free Energy=         0.126939
 Sum of electronic and zero-point Energies=           -423.050614
 Sum of electronic and thermal Energies=              -423.042338
 Sum of electronic and thermal Enthalpies=            -423.041394
 Sum of electronic and thermal Free Energies=         -423.083436

                     E (Thermal)             CV                S
                      KCal/Mol        Cal/Mol-Kelvin    Cal/Mol-Kelvin
 Total                  105.445             32.182             88.485
 Electronic               0.000              0.000              0.000
 Translational            0.889              2.981             40.409
 Rotational               0.889              2.981             28.673
 Vibrational            103.668             26.220             19.403
 Vibration     1          0.598              1.969              4.175
 Vibration     2          0.622              1.889              2.523
 Vibration     3          0.646              1.816              1.986
 Vibration     4          0.652              1.796              1.883
 Vibration     5          0.682              1.706              1.518
 Vibration     6          0.720              1.596              1.212
 Vibration     7          0.763              1.478              0.976
 Vibration     8          0.790              1.409              0.865
 Vibration     9          0.813              1.350              0.781
 Vibration    10          0.866              1.225              0.631
 Vibration    11          0.943              1.062              0.475

 Optimization completed.
    -- Stationary point found.
 Normal termination of Gaussian 09 at Tue Jan 28 09:01:57 2020.
