 Gaussian 09, Revision D.01,
 Gaussian 09:  ES64L-G09RevD.01 24-Apr-2013

 -----------------------------
 # b3lyp 6-31G(2df,p) opt Freq
 -----------------------------

 -----
 titel
 -----
 Symbolic Z-matrix:
 Charge =  0 Multiplicity = 1

 SCF Done:  E(RB3LYP) =  -423.191187557     A.U. after   14 cycles
 SCF Done:  E(RB3LYP) =  -423.191185877     A.U. after    9 cycles
 SCF Done:  E(RB3LYP) =  -423.191187545     A.U. after    9 cycles
 Optimization completed.
    -- Stationary point found.
 Normal termination of Gaussian 09 at Mon Jan 27 15:46:02 2020.

 ----------------------------------------------------------------------
 #N Geom=AllCheck Guess=TCheck SCRF=Check GenChk RB3LYP/6-31G(2df,p) Fr
 eq
 ----------------------------------------------------------------------

 Structure from the checkpoint file:  "/scratch/puck/g09_91d4ba8b-15ce-4f4b-86f7-afe90d27782a/Gau-28382.chk"
 -----
 titel
 -----
 Charge =  0 Multiplicity = 1

                         Standard orientation:
 ---------------------------------------------------------------------
 Center     Atomic      Atomic             Coordinates (Angstroms)
 Number     Number       Type             X           Y           Z
 ---------------------------------------------------------------------
      1          6           0        0.344030    2.126246   -0.705117
      2          6           0        0.149648    0.632424   -0.425533
      3          6           0        1.238157    0.078606    0.494398
      4          6           0        1.600004   -1.387315    0.492457
      5          6           0        2.554932   -0.375037   -0.085425
      6          6           0       -1.187677    0.363763    0.239607
      7          8           0       -1.753975    1.125465    0.990319
      8          6           0       -1.873658   -0.984799   -0.037342
      9          8           0       -1.475816   -1.798462   -0.829395
     10          1           0        0.257341    2.703393    0.219135
     11          1           0        1.332852    2.302692   -1.136613
     12          1           0       -0.409806    2.501684   -1.403630
     13          1           0        0.174164    0.055211   -1.356633
     14          1           0        1.284087    0.585321    1.455243
     15          1           0        1.852397   -1.852266    1.438962
     16          1           0        1.068582   -2.033054   -0.197284
     17          1           0        3.461365   -0.143128    0.462590
     18          1           0        2.667736   -0.344650   -1.164304
     19          1           0       -2.803004   -1.114564    0.556874
 ---------------------------------------------------------------------

 SCF Done:  E(RB3LYP) =  -423.191187545     A.U. after    1 cycles

 The electronic state is 1-A.
 Alpha  occ. eigenvalues --  -19.17248 -19.15826 -10.28877 -10.28230 -10.20575
 Alpha  occ. eigenvalues --  -10.20427 -10.19230 -10.18989 -10.18134  -1.07827
 Alpha  occ. eigenvalues --   -1.06074  -0.86927  -0.78505  -0.69642  -0.64663
 Alpha  occ. eigenvalues --   -0.60550  -0.58965  -0.53772  -0.50754  -0.48238
 Alpha  occ. eigenvalues --   -0.47771  -0.47209  -0.44238  -0.43010  -0.40694
 Alpha  occ. eigenvalues --   -0.39544  -0.37655  -0.37178  -0.36672  -0.34398
 Alpha  occ. eigenvalues --   -0.31953  -0.29815  -0.29448  -0.24620
 Alpha virt. eigenvalues --   -0.09356   0.02998   0.09364   0.09987   0.11412
 Alpha virt. eigenvalues --    0.12326   0.13255   0.14895   0.16174   0.17436
 Alpha virt. eigenvalues --    0.17864   0.18113   0.20201   0.21998   0.22758

 Mulliken charges:
               1
     1  C   -0.399162
     2  C   -0.115593
     3  C    0.026900
     4  C   -0.280544
     5  C   -0.278140
     6  C    0.295786
     7  O   -0.290074
     8  C    0.095610
     9  O   -0.222064
    10  H    0.136133
    11  H    0.119832
    12  H    0.118342
    13  H    0.100860
    14  H    0.096299
    15  H    0.115383
    16  H    0.137728
    17  H    0.116432
    18  H    0.116672
    19  H    0.109601
 Sum of Mulliken charges =   0.00000

 Dipole moment (field-independent basis, Debye):
    X=              1.2178    Y=              0.1578    Z=             -0.1091  Tot=              1.2328
 Quadrupole moment (field-independent basis, Debye-Ang):
   XX=            -52.6761   YY=            -58.0094   ZZ=            -53.5745
   XY=              1.6190   XZ=              1.6237   YZ=             -4.5242

  Exact polarizability:  85.167  -1.216  79.617  -4.840   1.838  65.313
 Approx polarizability: 114.547  -7.833 118.881 -12.364  15.546 107.666

                      1                      2                      3
                      A                      A                      A
 Frequencies --     52.1660                87.8147               126.8121
 Red. masses --      5.6101                 3.1268                 3.5844
 Frc consts  --      0.0090                 0.0142                 0.0340
 IR Inten    --      0.3870                 0.0787                18.9046

                      4                      5                      6
                      A                      A                      A
 Frequencies --    146.9597               187.8671               206.2221
 Red. masses --      3.0486                 4.3874                 1.0434
 Frc consts  --      0.0388                 0.0912                 0.0261
 IR Inten    --      0.1704                 3.8518                 0.2657

                      7                      8                      9
                      A                      A                      A
 Frequencies --    248.7785               275.5619               339.1603
 Red. masses --      2.6200                 3.1943                 3.8067
 Frc consts  --      0.0955                 0.1429                 0.2580
 IR Inten    --      1.7010                 6.9242                 2.2261

                     10                     11                     12
                      A                      A                      A
 Frequencies --    431.2833               521.5590               584.9201
 Red. masses --      2.9609                 6.3867                 3.2065
 Frc consts  --      0.3245                 1.0236                 0.6464
 IR Inten    --     18.2327                 8.6834                 5.6057

                     13                     14                     15
                      A                      A                      A
 Frequencies --    645.1223               749.9205               791.9803
 Red. masses --      4.7962                 1.6812                 1.6081
 Frc consts  --      1.1761                 0.5571                 0.5943
 IR Inten    --     30.5583                 0.5193                 5.7456

                     16                     17                     18
                      A                      A                      A
 Frequencies --    820.8865               835.9655               930.0025
 Red. masses --      1.5328                 1.3884                 3.4070
 Frc consts  --      0.6086                 0.5717                 1.7361
 IR Inten    --      9.1774                 5.3140                 1.4371

                     19                     20                     21
                      A                      A                      A
 Frequencies --    944.7259               986.2518              1016.5578
 Red. masses --      2.7335                 1.4951                 1.5767
 Frc consts  --      1.4374                 0.8568                 0.9600
 IR Inten    --      8.5693                 3.7181                 0.6518

                     22                     23                     24
                      A                      A                      A
 Frequencies --   1060.1622              1080.6247              1086.9798
 Red. masses --      1.3418                 2.0047                 1.4034
 Frc consts  --      0.8886                 1.3793                 0.9770
 IR Inten    --      4.2871                 7.8731                 0.5262

                     25                     26                     27
                      A                      A                      A
 Frequencies --   1099.8732              1140.7626              1156.4445
 Red. masses --      2.0820                 1.1155                 2.8035
 Frc consts  --      1.4840                 0.8553                 2.2090
 IR Inten    --      5.0625                 0.5447                 5.1604

                     28                     29                     30
                      A                      A                      A
 Frequencies --   1200.0094              1201.7265              1225.3754
 Red. masses --      1.9871                 1.4927                 1.8971
 Frc consts  --      1.6859                 1.2701                 1.6783
 IR Inten    --      6.9020                 1.5780                 1.4711

                     31                     32                     33
                      A                      A                      A
 Frequencies --   1297.0134              1359.4286              1367.0212
 Red. masses --      1.3195                 1.4286                 1.4047
 Frc consts  --      1.3078                 1.5556                 1.5466
 IR Inten    --      1.8985                 2.4388                19.2416

                     34                     35                     36
                      A                      A                      A
 Frequencies --   1397.6116              1408.5647              1472.1821
 Red. masses --      1.5300                 1.2404                 1.0890
 Frc consts  --      1.7608                 1.4500                 1.3906
 IR Inten    --      2.1942                 4.0570                 0.8915

                     37                     38                     39
                      A                      A                      A
 Frequencies --   1491.7924              1497.8125              1504.3210
 Red. masses --      1.0427                 1.0543                 1.3275
 Frc consts  --      1.3672                 1.3935                 1.7699
 IR Inten    --      5.6237                 6.1453                 2.2240

                     40                     41                     42
                      A                      A                      A
 Frequencies --   1796.9903              1820.4337              2922.3530
 Red. masses --     11.1571                11.0619                 1.0878
 Frc consts  --     21.2271                21.5989                 5.4734
 IR Inten    --     86.8114                95.0279               102.7915

                     43                     44                     45
                      A                      A                      A
 Frequencies --   3045.6698              3053.8326              3115.7303
 Red. masses --      1.0349                 1.0823                 1.1015
 Frc consts  --      5.6562                 5.9468                 6.3003
 IR Inten    --     20.5535                 2.8745                21.0777

                     46                     47                     48
                      A                      A                      A
 Frequencies --   3127.4435              3131.7235              3138.1275
 Red. masses --      1.1013                 1.0534                 1.0730
 Frc consts  --      6.3465                 6.0873                 6.2255
 IR Inten    --      8.5448                17.1476                12.2109

                     49                     50                     51
                      A                      A                      A
 Frequencies --   3142.4054              3212.7402              3230.9448
 Red. masses --      1.0712                 1.1176                 1.1156
 Frc consts  --      6.2323                 6.7963                 6.8617
 IR Inten    --      7.6783                 3.2778                10.8057

 - Thermochemistry -
 -------------------
 Temperature   298.150 Kelvin.  Pressure   1.00000 Atm.
 Atom     1 has atomic number  6 and mass  12.00000

 Molecular mass:   126.06808 amu.
 Principal axes and moments of inertia in atomic units:
                           1         2         3
     Eigenvalues --   893.679651283.988451803.15365
           X            1.00000  -0.00183   0.00026
           Y            0.00184   0.99875  -0.05002
           Z           -0.00017   0.05002   0.99875
 This molecule is an asymmetric top.
 Rotational symmetry number  1.
 Warning -- assumption of classical behavior for rotation
           may cause significant error
 Rotational temperatures (Kelvin)      0.09692     0.06746     0.04803
 Rotational constants (GHZ):           2.01945     1.40557     1.00088
 Zero-point vibrational energy     411016.6 (Joules/Mol)
                                   98.23534 (Kcal/Mol)
 Warning -- explicit consideration of  12 degrees of freedom as
           vibrations may cause significant error
 Vibrational temperatures:     75.06   126.35   182.45   211.44   270.30
          (Kelvin)            296.71   357.94   396.47   487.98   620.52
                              750.41   841.57   928.19  1078.97  1139.48
                             1181.07  1202.77  1338.06  1359.25  1418.99
                             1462.60  1525.34  1554.78  1563.92  1582.47
                             1641.30  1663.86  1726.54  1729.01  1763.04
                             1866.11  1955.91  1966.84  2010.85  2026.61
                             2118.14  2146.35  2155.02  2164.38  2585.47
                             2619.19  4204.61  4382.03  4393.78  4482.84
                             4499.69  4505.85  4515.06  4521.21  4622.41
                             4648.60

 Zero-point correction=                           0.156548 (Hartree/Particle)
 Thermal correction to Energy=                    0.166287
 Thermal correction to Enthalpy=                  0.167231
 Thermal correction to Gibbs Free Energy=         0.121265
 Sum of electronic and zero-point Energies=           -423.034640
 Sum of electronic and thermal Energies=              -423.024900
 Sum of electronic and thermal Enthalpies=            -423.023956
 Sum of electronic and thermal Free Energies=         -423.069922

                     E (Thermal)             CV                S
                      KCal/Mol        Cal/Mol-Kelvin    Cal/Mol-Kelvin
 Total                  104.347             34.590             96.744
 Electronic               0.000              0.000              0.000
 Translational            0.889              2.981             40.409
 Rotational               0.889              2.981             29.116
 Vibrational            102.569             28.628             27.219
 Vibration     1          0.596              1.977              4.734
 Vibration     2          0.601              1.958              3.708
 Vibration     3          0.611              1.926              2.994
 Vibration     4          0.617              1.906              2.711
 Vibration     5          0.633              1.857              2.249
 Vibration     6          0.641              1.831              2.077
 Vibration     7          0.662              1.765              1.739
 Vibration     8          0.677              1.719              1.561
 Vibration     9          0.719              1.597              1.216
 Vibration    10          0.792              1.402              0.854
 Vibration    11          0.877              1.202              0.606
 Vibration    12          0.942              1.064              0.476

 Optimization completed.
    -- Stationary point found.
 Normal termination of Gaussian 09 at Mon Jan 27 16:29:10 2020.
