 Gaussian 09, Revision D.01,
 Gaussian 09:  ES64L-G09RevD.01 24-Apr-2013

 -----------------------------
 # b3lyp 6-31G(2df,p) opt Freq
 -----------------------------

 -----
 titel
 -----
 Symbolic Z-matrix:
 Charge =  0 Multiplicity = 1

 SCF Done:  E(RB3LYP) =  -423.209428881     A.U. after   14 cycles
 Optimization completed.
    -- Stationary point found.
 Normal termination of Gaussian 09 at Tue Jan 28 01:54:03 2020.

 ----------------------------------------------------------------------
 #N Geom=AllCheck Guess=TCheck SCRF=Check GenChk RB3LYP/6-31G(2df,p) Fr
 eq
 ----------------------------------------------------------------------

 Structure from the checkpoint file:  "/scratch/puck/g09_b1cd75e0-8d59-40e6-8086-b3ff3691cfbd/Gau-193532.chk"
 -----
 titel
 -----
 Charge =  0 Multiplicity = 1

                         Standard orientation:
 ---------------------------------------------------------------------
 Center     Atomic      Atomic             Coordinates (Angstroms)
 Number     Number       Type             X           Y           Z
 ---------------------------------------------------------------------
      1          6           0       -2.582391    0.051172   -0.833516
      2          6           0       -1.396171   -0.682547   -0.248523
      3          6           0       -1.076826   -0.691880    1.187705
      4          6           0       -0.099928    0.042216    0.239459
      5          6           0       -0.140149    1.521726    0.322027
      6          8           0        0.763084    2.283429    0.068570
      7          6           0        1.167748   -0.723669   -0.074026
      8          6           0        2.426000    0.021885   -0.449153
      9          8           0        1.147901   -1.937720   -0.025381
     10          1           0       -3.434300   -0.634709   -0.892723
     11          1           0       -2.895003    0.905534   -0.228354
     12          1           0       -2.374810    0.409147   -1.846851
     13          1           0       -1.121244   -1.594528   -0.770279
     14          1           0       -1.655730   -0.058553    1.853076
     15          1           0       -0.670244   -1.596354    1.623594
     16          1           0       -1.119161    1.918940    0.671061
     17          1           0        2.730937    0.694722    0.356910
     18          1           0        3.209125   -0.707844   -0.659071
     19          1           0        2.252853    0.664550   -1.316710
 ---------------------------------------------------------------------

 SCF Done:  E(RB3LYP) =  -423.209428881     A.U. after    1 cycles

 The electronic state is 1-A.
 Alpha  occ. eigenvalues --  -19.14181 -19.12905 -10.27844 -10.27551 -10.22469
 Alpha  occ. eigenvalues --  -10.22014 -10.21311 -10.19843 -10.18079  -1.05095
 Alpha  occ. eigenvalues --   -1.04136  -0.88996  -0.75207  -0.73255  -0.67639
 Alpha  occ. eigenvalues --   -0.62296  -0.58777  -0.51680  -0.49864  -0.49119
 Alpha  occ. eigenvalues --   -0.44726  -0.44278  -0.43833  -0.42449  -0.42211
 Alpha  occ. eigenvalues --   -0.40925  -0.39263  -0.39126  -0.38159  -0.35164
 Alpha  occ. eigenvalues --   -0.32275  -0.29407  -0.26259  -0.24850
 Alpha virt. eigenvalues --   -0.02825  -0.01888   0.08368   0.09961   0.12279
 Alpha virt. eigenvalues --    0.12811   0.13329   0.13702   0.15344   0.16116
 Alpha virt. eigenvalues --    0.16939   0.17901   0.19977   0.20624   0.22999

 Mulliken charges:
               1
     1  C   -0.426437
     2  C   -0.000243
     3  C   -0.312994
     4  C    0.095879
     5  C    0.090893
     6  O   -0.281360
     7  C    0.309497
     8  C   -0.469843
     9  O   -0.317367
    10  H    0.134380
    11  H    0.125943
    12  H    0.133932
    13  H    0.130786
    14  H    0.124400
    15  H    0.152917
    16  H    0.076369
    17  H    0.154033
    18  H    0.129252
    19  H    0.149964
 Sum of Mulliken charges =   0.00000

 Dipole moment (field-independent basis, Debye):
    X=             -2.3881    Y=              0.1820    Z=              0.2057  Tot=              2.4039
 Quadrupole moment (field-independent basis, Debye-Ang):
   XX=            -49.9350   YY=            -64.3451   ZZ=            -50.5795
   XY=              0.0308   XZ=             -0.2931   YZ=              0.3652

  Exact polarizability:  92.156   3.513  80.490  -3.071  -1.159  61.981
 Approx polarizability: 124.883  11.647 133.033  -6.304  -2.949  95.041

                      1                      2                      3
                      A                      A                      A
 Frequencies --     33.1854                90.0804               167.9601
 Red. masses --      4.2405                 3.5891                 1.7939
 Frc consts  --      0.0028                 0.0172                 0.0298
 IR Inten    --      7.5600                 1.5821                 2.5059

                      4                      5                      6
                      A                      A                      A
 Frequencies --    180.4508               190.6394               238.5149
 Red. masses --      1.1341                 1.3426                 3.9615
 Frc consts  --      0.0218                 0.0287                 0.1328
 IR Inten    --      0.1423                 0.2997                 9.2209

                      7                      8                      9
                      A                      A                      A
 Frequencies --    247.0010               325.7143               360.3955
 Red. masses --      3.9338                 2.6538                 3.4154
 Frc consts  --      0.1414                 0.1659                 0.2614
 IR Inten    --      4.6703                 0.4747                 0.5184

                     10                     11                     12
                      A                      A                      A
 Frequencies --    371.4141               431.9542               501.8467
 Red. masses --      3.1204                 2.0993                 4.8099
 Frc consts  --      0.2536                 0.2308                 0.7137
 IR Inten    --      2.7468                 1.1314                11.5477

                     13                     14                     15
                      A                      A                      A
 Frequencies --    592.4233               607.2922               700.1537
 Red. masses --      3.8330                 2.8716                 3.7671
 Frc consts  --      0.7926                 0.6240                 1.0880
 IR Inten    --      9.2420                 7.6145                23.8728

                     16                     17                     18
                      A                      A                      A
 Frequencies --    724.4220               877.1254               903.6327
 Red. masses --      3.6346                 2.7176                 1.2835
 Frc consts  --      1.1238                 1.2319                 0.6175
 IR Inten    --      3.5899                21.3875                12.8706

                     19                     20                     21
                      A                      A                      A
 Frequencies --    943.3565               954.5527              1021.2384
 Red. masses --      1.6439                 1.9015                 1.4667
 Frc consts  --      0.8620                 1.0208                 0.9013
 IR Inten    --     14.2508                15.3539                 0.8553

                     22                     23                     24
                      A                      A                      A
 Frequencies --   1044.5346              1054.7504              1066.7234
 Red. masses --      2.2990                 1.8033                 1.6749
 Frc consts  --      1.4778                 1.1820                 1.1229
 IR Inten    --     15.7794                 3.6227                14.8772

                     25                     26                     27
                      A                      A                      A
 Frequencies --   1085.0013              1129.2392              1189.0932
 Red. masses --      1.2927                 1.6279                 2.2596
 Frc consts  --      0.8967                 1.2230                 1.8824
 IR Inten    --      5.0960                21.8733                60.4655

                     28                     29                     30
                      A                      A                      A
 Frequencies --   1204.1839              1275.8632              1328.5357
 Red. masses --      1.5283                 2.0223                 3.5082
 Frc consts  --      1.3057                 1.9395                 3.6482
 IR Inten    --      0.5431                71.0090                50.9424

                     31                     32                     33
                      A                      A                      A
 Frequencies --   1389.5992              1399.3693              1422.1009
 Red. masses --      1.2918                 1.4863                 1.2987
 Frc consts  --      1.4697                 1.7149                 1.5475
 IR Inten    --     20.3958                26.3904                 4.1547

                     34                     35                     36
                      A                      A                      A
 Frequencies --   1440.4861              1454.4469              1467.2940
 Red. masses --      1.0805                 1.2258                 1.0492
 Frc consts  --      1.3210                 1.5278                 1.3308
 IR Inten    --     15.7743                 2.8082                 8.1356

                     37                     38                     39
                      A                      A                      A
 Frequencies --   1471.5175              1493.5593              1504.9698
 Red. masses --      1.3339                 1.0446                 1.1100
 Frc consts  --      1.7018                 1.3729                 1.4813
 IR Inten    --      8.6179                 2.6639                 7.2754

                     40                     41                     42
                      A                      A                      A
 Frequencies --   1773.0341              1805.4182              2878.6206
 Red. masses --     10.4928                10.6156                 1.0811
 Frc consts  --     19.4345                20.3868                 5.2782
 IR Inten    --    117.2825               252.0096                91.7514

                     43                     44                     45
                      A                      A                      A
 Frequencies --   3040.0958              3054.9004              3100.3109
 Red. masses --      1.0367                 1.0342                 1.1006
 Frc consts  --      5.6452                 5.6866                 6.2331
 IR Inten    --     23.2528                 1.4712                14.1736

                     46                     47                     48
                      A                      A                      A
 Frequencies --   3117.8641              3121.5505              3132.5447
 Red. masses --      1.1001                 1.0971                 1.0557
 Frc consts  --      6.3011                 6.2984                 6.1037
 IR Inten    --     14.9491                 2.4189                 9.2910

                     49                     50                     51
                      A                      A                      A
 Frequencies --   3156.9804              3163.7264              3234.8090
 Red. masses --      1.1060                 1.0868                 1.1160
 Frc consts  --      6.4947                 6.4092                 6.8802
 IR Inten    --     14.1217                 3.8225                 0.2697

 - Thermochemistry -
 -------------------
 Temperature   298.150 Kelvin.  Pressure   1.00000 Atm.
 Atom     1 has atomic number  6 and mass  12.00000

 Molecular mass:   126.06808 amu.
 Principal axes and moments of inertia in atomic units:
                           1         2         3
     Eigenvalues --   874.467851192.423481750.69744
           X            0.99998   0.00573   0.00003
           Y           -0.00573   0.99997  -0.00469
           Z           -0.00006   0.00469   0.99999
 This molecule is an asymmetric top.
 Rotational symmetry number  1.
 Warning -- assumption of classical behavior for rotation
           may cause significant error
 Rotational temperatures (Kelvin)      0.09905     0.07264     0.04947
 Rotational constants (GHZ):           2.06382     1.51351     1.03087
 Zero-point vibrational energy     409508.5 (Joules/Mol)
                                   97.87488 (Kcal/Mol)
 Warning -- explicit consideration of  14 degrees of freedom as
           vibrations may cause significant error
 Vibrational temperatures:     47.75   129.61   241.66   259.63   274.29
          (Kelvin)            343.17   355.38   468.63   518.53   534.38
                              621.48   722.04   852.36   873.76  1007.36
                             1042.28  1261.99  1300.12  1357.28  1373.39
                             1469.33  1502.85  1517.55  1534.78  1561.07
                             1624.72  1710.84  1732.55  1835.68  1911.46
                             1999.32  2013.38  2046.08  2072.54  2092.62
                             2111.11  2117.18  2148.90  2165.31  2551.00
                             2597.59  4141.69  4374.01  4395.31  4460.65
                             4485.91  4491.21  4507.03  4542.18  4551.89
                             4654.16

 Zero-point correction=                           0.155974 (Hartree/Particle)
 Thermal correction to Energy=                    0.165808
 Thermal correction to Enthalpy=                  0.166752
 Thermal correction to Gibbs Free Energy=         0.120686
 Sum of electronic and zero-point Energies=           -423.053455
 Sum of electronic and thermal Energies=              -423.043621
 Sum of electronic and thermal Enthalpies=            -423.042677
 Sum of electronic and thermal Free Energies=         -423.088743

                     E (Thermal)             CV                S
                      KCal/Mol        Cal/Mol-Kelvin    Cal/Mol-Kelvin
 Total                  104.046             35.422             96.954
 Electronic               0.000              0.000              0.000
 Translational            0.889              2.981             40.409
 Rotational               0.889              2.981             28.992
 Vibrational            102.268             29.461             27.553
 Vibration     1          0.594              1.983              5.629
 Vibration     2          0.602              1.956              3.658
 Vibration     3          0.625              1.882              2.458
 Vibration     4          0.629              1.866              2.324
 Vibration     5          0.634              1.853              2.222
 Vibration     6          0.656              1.782              1.814
 Vibration     7          0.661              1.768              1.752
 Vibration     8          0.710              1.624              1.281
 Vibration     9          0.735              1.554              1.120
 Vibration    10          0.743              1.531              1.074
 Vibration    11          0.793              1.401              0.852
 Vibration    12          0.857              1.246              0.654
 Vibration    13          0.950              1.048              0.463
 Vibration    14          0.966              1.016              0.437

 Normal termination of Gaussian 09 at Tue Jan 28 02:37:56 2020.
