 Gaussian 09, Revision D.01,
 Gaussian 09:  ES64L-G09RevD.01 24-Apr-2013

 -----------------------------
 # b3lyp 6-31G(2df,p) opt Freq
 -----------------------------

 -----
 titel
 -----
 Symbolic Z-matrix:
 Charge =  0 Multiplicity = 1

 SCF Done:  E(RB3LYP) =  -423.090438264     A.U. after   13 cycles
 Optimization completed.
    -- Stationary point found.
 Normal termination of Gaussian 09 at Tue Jan 28 02:56:13 2020.

 ----------------------------------------------------------------------
 #N Geom=AllCheck Guess=TCheck SCRF=Check GenChk RB3LYP/6-31G(2df,p) Fr
 eq
 ----------------------------------------------------------------------

 Structure from the checkpoint file:  "/scratch/puck/g09_862db2cc-bc7f-4903-8b34-11b7263a834f/Gau-89745.chk"
 -----
 titel
 -----
 Charge =  0 Multiplicity = 1

                         Standard orientation:
 ---------------------------------------------------------------------
 Center     Atomic      Atomic             Coordinates (Angstroms)
 Number     Number       Type             X           Y           Z
 ---------------------------------------------------------------------
      1          6           0        2.838175   -0.081547    0.636579
      2          6           0        1.718147    0.110926   -0.357421
      3          8           0        0.911631   -1.132912   -0.485280
      4          6           0       -0.333350   -0.720102    0.045931
      5          6           0       -1.873485   -0.767769   -0.307917
      6          6           0       -2.501514   -0.062877    0.862918
      7          6           0       -1.894866    0.794753   -0.212182
      8          6           0       -0.380710    0.689448   -0.412478
      9          8           0        0.869662    1.202162    0.063562
     10          1           0        3.487910   -0.897501    0.309998
     11          1           0        3.430680    0.834693    0.712273
     12          1           0        2.431896   -0.321726    1.622109
     13          1           0        2.094300    0.314719   -1.369671
     14          1           0       -0.276842   -0.818009    1.137691
     15          1           0       -2.406394   -1.400126   -1.004128
     16          1           0       -3.587203   -0.037194    0.878522
     17          1           0       -2.054329   -0.149372    1.850270
     18          1           0       -2.508438    1.478591   -0.785951
     19          1           0       -0.296305    0.664946   -1.509950
 ---------------------------------------------------------------------

 SCF Done:  E(RB3LYP) =  -423.090438264     A.U. after    1 cycles

 The electronic state is 1-A.
 Alpha  occ. eigenvalues --  -19.14322 -19.14049 -10.27810 -10.23240 -10.22652
 Alpha  occ. eigenvalues --  -10.21527 -10.21148 -10.20208 -10.17666  -1.07246
 Alpha  occ. eigenvalues --   -0.98250  -0.90480  -0.76485  -0.70680  -0.65045
 Alpha  occ. eigenvalues --   -0.61007  -0.58183  -0.55621  -0.52054  -0.49312
 Alpha  occ. eigenvalues --   -0.48273  -0.46426  -0.42150  -0.41598  -0.40081
 Alpha  occ. eigenvalues --   -0.38825  -0.37182  -0.36286  -0.34126  -0.31662
 Alpha  occ. eigenvalues --   -0.30327  -0.28498  -0.25495  -0.23728
 Alpha virt. eigenvalues --    0.06416   0.08720   0.10041   0.11349   0.11560
 Alpha virt. eigenvalues --    0.12453   0.13776   0.15317   0.15713   0.17500
 Alpha virt. eigenvalues --    0.17690   0.18445   0.20151   0.21199   0.21318

 Mulliken charges:
               1
     1  C   -0.393512
     2  C    0.192661
     3  O   -0.335179
     4  C    0.129577
     5  C   -0.136640
     6  C   -0.278020
     7  C   -0.151146
     8  C    0.199901
     9  O   -0.315042
    10  H    0.128440
    11  H    0.128399
    12  H    0.128698
    13  H    0.084914
    14  H    0.077310
    15  H    0.109397
    16  H    0.120784
    17  H    0.121829
    18  H    0.101333
    19  H    0.086295
 Sum of Mulliken charges =   0.00000

 Dipole moment (field-independent basis, Debye):
    X=             -1.2659    Y=              0.0169    Z=             -0.1178  Tot=              1.2714
 Quadrupole moment (field-independent basis, Debye-Ang):
   XX=            -46.1115   YY=            -57.8337   ZZ=            -51.9436
   XY=              0.3098   XZ=              0.6289   YZ=             -1.9261

  Exact polarizability:  99.291   0.212  63.348  -1.644  -1.929  66.008
 Approx polarizability: 124.051   0.773 106.169  -3.278   0.286 101.297

                      1                      2                      3
                      A                      A                      A
 Frequencies --     77.5665               214.6050               250.7060
 Red. masses --      3.4350                 1.1280                 2.6494
 Frc consts  --      0.0122                 0.0306                 0.0981
 IR Inten    --      2.5830                 0.7093                 0.9743

                      4                      5                      6
                      A                      A                      A
 Frequencies --    256.3369               353.7849               414.2079
 Red. masses --      2.9752                 3.3254                 3.3256
 Frc consts  --      0.1152                 0.2452                 0.3362
 IR Inten    --      4.3753                 1.2423                 0.2670

                      7                      8                      9
                      A                      A                      A
 Frequencies --    439.9294               532.3153               549.3538
 Red. masses --      3.8955                 2.8974                 3.3249
 Frc consts  --      0.4442                 0.4837                 0.5912
 IR Inten    --      2.1098                 8.6529                 6.9300

                     10                     11                     12
                      A                      A                      A
 Frequencies --    675.6981               687.2236               728.3441
 Red. masses --      5.8866                 4.4666                 4.9668
 Frc consts  --      1.5835                 1.2429                 1.5524
 IR Inten    --     16.4064                 0.7366                25.1056

                     13                     14                     15
                      A                      A                      A
 Frequencies --    748.9833               834.5666               850.2537
 Red. masses --      2.3809                 2.8683                 1.8831
 Frc consts  --      0.7869                 1.1771                 0.8021
 IR Inten    --      7.2876                27.0526                11.2710

                     16                     17                     18
                      A                      A                      A
 Frequencies --    880.1183               900.2366               957.5380
 Red. masses --      2.6533                 1.6160                 2.2146
 Frc consts  --      1.2109                 0.7716                 1.1964
 IR Inten    --     29.6444                26.9324                28.7923

                     19                     20                     21
                      A                      A                      A
 Frequencies --   1006.5536              1019.1307              1049.9569
 Red. masses --      1.6630                 1.7784                 1.2896
 Frc consts  --      0.9927                 1.0883                 0.8377
 IR Inten    --      2.8541                 8.7496                 1.0268

                     22                     23                     24
                      A                      A                      A
 Frequencies --   1073.9128              1079.4837              1105.1760
 Red. masses --      2.3222                 2.2077                 1.4294
 Frc consts  --      1.5779                 1.5158                 1.0286
 IR Inten    --     16.2111                51.5037                23.7672

                     25                     26                     27
                      A                      A                      A
 Frequencies --   1121.2620              1132.6377              1150.4756
 Red. masses --      2.0818                 2.2980                 2.4761
 Frc consts  --      1.5421                 1.7370                 1.9310
 IR Inten    --     44.1857                47.9095                92.8527

                     28                     29                     30
                      A                      A                      A
 Frequencies --   1170.7870              1181.7782              1216.4981
 Red. masses --      1.9539                 2.1208                 1.9921
 Frc consts  --      1.5780                 1.7451                 1.7370
 IR Inten    --     34.8944                 2.4659                46.3261

                     31                     32                     33
                      A                      A                      A
 Frequencies --   1236.2697              1304.0114              1341.4061
 Red. masses --      1.8480                 1.8408                 1.2557
 Frc consts  --      1.6641                 1.8443                 1.3312
 IR Inten    --      8.6388                 0.1489                 5.2671

                     34                     35                     36
                      A                      A                      A
 Frequencies --   1357.6915              1385.8404              1416.0728
 Red. masses --      1.9177                 1.2786                 1.4351
 Frc consts  --      2.0827                 1.4468                 1.6955
 IR Inten    --     13.5206                13.2804                40.7855

                     37                     38                     39
                      A                      A                      A
 Frequencies --   1472.1160              1481.6288              1483.8135
 Red. masses --      1.1384                 1.0478                 1.0532
 Frc consts  --      1.4536                 1.3552                 1.3662
 IR Inten    --      3.6370                 2.7865                 2.8888

                     40                     41                     42
                      A                      A                      A
 Frequencies --   1493.3073              1507.8341              2968.2809
 Red. masses --      1.0949                 1.1656                 1.0821
 Frc consts  --      1.4386                 1.5614                 5.6173
 IR Inten    --      2.6070                17.0281                16.3855

                     43                     44                     45
                      A                      A                      A
 Frequencies --   2999.4686              3005.4956              3050.8427
 Red. masses --      1.0835                 1.0862                 1.0346
 Frc consts  --      5.7432                 5.7807                 5.6738
 IR Inten    --     38.6207                78.5633                 9.7077

                     46                     47                     48
                      A                      A                      A
 Frequencies --   3110.3153              3128.1526              3135.8266
 Red. masses --      1.0562                 1.1017                 1.1028
 Frc consts  --      6.0204                 6.3515                 6.3893
 IR Inten    --     18.7494                13.4584                19.9942

                     49                     50                     51
                      A                      A                      A
 Frequencies --   3182.0772              3194.7255              3218.0924
 Red. masses --      1.0959                 1.1082                 1.0954
 Frc consts  --      6.5383                 6.6638                 6.6838
 IR Inten    --      9.9936                11.7433                 9.9987

 - Thermochemistry -
 -------------------
 Temperature   298.150 Kelvin.  Pressure   1.00000 Atm.
 Atom     1 has atomic number  6 and mass  12.00000

 Molecular mass:   126.06808 amu.
 Principal axes and moments of inertia in atomic units:
                           1         2         3
     Eigenvalues --   410.770481507.863351652.11004
           X            0.99998  -0.00039   0.00623
           Y            0.00079   0.99789  -0.06498
           Z           -0.00620   0.06498   0.99787
 This molecule is an asymmetric top.
 Rotational symmetry number  1.
 Rotational temperatures (Kelvin)      0.21086     0.05744     0.05243
 Rotational constants (GHZ):           4.39355     1.19689     1.09239
 Zero-point vibrational energy     419486.6 (Joules/Mol)
                                  100.25971 (Kcal/Mol)
 Warning -- explicit consideration of   9 degrees of freedom as
           vibrations may cause significant error
 Vibrational temperatures:    111.60   308.77   360.71   368.81   509.02
          (Kelvin)            595.95   632.96   765.88   790.40   972.18
                              988.76  1047.92  1077.62  1200.75  1223.32
                             1266.29  1295.24  1377.68  1448.20  1466.30
                             1510.65  1545.12  1553.13  1590.10  1613.24
                             1629.61  1655.28  1684.50  1700.31  1750.27
                             1778.71  1876.18  1929.98  1953.41  1993.91
                             2037.41  2118.04  2131.73  2134.87  2148.53
                             2169.43  4270.69  4315.56  4324.23  4389.48
                             4475.04  4500.71  4511.75  4578.29  4596.49
                             4630.11

 Zero-point correction=                           0.159774 (Hartree/Particle)
 Thermal correction to Energy=                    0.167312
 Thermal correction to Enthalpy=                  0.168256
 Thermal correction to Gibbs Free Energy=         0.127824
 Sum of electronic and zero-point Energies=           -422.930664
 Sum of electronic and thermal Energies=              -422.923127
 Sum of electronic and thermal Enthalpies=            -422.922182
 Sum of electronic and thermal Free Energies=         -422.962614

                     E (Thermal)             CV                S
                      KCal/Mol        Cal/Mol-Kelvin    Cal/Mol-Kelvin
 Total                  104.990             30.337             85.096
 Electronic               0.000              0.000              0.000
 Translational            0.889              2.981             40.409
 Rotational               0.889              2.981             28.416
 Vibrational            103.212             24.375             16.271
 Vibration     1          0.599              1.964              3.952
 Vibration     2          0.645              1.819              2.004
 Vibration     3          0.663              1.762              1.726
 Vibration     4          0.666              1.752              1.687
 Vibration     5          0.730              1.567              1.149
 Vibration     6          0.778              1.439              0.912
 Vibration     7          0.800              1.383              0.827
 Vibration     8          0.887              1.179              0.582
 Vibration     9          0.905              1.141              0.546

 Normal termination of Gaussian 09 at Tue Jan 28 03:47:54 2020.
