 Gaussian 09, Revision D.01,
 Gaussian 09:  ES64L-G09RevD.01 24-Apr-2013

 -----------------------------
 # b3lyp 6-31G(2df,p) opt Freq
 -----------------------------

 -----
 titel
 -----
 Symbolic Z-matrix:
 Charge =  0 Multiplicity = 1

 SCF Done:  E(RB3LYP) =  -423.169436174     A.U. after   14 cycles
 Optimization completed.
    -- Stationary point found.
 Normal termination of Gaussian 09 at Tue Jan 28 00:36:19 2020.

 ----------------------------------------------------------------------
 #N Geom=AllCheck Guess=TCheck SCRF=Check GenChk RB3LYP/6-31G(2df,p) Fr
 eq
 ----------------------------------------------------------------------

 Structure from the checkpoint file:  "/scratch/puck/g09_839c56bd-1712-4435-9fd2-142c1fb5f81c/Gau-189447.chk"
 -----
 titel
 -----
 Charge =  0 Multiplicity = 1

                         Standard orientation:
 ---------------------------------------------------------------------
 Center     Atomic      Atomic             Coordinates (Angstroms)
 Number     Number       Type             X           Y           Z
 ---------------------------------------------------------------------
      1          6           0        1.580408   -1.908875   -0.192469
      2          6           0        1.134656   -0.631958    0.506293
      3          6           0        1.846675    0.696222    0.085416
      4          6           0        0.459338    1.321633   -0.104622
      5          8           0        0.056140    2.432506   -0.300392
      6          6           0       -0.250316   -0.015967    0.123266
      7          6           0       -1.181539   -0.584663   -0.978080
      8          8           0       -2.306790   -0.625379   -0.084115
      9          6           0       -1.517116   -0.100377    0.998773
     10          1           0        2.607658   -2.163411    0.088095
     11          1           0        0.942854   -2.758368    0.074462
     12          1           0        1.553716   -1.799556   -1.282436
     13          1           0        1.185936   -0.767334    1.592081
     14          1           0        2.495939    1.185532    0.816042
     15          1           0        2.392650    0.618334   -0.862017
     16          1           0       -1.354284    0.086791   -1.827908
     17          1           0       -0.910775   -1.581027   -1.347964
     18          1           0       -1.893537    0.867082    1.353027
     19          1           0       -1.447589   -0.801156    1.841207
 ---------------------------------------------------------------------

 SCF Done:  E(RB3LYP) =  -423.169436174     A.U. after    1 cycles

 The electronic state is 1-A.
 Alpha  occ. eigenvalues --  -19.14219 -19.13686 -10.27140 -10.24111 -10.23863
 Alpha  occ. eigenvalues --  -10.20815 -10.20448 -10.19677 -10.19090  -1.05182
 Alpha  occ. eigenvalues --   -1.04274  -0.85733  -0.73556  -0.71945  -0.69925
 Alpha  occ. eigenvalues --   -0.60844  -0.58866  -0.52683  -0.50168  -0.49022
 Alpha  occ. eigenvalues --   -0.46284  -0.44214  -0.43126  -0.42717  -0.42388
 Alpha  occ. eigenvalues --   -0.40625  -0.37679  -0.37191  -0.36816  -0.34011
 Alpha  occ. eigenvalues --   -0.31955  -0.30362  -0.25618  -0.24156
 Alpha virt. eigenvalues --   -0.03140   0.06571   0.08183   0.10292   0.11332
 Alpha virt. eigenvalues --    0.11989   0.13274   0.14794   0.15164   0.15797
 Alpha virt. eigenvalues --    0.17071   0.18150   0.19041   0.19723   0.21038

 Mulliken charges:
               1
     1  C   -0.414290
     2  C   -0.063680
     3  C   -0.373656
     4  C    0.351927
     5  O   -0.298725
     6  C    0.157499
     7  C   -0.123452
     8  O   -0.269515
     9  C   -0.127429
    10  H    0.123768
    11  H    0.126063
    12  H    0.118313
    13  H    0.083284
    14  H    0.131838
    15  H    0.131494
    16  H    0.116471
    17  H    0.106528
    18  H    0.120399
    19  H    0.103162
 Sum of Mulliken charges =   0.00000

 Dipole moment (field-independent basis, Debye):
    X=              2.5278    Y=             -2.1682    Z=              0.6274  Tot=              3.3889
 Quadrupole moment (field-independent basis, Debye-Ang):
   XX=            -56.8079   YY=            -60.6913   ZZ=            -49.5738
   XY=             -1.2188   XZ=             -0.6399   YZ=              1.5207

  Exact polarizability:  80.086  -1.359  78.531  -0.375   0.248  67.941
 Approx polarizability: 109.987  -2.434 116.112   0.389  -1.686 102.879

                      1                      2                      3
                      A                      A                      A
 Frequencies --     33.7721                79.1122               159.0320
 Red. masses --      2.9890                 4.6113                 2.7921
 Frc consts  --      0.0020                 0.0170                 0.0416
 IR Inten    --      1.7982                 4.3500                 2.4858

                      4                      5                      6
                      A                      A                      A
 Frequencies --    213.4892               240.0350               255.1589
 Red. masses --      2.8724                 1.2475                 2.7251
 Frc consts  --      0.0771                 0.0423                 0.1045
 IR Inten    --      1.5766                 0.5151                 2.3363

                      7                      8                      9
                      A                      A                      A
 Frequencies --    287.7873               424.8499               466.9444
 Red. masses --      2.0824                 2.7189                 2.7094
 Frc consts  --      0.1016                 0.2891                 0.3481
 IR Inten    --      0.8082                 1.5479                 0.3290

                     10                     11                     12
                      A                      A                      A
 Frequencies --    525.5270               578.9387               660.7208
 Red. masses --      2.1507                 3.8771                 4.0706
 Frc consts  --      0.3500                 0.7656                 1.0470
 IR Inten    --      0.0621                 3.0915                 1.4704

                     13                     14                     15
                      A                      A                      A
 Frequencies --    764.1538               837.9792               842.9656
 Red. masses --      2.2484                 2.1090                 3.9407
 Frc consts  --      0.7735                 0.8726                 1.6498
 IR Inten    --      0.9602                 1.0583                12.7905

                     16                     17                     18
                      A                      A                      A
 Frequencies --    870.3110               945.5966               955.3009
 Red. masses --      2.4649                 1.2822                 1.5407
 Frc consts  --      1.1000                 0.6755                 0.8284
 IR Inten    --      4.3843                 0.0825                 3.2686

                     19                     20                     21
                      A                      A                      A
 Frequencies --    986.7638              1045.7053              1050.9613
 Red. masses --      4.3448                 4.4688                 7.7955
 Frc consts  --      2.4926                 2.8791                 5.0731
 IR Inten    --     24.5067                63.0781                79.8790

                     22                     23                     24
                      A                      A                      A
 Frequencies --   1062.2649              1077.4772              1137.6956
 Red. masses --      1.7876                 2.4968                 2.1796
 Frc consts  --      1.1884                 1.7079                 1.6622
 IR Inten    --     11.9177                 3.0152                 1.6406

                     25                     26                     27
                      A                      A                      A
 Frequencies --   1154.0350              1168.0483              1182.8697
 Red. masses --      1.4984                 1.0812                 2.0630
 Frc consts  --      1.1757                 0.8691                 1.7007
 IR Inten    --      4.7486                 0.1020                 1.1897

                     28                     29                     30
                      A                      A                      A
 Frequencies --   1195.3683              1226.3043              1238.6232
 Red. masses --      1.5478                 2.0742                 1.7398
 Frc consts  --      1.3031                 1.8378                 1.5726
 IR Inten    --      4.5185                13.8411                 0.4731

                     31                     32                     33
                      A                      A                      A
 Frequencies --   1286.4488              1310.1498              1359.6435
 Red. masses --      2.1316                 1.2547                 1.4901
 Frc consts  --      2.0785                 1.2689                 1.6230
 IR Inten    --     28.9149                 0.6201                 8.3345

                     34                     35                     36
                      A                      A                      A
 Frequencies --   1371.4869              1411.7691              1437.8164
 Red. masses --      1.4340                 1.2507                 1.1110
 Frc consts  --      1.5892                 1.4687                 1.3532
 IR Inten    --     13.9774                 1.7672                 7.8146

                     37                     38                     39
                      A                      A                      A
 Frequencies --   1494.1944              1497.1041              1501.8031
 Red. masses --      1.0517                 1.0462                 1.0689
 Frc consts  --      1.3834                 1.3816                 1.4204
 IR Inten    --      2.6496                 3.7647                 2.1834

                     40                     41                     42
                      A                      A                      A
 Frequencies --   1525.3478              1883.0980              3003.8220
 Red. masses --      1.1096                12.5949                 1.0533
 Frc consts  --      1.5211                26.3143                 5.5993
 IR Inten    --      1.0095               228.4895                88.4669

                     43                     44                     45
                      A                      A                      A
 Frequencies --   3018.2567              3028.9811              3043.8283
 Red. masses --      1.0559                 1.0363                 1.0832
 Frc consts  --      5.6672                 5.6018                 5.9128
 IR Inten    --     11.1627                22.4565                 9.4765

                     46                     47                     48
                      A                      A                      A
 Frequencies --   3047.3120              3057.7728              3062.7360
 Red. masses --      1.0637                 1.1093                 1.1112
 Frc consts  --      5.8196                 6.1112                 6.1414
 IR Inten    --     11.0683                25.9697                40.2188

                     49                     50                     51
                      A                      A                      A
 Frequencies --   3096.7413              3100.3571              3109.0183
 Red. masses --      1.1011                 1.1014                 1.1019
 Frc consts  --      6.2212                 6.2375                 6.2753
 IR Inten    --     26.5299                20.3443                13.6757

 - Thermochemistry -
 -------------------
 Temperature   298.150 Kelvin.  Pressure   1.00000 Atm.
 Atom     1 has atomic number  6 and mass  12.00000

 Molecular mass:   126.06808 amu.
 Principal axes and moments of inertia in atomic units:
                           1         2         3
     Eigenvalues --   878.738011060.308771617.83294
           X            0.99057  -0.13686  -0.00702
           Y            0.13696   0.99042   0.01779
           Z            0.00452  -0.01858   0.99982
 This molecule is an asymmetric top.
 Rotational symmetry number  1.
 Warning -- assumption of classical behavior for rotation
           may cause significant error
 Rotational temperatures (Kelvin)      0.09857     0.08169     0.05354
 Rotational constants (GHZ):           2.05379     1.70209     1.11553
 Zero-point vibrational energy     414598.6 (Joules/Mol)
                                   99.09145 (Kcal/Mol)
 Warning -- explicit consideration of  11 degrees of freedom as
           vibrations may cause significant error
 Vibrational temperatures:     48.59   113.82   228.81   307.16   345.36
          (Kelvin)            367.12   414.06   611.26   671.83   756.12
                              832.96   950.63  1099.45  1205.66  1212.84
                             1252.18  1360.50  1374.46  1419.73  1504.53
                             1512.10  1528.36  1550.25  1636.89  1660.40
                             1680.56  1701.88  1719.87  1764.38  1782.10
                             1850.91  1885.01  1956.22  1973.26  2031.22
                             2068.69  2149.81  2154.00  2160.76  2194.63
                             2709.35  4321.82  4342.59  4358.02  4379.38
                             4384.40  4399.45  4406.59  4455.51  4460.72
                             4473.18

 Zero-point correction=                           0.157912 (Hartree/Particle)
 Thermal correction to Energy=                    0.166744
 Thermal correction to Enthalpy=                  0.167688
 Thermal correction to Gibbs Free Energy=         0.123407
 Sum of electronic and zero-point Energies=           -423.011524
 Sum of electronic and thermal Energies=              -423.002692
 Sum of electronic and thermal Enthalpies=            -423.001748
 Sum of electronic and thermal Free Energies=         -423.046029

                     E (Thermal)             CV                S
                      KCal/Mol        Cal/Mol-Kelvin    Cal/Mol-Kelvin
 Total                  104.634             32.274             93.197
 Electronic               0.000              0.000              0.000
 Translational            0.889              2.981             40.409
 Rotational               0.889              2.981             28.801
 Vibrational            102.856             26.313             23.987
 Vibration     1          0.594              1.983              5.595
 Vibration     2          0.600              1.963              3.913
 Vibration     3          0.621              1.892              2.561
 Vibration     4          0.644              1.820              2.014
 Vibration     5          0.657              1.779              1.803
 Vibration     6          0.666              1.754              1.695
 Vibration     7          0.685              1.696              1.487
 Vibration     8          0.787              1.416              0.876
 Vibration     9          0.824              1.323              0.746
 Vibration    10          0.880              1.193              0.597
 Vibration    11          0.936              1.077              0.487

 Optimization completed.
    -- Stationary point found.
 Normal termination of Gaussian 09 at Tue Jan 28 01:18:53 2020.
