 Gaussian 09, Revision D.01,
 Gaussian 09:  ES64L-G09RevD.01 24-Apr-2013

 -----------------------------
 # b3lyp 6-31G(2df,p) opt Freq
 -----------------------------

 -----
 titel
 -----
 Symbolic Z-matrix:
 Charge =  0 Multiplicity = 1

 SCF Done:  E(RB3LYP) =  -423.158937839     A.U. after   13 cycles
 Optimization completed.
    -- Stationary point found.
 Normal termination of Gaussian 09 at Mon Jan 27 12:15:08 2020.

 ----------------------------------------------------------------------
 #N Geom=AllCheck Guess=TCheck SCRF=Check GenChk RB3LYP/6-31G(2df,p) Fr
 eq
 ----------------------------------------------------------------------

 Structure from the checkpoint file:  "/scratch/puck/g09_87e934fc-5e70-4645-8f9a-c9742c702036/Gau-71786.chk"
 -----
 titel
 -----
 Charge =  0 Multiplicity = 1

                         Standard orientation:
 ---------------------------------------------------------------------
 Center     Atomic      Atomic             Coordinates (Angstroms)
 Number     Number       Type             X           Y           Z
 ---------------------------------------------------------------------
      1          6           0       -1.515336   -1.042124    0.619816
      2          8           0       -2.234405   -0.000942   -0.089638
      3          6           0       -1.060604    0.409430   -0.833547
      4          6           0       -0.384411    1.666509   -0.250588
      5          6           0        0.412300    0.771647    0.752758
      6          6           0        1.919536    0.577963    0.515639
      7          6           0        1.977687   -0.563892   -0.522042
      8          8           0        0.824647   -1.374274   -0.276601
      9          6           0       -0.193259   -0.508943    0.093260
     10          1           0       -1.685710   -1.008018    1.702336
     11          1           0       -1.766869   -2.040191    0.237544
     12          1           0       -1.193658    0.306760   -1.914095
     13          1           0        0.255822    2.183686   -0.973201
     14          1           0       -1.073555    2.386993    0.194586
     15          1           0        0.174536    0.933810    1.805521
     16          1           0        2.425118    1.481238    0.163089
     17          1           0        2.405721    0.260892    1.442775
     18          1           0        1.940833   -0.166092   -1.547518
     19          1           0        2.860366   -1.200890   -0.432905
 ---------------------------------------------------------------------

 SCF Done:  E(RB3LYP) =  -423.158937839     A.U. after    1 cycles

 The electronic state is 1-A.
 Alpha  occ. eigenvalues --  -19.15051 -19.13274 -10.23425 -10.23389 -10.22668
 Alpha  occ. eigenvalues --  -10.22422 -10.19111 -10.19091 -10.18295  -1.05707
 Alpha  occ. eigenvalues --   -1.02887  -0.82415  -0.76134  -0.71540  -0.64648
 Alpha  occ. eigenvalues --   -0.63069  -0.59121  -0.52598  -0.51044  -0.48920
 Alpha  occ. eigenvalues --   -0.48357  -0.45379  -0.43531  -0.42448  -0.41526
 Alpha  occ. eigenvalues --   -0.38337  -0.35868  -0.35212  -0.33977  -0.32797
 Alpha  occ. eigenvalues --   -0.30878  -0.29467  -0.24485  -0.24295
 Alpha virt. eigenvalues --    0.06565   0.08850   0.09655   0.11268   0.12806
 Alpha virt. eigenvalues --    0.13164   0.14440   0.15059   0.15928   0.17256
 Alpha virt. eigenvalues --    0.17911   0.18566   0.19714   0.20394   0.21294

 Mulliken charges:
               1
     1  C   -0.160316
     2  O   -0.296457
     3  C    0.045071
     4  C   -0.259398
     5  C   -0.081998
     6  C   -0.242330
     7  C   -0.105287
     8  O   -0.287975
     9  C    0.388226
    10  H    0.102315
    11  H    0.107840
    12  H    0.075204
    13  H    0.096494
    14  H    0.112617
    15  H    0.075722
    16  H    0.105812
    17  H    0.111677
    18  H    0.099230
    19  H    0.113550
 Sum of Mulliken charges =   0.00000

 Dipole moment (field-independent basis, Debye):
    X=              2.0744    Y=              0.8457    Z=              0.2783  Tot=              2.2574
 Quadrupole moment (field-independent basis, Debye-Ang):
   XX=            -55.6592   YY=            -54.2234   ZZ=            -50.8835
   XY=              1.9158   XZ=             -0.9064   YZ=             -1.2752

  Exact polarizability:  80.852   1.968  72.846  -1.213  -2.489  68.503
 Approx polarizability: 109.761   0.812 107.027  -1.691  -4.309 103.373

                      1                      2                      3
                      A                      A                      A
 Frequencies --    107.5673               185.5123               246.5307
 Red. masses --      3.2565                 2.0858                 2.7819
 Frc consts  --      0.0222                 0.0423                 0.0996
 IR Inten    --      0.3639                 0.7391                 5.6881

                      4                      5                      6
                      A                      A                      A
 Frequencies --    338.7320               374.1983               432.4680
 Red. masses --      2.8775                 2.3562                 2.3035
 Frc consts  --      0.1945                 0.1944                 0.2538
 IR Inten    --      1.4007                 3.2252                 2.1356

                      7                      8                      9
                      A                      A                      A
 Frequencies --    476.3574               624.3396               668.4937
 Red. masses --      4.8289                 2.4487                 3.6102
 Frc consts  --      0.6456                 0.5624                 0.9506
 IR Inten    --      0.4244                 1.2859                 8.2894

                     10                     11                     12
                      A                      A                      A
 Frequencies --    726.8833               787.4654               825.2324
 Red. masses --      3.4363                 2.4933                 2.1992
 Frc consts  --      1.0697                 0.9109                 0.8824
 IR Inten    --      2.9152                 6.8760                 1.3451

                     13                     14                     15
                      A                      A                      A
 Frequencies --    862.4281               897.9671               907.9197
 Red. masses --      2.8491                 2.0774                 2.2810
 Frc consts  --      1.2485                 0.9869                 1.1078
 IR Inten    --      9.4764                 2.5597                 6.1800

                     16                     17                     18
                      A                      A                      A
 Frequencies --    941.8608               960.6916               987.8179
 Red. masses --      1.9223                 2.1193                 4.2247
 Frc consts  --      1.0047                 1.1524                 2.4289
 IR Inten    --      2.5769                11.3402                26.7351

                     19                     20                     21
                      A                      A                      A
 Frequencies --   1009.4817              1027.7508              1068.5380
 Red. masses --      2.9260                 3.0211                 2.9173
 Frc consts  --      1.7568                 1.8801                 1.9625
 IR Inten    --     54.2650                41.6702                 4.4147

                     22                     23                     24
                      A                      A                      A
 Frequencies --   1079.3784              1098.1008              1125.4208
 Red. masses --      1.9505                 1.9690                 1.7003
 Frc consts  --      1.3389                 1.3989                 1.2689
 IR Inten    --     12.5692                 4.3431                 8.5200

                     25                     26                     27
                      A                      A                      A
 Frequencies --   1148.7145              1174.6593              1190.2158
 Red. masses --      1.7019                 1.3828                 1.6541
 Frc consts  --      1.3231                 1.1242                 1.3806
 IR Inten    --     19.7283                15.7971                 6.4627

                     28                     29                     30
                      A                      A                      A
 Frequencies --   1210.0161              1251.1593              1252.6438
 Red. masses --      1.4647                 1.6299                 1.4369
 Frc consts  --      1.2635                 1.5032                 1.3284
 IR Inten    --      9.6134                31.1092                20.3847

                     31                     32                     33
                      A                      A                      A
 Frequencies --   1267.5948              1287.0805              1298.6429
 Red. masses --      1.7144                 1.8164                 1.4510
 Frc consts  --      1.6230                 1.7729                 1.4418
 IR Inten    --     17.7968                 2.3880                16.2559

                     34                     35                     36
                      A                      A                      A
 Frequencies --   1318.9339              1337.7301              1365.0608
 Red. masses --      1.4313                 1.4446                 1.5238
 Frc consts  --      1.4670                 1.5232                 1.6729
 IR Inten    --     20.1652                 2.1882                 8.5017

                     37                     38                     39
                      A                      A                      A
 Frequencies --   1399.8687              1463.0457              1489.2798
 Red. masses --      1.7193                 1.1097                 1.0927
 Frc consts  --      1.9851                 1.3995                 1.4280
 IR Inten    --     19.0680                 4.7802                 2.7466

                     40                     41                     42
                      A                      A                      A
 Frequencies --   1516.7055              1520.3952              2991.4661
 Red. masses --      1.1005                 1.1135                 1.0711
 Frc consts  --      1.4915                 1.5166                 5.6473
 IR Inten    --      1.6803                 1.7386                46.2573

                     43                     44                     45
                      A                      A                      A
 Frequencies --   3010.8406              3047.0591              3055.9669
 Red. masses --      1.0560                 1.0633                 1.0612
 Frc consts  --      5.6403                 5.8166                 5.8391
 IR Inten    --     73.3548                22.8008                21.2954

                     46                     47                     48
                      A                      A                      A
 Frequencies --   3062.9750              3071.6978              3088.1879
 Red. masses --      1.1092                 1.0878                 1.0884
 Frc consts  --      6.1314                 6.0471                 6.1159
 IR Inten    --     32.7097                58.6726                14.2814

                     49                     50                     51
                      A                      A                      A
 Frequencies --   3099.7641              3109.9713              3118.6015
 Red. masses --      1.0965                 1.1015                 1.1031
 Frc consts  --      6.2075                 6.2769                 6.3209
 IR Inten    --     21.6384                41.5441                22.6764

 - Thermochemistry -
 -------------------
 Temperature   298.150 Kelvin.  Pressure   1.00000 Atm.
 Atom     1 has atomic number  6 and mass  12.00000

 Molecular mass:   126.06808 amu.
 Principal axes and moments of inertia in atomic units:
                           1         2         3
     Eigenvalues --   575.191801084.583211345.13336
           X            0.99965   0.02527  -0.00722
           Y           -0.02540   0.99950  -0.01868
           Z            0.00674   0.01886   0.99980
 This molecule is an asymmetric top.
 Rotational symmetry number  1.
 Warning -- assumption of classical behavior for rotation
           may cause significant error
 Rotational temperatures (Kelvin)      0.15058     0.07986     0.06439
 Rotational constants (GHZ):           3.13763     1.66400     1.34168
 Zero-point vibrational energy     424132.5 (Joules/Mol)
                                  101.37009 (Kcal/Mol)
 Warning -- explicit consideration of   7 degrees of freedom as
           vibrations may cause significant error
 Vibrational temperatures:    154.77   266.91   354.70   487.36   538.39
          (Kelvin)            622.22   685.37   898.28   961.81  1045.82
                             1132.99  1187.32  1240.84  1291.97  1306.29
                             1355.13  1382.22  1421.25  1452.42  1478.70
                             1537.39  1552.98  1579.92  1619.23  1652.74
                             1690.07  1712.45  1740.94  1800.14  1802.27
                             1823.78  1851.82  1868.46  1897.65  1924.69
                             1964.02  2014.10  2104.99  2142.74  2182.20
                             2187.51  4304.05  4331.92  4384.03  4396.85
                             4406.93  4419.48  4443.21  4459.86  4474.55
                             4486.97

 Zero-point correction=                           0.161544 (Hartree/Particle)
 Thermal correction to Energy=                    0.168591
 Thermal correction to Enthalpy=                  0.169535
 Thermal correction to Gibbs Free Energy=         0.130137
 Sum of electronic and zero-point Energies=           -422.997394
 Sum of electronic and thermal Energies=              -422.990347
 Sum of electronic and thermal Enthalpies=            -422.989403
 Sum of electronic and thermal Free Energies=         -423.028801

                     E (Thermal)             CV                S
                      KCal/Mol        Cal/Mol-Kelvin    Cal/Mol-Kelvin
 Total                  105.792             28.442             82.920
 Electronic               0.000              0.000              0.000
 Translational            0.889              2.981             40.409
 Rotational               0.889              2.981             28.219
 Vibrational            104.015             22.480             14.292
 Vibration     1          0.606              1.943              3.312
 Vibration     2          0.632              1.860              2.272
 Vibration     3          0.661              1.769              1.755
 Vibration     4          0.719              1.598              1.218
 Vibration     5          0.745              1.525              1.063
 Vibration     6          0.793              1.399              0.851
 Vibration     7          0.833              1.303              0.720

 Normal termination of Gaussian 09 at Mon Jan 27 13:02:12 2020.
