 Gaussian 09, Revision D.01,
 Gaussian 09:  ES64L-G09RevD.01 24-Apr-2013

 -----------------------------
 # b3lyp 6-31G(2df,p) opt Freq
 -----------------------------

 -----
 titel
 -----
 Symbolic Z-matrix:
 Charge =  0 Multiplicity = 1

 SCF Done:  E(RB3LYP) =  -423.127195242     A.U. after   13 cycles
 Optimization completed.
    -- Stationary point found.
 Normal termination of Gaussian 09 at Tue Jan 28 14:05:26 2020.

 ----------------------------------------------------------------------
 #N Geom=AllCheck Guess=TCheck SCRF=Check GenChk RB3LYP/6-31G(2df,p) Fr
 eq
 ----------------------------------------------------------------------

 Structure from the checkpoint file:  "/scratch/puck/g09_6e4e7cb4-7c7b-47a0-bddf-2232174f183f/Gau-10258.chk"
 -----
 titel
 -----
 Charge =  0 Multiplicity = 1

                         Standard orientation:
 ---------------------------------------------------------------------
 Center     Atomic      Atomic             Coordinates (Angstroms)
 Number     Number       Type             X           Y           Z
 ---------------------------------------------------------------------
      1          6           0       -2.745708   -0.211434   -0.430593
      2          8           0       -1.635576   -0.580248    0.363576
      3          6           0       -0.421516   -0.550958   -0.310810
      4          6           0        0.756678   -1.182619    0.497890
      5          8           0        0.822498    0.044611    1.279499
      6          6           0        0.527173    0.697255   -0.002325
      7          6           0        0.055714    2.117375    0.105355
      8          6           0        1.740746    0.289503   -0.845223
      9          6           0        1.898220   -0.995092   -0.506248
     10          1           0       -2.844553   -0.86      1           0       -2.682599    0.830836   -0.773749
     13          1           0       -0.529383   -0.845992   -1.363171
     14          1           0        0.656237   -2.095808    1.081666
     15          1           0       -0.128218    2.543139   -0.886303
     16          1           0       -0.867013    2.164229    0.689539
     17          1           0        0.810342    2.730827    0.607835
     18          1           0        2.267090    0.900484   -1.564830
     19          1           0        2.590721   -1.742844   -0.863774
 ---------------------------------------------------------------------

 SCF Done:  E(RB3LYP) =  -423.127195242     A.U. after    1 cycles

 The electronic state is 1-A.
 Alpha  occ. eigenvalues --  -19.14771 -19.12124 -10.23963 -10.23796 -10.23498
 Alpha  occ. eigenvalues --  -10.23008 -10.18438 -10.18308 -10.17958  -1.05859
 Alpha  occ. eigenvalues --   -1.02434  -0.80313  -0.75090  -0.72555  -0.65767
 Alpha  occ. eigenvalues --   -0.64251  -0.55124  -0.54124  -0.50122  -0.49256
 Alpha  occ. eigenvalues --   -0.46884  -0.46257  -0.42999  -0.42134  -0.41013
 Alpha  occ. eigenvalues --   -0.38085  -0.37761  -0.35069  -0.34705  -0.33974
 Alpha  occ. eigenvalues --   -0.30704  -0.25876  -0.24304  -0.23469
 Alpha virt. eigenvalues --    0.00381   0.08618   0.10628   0.12132   0.12430
 Alpha virt. eigenvalues --    0.13839   0.14316   0.15098   0.16022   0.16463
 Alpha virt. eigenvalues --    0.17639   0.17920   0.18157   0.19095   0.21926

 Mulliken charges:
               1
     1  C   -0.247448
     2  O   -0.251012
     3  C    0.148854
     4  C   -0.036869
     5  O   -0.314862
     6  C    0.335026
     7  C   -0.522449
     8  C   -0.128265
     9  C   -0.092183
    10  H    0.109988
    11  H    0.132810
    12  H    0.110886
    13  H    0.064354
    14  H    0.082766
    15  H    0.117174
    16  H    0.138100
    17  H    0.135459
    18  H    0.107244
    19  H    0.110428
 Sum of Mulliken charges =   0.00000

 Dipole moment (field-independent basis, Debye):
    X=             -0.7184    Y=              0.0819    Z=             -2.6202  Tot=              2.7181
 Quadrupole moment (field-independent basis, Debye-Ang):
   XX=            -50.0444   YY=            -49.2589   ZZ=            -55.9207
   XY=             -1.5792   XZ=             -0.6310   YZ=             -0.6665

  Exact polarizability:  85.220  -3.390  81.181  -3.762  -2.621  63.118
 Approx polarizability: 111.735  -4.099 124.865  -5.002  -7.277 10 Full mass-weighted force constant matrix:

                      1                      2                      3
                      A                      A                      A
 Frequencies --     81.4082               151.8144               181.5677
 Red. masses --      2.4944                 1.3974                 2.2201
 Frc consts  --      0.0097                 0.0190                 0.0431
 IR Inten    --      3.1055                 0.0690                 0.6088

                      4                      5                      6
                      A                      A                      A
 Frequencies --    207.3656               215.5786               306.7419
 Red. masses --      1.0977                 2.6116                 2.6152
 Frc consts  --      0.0278                 0.0715                 0.1450
 IR Inten    --      0.2728                 2.0519                 3.6921

                      7                      8                      9
                      A                      A                      A
 Frequencies --    363.5877               393.2960               477.0860
 Red. masses --      3.3876                 3.8892                 3.3488
 Frc consts  --      0.2638                 0.3544                 0.4491
 IR Inten    --      5.0481                 0.0931                 4.0952

                     10                     11                     12
                      A                      A                      A
 Frequencies --    548.4806               639.2619               648.0598
 Red. masses --      2.9532                 2.9692                 4.0601
 Frc consts  --      0.5234                 0.7149                 1.0047
 IR Inten    --      3.2391                 4.1447                 3.8076

                     13                     14                     15
                      A                      A                      A
 Frequencies --    718.3422               740.3541               820.9872
 Red. masses --      1.9779                 4.3026                 2.9309
 Frc consts  --      0.6013                 1.3895                 1.1639
 IR Inten    --     35.6222                 2.8214                17.5512

                     16                     17                     18
                      A                      A                      A
 Frequencies --    872.7143               884.8926               901.7160
 Red. masses --      1.9900                 2.6763                 1.6568
 Frc consts  --      0.8930                 1.2347                 0.7937
 IR Inten    --      3.1405                 9.5418                11.4043

                     19                     20                     21
                      A                      A                      A
 Frequencies --    914.0142               944.4756              1018.1804
 Red. masses --      2.2659                 4.2816                 2.9785
 Frc consts  --      1.1153                 2.2503                 1.8193
 IR Inten    --     18.1178                13.7291                 9.3416

                     22                     23                     24
                      A                      A                      A
 Frequencies --   1026.8556              1068.4619              1110.3673
 Red. masses --      3.1512                 1.4481                 1.8450
 Frc consts  --      1.9577                 0.9740                 1.3403
 IR Inten    --     16.8464                 5.0112                 8.9258

                     25                     26                     27
                      A                      A                      A
 Frequencies --   1145.4274              1153.4237              1182.2890
 Red. masses --      1.9482                 2.6149                 1.3011
 Frc consts  --      1.5060                 2.0496                 1.0715
 IR Inten    --     41.4733               141.0410                 9.8666

                     28                     29                     30
                      A                      A                      A
 Frequencies --   1192.2845              1206.8119              1235.7782
 Red. masses --      1.4635                 1.6279                 1.9358
 Frc consts  --      1.2258                 1.3969                 1.7418
 IR Inten    --      7.1811                13.6517               100.1193

                     31                     32                     33
                      A                      A                      A
 Frequencies --   1263.6204              1296.6684              1340.0002
 Red. masses --      1.5913                 1.7775                 2.3752
 Frc consts  --      1.4971                 1.7608                 2.5128
 IR Inten    --     11.3572                 4.9115                17.0964

                     34                     35                     36
                      A                      A                      A
 Frequencies --   1387.1777              1412.6284              1475.7560
 Red. masses --      1.2758                 1.5805                 1.0505
 Frc consts  --      1.4464                 1.8583                 1.3480
 IR Inten    --     40.6813                13.3748                 4.4714

                     37                     38                     39
                      A                      A                      A
 Frequencies --   1483.2734              1490.5812              1496.9741
 Red. masses --      1.1155                 1.0830                 1.0470
 Frc consts  --      1.4460                 1.4177                 1.3824
 IR Inten    --      3.2407                 2.3639                 5.5612

                     40                     41                     42
                      A                      A                      A
 Frequencies --   1509.2136              1606.2382              2984.0767
 Red. masses --      1.0638                 6.0791                 1.0375
 Frc consts  --      1.4276                 9.2408                 5.4430
 IR Inten    --      6.2708                 0.6112                49.5944

                     43                     44                     45
                      A                      A                      A
 Frequencies --   3018.6210              3036.6072              3039.9514
 Red. masses --      1.0844                 1.0949                 1.0427
 Frc consts  --      5.8220                 5.9482                 5.6772
 IR Inten    --     59.2245                28.3107                34.0993

                     46                     47                     48
                      A                      A                      A
 Frequencies --   3108.3677              3121.0804              3122.2104
 Red. masses --      1.1009                 1.0978                 1.1007
 Frc consts  --      6.2671                 6.3005                 6.3217
 IR Inten    --     14.1104                36.9591                 1.2851

                     49                     50                     51
                      A                      A                      A
 Frequencies --   3144.7210              3224.0143              3252.0426
 Red. masses --      1.0918                 1.0871                 1.1104
 Frc consts  --      6.3616                 6.6575                 6.9192
 IR Inten    --     32.0635                 3.2492                 7.3544

 - Thermochemistry -
 -------------------
 Temperature   298.150 Kelvin.  Pressure   1.00000 Atm.
 Atom     1 has atomic number  6 and mass  12.00000

 Molecular mass:   126.06808 amu.
 Principal axes and moments of inertia in atomic units:
                           1         2         3
     Eigenvalues --   659.607591197.572111452.99417
           X            0.99990  -0.01388   0.00404
           Y            0.01387   0.99990   0.00262
           Z           -0.00408  -0.00257   0.99999
 This molecule is an asymmetric top.
 Rotational symmetry number  1.
 Warning -- assumption of classical behavior for rotation
           may cause significant error
 Rotational temperatures (Kelvin)      0.13131     0.07232     0.05961
 Rotational constants (GHZ):           2.73608     1.50700     1.24208
 Zero-point vibrational energy     413701.3 (Joules/Mol)
                                   98.87697 (Kcal/Mol)
 Warning -- explicit consideration of  10 degrees of freedom as
           vibrations may cause significant error
 Vibrational temperatures:    117.13   218.43   261.24   298.35   310.17
          (Kelvin)            441.33   523.12   565.86   686.42   789.14
                              919.75   932.41  1033.53  1065.20  1181.22
                             1255.64  1273.16  1297.37  1315.06  1358.89
                             1464.93  1477.41  1537.28  1597.57  1648.01
                             1659.52  1701.05  1715.43  1736.33  1778.01
                             1818.07  1865.61  1927.96  1995.84  2032.45
                             2123.28  2134.10  2144.61  2153.81  2171.42
                             2311.02  4293.42  4343.12  4369.00  4373.81
                             4472.24  4490.53  4492.16  4524.55  4638.63
                             4678.96

 Zero-point correction=                           0.157570 (Hartree/Particle)
 Thermal correction to Energy=                    0.166119
 Thermal correction to Enthalpy=                  0.167063
 Thermal correction to Gibbs Free Energy=         0.124537
 Sum of electronic and zero-point Energies=           -422.969625
 Sum of electronic and thermal Energies=              -422.961076
 Sum of electronic and thermal Enthalpies=            -422.960132
 Sum of electronic and thermal Free Energies=         -423.002658

                     E (Thermal)             CV                S
                      KCal/Mol        Cal/Mol-Kelvin    Cal/Mol-Kelvin
 Total                  104.241             32.673             89.503
 Electronic               0.000              0.000              0.000
 Translational            0.889              2.981             40.409
 Rotational               0.889              2.981             28.531
 Vibrational            102.464             26.711             20.564
 Vibration     1          0.600              1.962              3.857
 Vibration     2          0.619              1.901              2.649
 Vibration     3          0.630              1.865              2.312
 Vibration     4          0.641              1.829              2.067
 Vibration     5          0.645              1.817              1.996
 Vibration     6          0.697              1.661              1.380
 Vibration     7          0.737              1.547              1.107
 Vibration     8          0.760              1.485              0.988
 Vibration     9          0.834              1.301              0.718
 Vibration    10          0.904              1.143              0.547

 Normal termination of Gaussian 09 at Tue Jan 28 14:59:02 2020.
 Normal termination of Gaussian 09 at Tue Jan 28 14:54:32 2020.
