 Gaussian 09, Revision D.01,
 Gaussian 09:  ES64L-G09RevD.01 24-Apr-2013

 -----------------------------
 # b3lyp 6-31G(2df,p) opt Freq
 -----------------------------

 -----
 titel
 -----
 Symbolic Z-matrix:
 Charge =  0 Multiplicity = 1

 SCF Done:  E(RB3LYP) =  -423.180248270     A.U. after   13 cycles
 Optimization completed.
    -- Stationary point found.
 Normal termination of Gaussian 09 at Mon Jan 27 11:53:05 2020.

 ----------------------------------------------------------------------
 #N Geom=AllCheck Guess=TCheck SCRF=Check GenChk RB3LYP/6-31G(2df,p) Fr
 eq
 ----------------------------------------------------------------------

 Structure from the checkpoint file:  "/scratch/puck/g09_561e41c6-8877-4a95-b229-5d09ca1809f9/Gau-96343.chk"
 -----
 titel
 -----
 Charge =  0 Multiplicity = 1

                         Standard orientation:
 ---------------------------------------------------------------------
 Center     Atomic      Atomic             Coordinates (Angstroms)
 Number     Number       Type             X           Y           Z
 ---------------------------------------------------------------------
      1          6           0        2.006336   -0.633796   -0.724053
      2          6           0        2.313169    0.239053    0.472441
      3          6           0        0.903132    0.103116   -0.027168
      4          6           0        0.094605    1.264750   -0.636590
      5          6           0       -1.304925    0.929830   -0.070794
      6          6           0       -1.826325   -0.361035   -0.736400
      7          8           0       -1.005154   -1.364676   -0.115997
      8          6           0       -0.170662   -0.627307    0.776764
      9          8           0       -0.992848    0.426719    1.242002
     10          1           0        2.314653   -0.285684   -1.704542
     11          1           0        2.054230   -1.711176   -0.602246
     12          1           0        2.580116   -0.244584    1.407198
     13          1           0        2.821263    1.182984    0.301507
     14          1           0        0.434702    2.235991   -0.266618
     15          1           0        0.112343    1.282401   -1.729998
     16          1           0       -2.015111    1.752273   -0.004453
     17          1           0       -2.879351   -0.553374   -0.502209
     18          1           0       -1.688083   -0.369762   -1.823225
     19          1           0        0.157273   -1.273078    1.591354
 ---------------------------------------------------------------------

 SCF Done:  E(RB3LYP) =  -423.180248270     A.U. after    1 cycles

 The electronic state is 1-A.
 Alpha  occ. eigenvalues --  -19.14503 -19.13663 -10.27277 -10.23964 -10.22803
 Alpha  occ. eigenvalues --  -10.19582 -10.18961 -10.18650 -10.18570  -1.09173
 Alpha  occ. eigenvalues --   -0.98591  -0.86229  -0.77548  -0.72128  -0.62996
 Alpha  occ. eigenvalues --   -0.60551  -0.59789  -0.55936  -0.52451  -0.50098
 Alpha  occ. eigenvalues --   -0.46334  -0.45752  -0.44610  -0.41464  -0.39663
 Alpha  occ. eigenvalues --   -0.39106  -0.36809  -0.36353  -0.33891  -0.32632
 Alpha  occ. eigenvalues --   -0.29588  -0.29147  -0.26749  -0.24645
 Alpha virt. eigenvalues --    0.08927   0.09180   0.10426   0.10775   0.12549
 Alpha virt. eigenvalues --    0.13915   0.14956   0.15506   0.15867   0.17261
 Alpha virt. eigenvalues --    0.17680   0.19113   0.19600   0.22055   0.22920

 Mulliken charges:
               1
     1  C   -0.318941
     2  C   -0.329697
     3  C    0.401483
     4  C   -0.329307
     5  C    0.040015
     6  C   -0.082723
     7  O   -0.269593
     8  C    0.080492
     9  O   -0.247200
    10  H    0.111434
    11  H    0.119589
    12  H    0.113353
    13  H    0.110998
    14  H    0.109851
    15  H    0.104441
    16  H    0.088966
    17  H    0.106766
    18  H    0.101632
    19  H    0.088442
 Sum of Mulliken charges =   0.00000

 Dipole moment (field-independent basis, Debye):
    X=              0.4854    Y=              1.2221    Z=             -1.1988  Tot=              1.7794
 Quadrupole moment (field-independent basis, Debye-Ang):
   XX=            -51.7053   YY=            -53.7294   ZZ=            -53.3009
   XY=             -2.0758   XZ=              2.7949   YZ=             -2.7497

  Exact polarizability:  83.764  -1.938  69.171   3.809  -1.525  67.995
 Approx polarizability: 108.744  -3.156 104.483   4.148  -0.564 105.936

                      1                      2                      3
                      A                      A                      A
 Frequencies --    102.3474               224.1461               266.5369
 Red. masses --      3.0211                 3.0002                 2.4040
 Frc consts  --      0.0186                 0.0888                 0.1006
 IR Inten    --      0.3532                 1.7230                 1.5105

                      4                      5                      6
                      A                      A                      A
 Frequencies --    300.8932               388.5936               472.7879
 Red. masses --      2.6073                 1.9070                 4.0122
 Frc consts  --      0.1391                 0.1697                 0.5284
 IR Inten    --      0.9387                 0.2030                 4.4654

                      7                      8                      9
                      A                      A                      A
 Frequencies --    526.1722               582.3508               726.3814
 Red. masses --      3.8204                 5.0816                 5.1455
 Frc consts  --      0.6232                 1.0154                 1.5996
 IR Inten    --      2.1642                11.2084                 2.5245

                     10                     11                     12
                      A                      A                      A
 Frequencies --    774.1224               807.3545               831.7271
 Red. masses --      1.0606                 5.7267                 2.8548
 Frc consts  --      0.3745                 2.1993                 1.1636
 IR Inten    --      0.1033                 1.1835                 1.2586

                     13                     14                     15
                      A                      A                      A
 Frequencies --    859.1057               883.2769               901.0690
 Red. masses --      3.0426                 1.8946                 2.8333
 Frc consts  --      1.3231                 0.8709                 1.3554
 IR Inten    --      2.7136                14.6084                51.8747

                     16                     17                     18
                      A                      A                      A
 Frequencies --    939.2550               948.0428               957.3524
 Red. masses --      2.0908                 2.2394                 1.6375
 Frc consts  --      1.0868                 1.1859                 0.8842
 IR Inten    --     51.9544                 7.6523                13.9167

                     19                     20                     21
                      A                      A                      A
 Frequencies --    970.3221               985.3718              1009.2300
 Red. masses --      3.1849                 3.5974                 3.0139
 Frc consts  --      1.7667                 2.0580                 1.8087
 IR Inten    --     24.7166                38.2713                 8.7118

                     22                     23                     24
                      A                      A                      A
 Frequencies --   1033.9114              1059.0249              1077.5942
 Red. masses --      1.9864                 1.4635                 1.4551
 Frc consts  --      1.2511                 0.9671                 0.9955
 IR Inten    --     17.6973                 3.3613                 0.3597

                     25                     26                     27
                      A                      A                      A
 Frequencies --   1093.9343              1099.6793              1177.4146
 Red. masses --      1.8858                 4.7456                 1.2327
 Frc consts  --      1.3296                 3.3812                 1.0068
 IR Inten    --     18.3339                90.2900                 7.7531

                     28                     29                     30
                      A                      A                      A
 Frequencies --   1186.0192              1192.4240              1245.0692
 Red. masses --      1.3008                 1.1277                 1.8226
 Frc consts  --      1.0780                 0.9447                 1.6647
 IR Inten    --      0.0989                 1.8713                 3.7527

                     31                     32                     33
                      A                      A                      A
 Frequencies --   1256.0162              1286.0573              1288.7004
 Red. masses --      1.4861                 1.4286                 1.5993
 Frc consts  --      1.3813                 1.3921                 1.5649
 IR Inten    --      9.7670                 0.6931                11.9783

                     34                     35                     36
                      A                      A                      A
 Frequencies --   1320.8036              1329.4549              1373.4099
 Red. masses --      1.6621                 1.5036                 1.4120
 Frc consts  --      1.7083                 1.5658                 1.5693
 IR Inten    --      1.5873                 5.9293                 3.1067

                     37                     38                     39
                      A                      A                      A
 Frequencies --   1395.0603              1468.5077              1489.5262
 Red. masses --      2.2053                 1.0862                 1.1005
 Frc consts  --      2.5287                 1.3801                 1.4386
 IR Inten    --     10.2883                 1.7174                 3.6510

                     40                     41                     42
                      A                      A                      A
 Frequencies --   1506.7515              1521.0350              3029.6160
 Red. masses --      1.4768                 1.0947                 1.0560
 Frc consts  --      1.9754                 1.4922                 5.7104
 IR Inten    --      0.0520                 1.4626                58.4604

                     43                     44                     45
                      A                      A                      A
 Frequencies --   3053.4351              3073.9248              3100.9684
 Red. masses --      1.0591                 1.1103                 1.1070
 Frc consts  --      5.8177                 6.1812                 6.2720
 IR Inten    --     23.0634                35.4786                20.7428

                     46                     47                     48
                      A                      A                      A
 Frequencies --   3120.6781              3126.9826              3129.7903
 Red. masses --      1.0525                 1.0596                 1.0873
 Frc consts  --      6.0389                 6.1047                 6.2755
 IR Inten    --     17.1760                11.3515                34.9372

                     49                     50                     51
                      A                      A                      A
 Frequencies --   3140.9967              3198.7690              3214.2605
 Red. masses --      1.0917                 1.1178                 1.1155
 Frc consts  --      6.3461                 6.7385                 6.7902
 IR Inten    --     22.1805                 0.9432                16.0356

 - Thermochemistry -
 -------------------
 Temperature   298.150 Kelvin.  Pressure   1.00000 Atm.
 Atom     1 has atomic number  6 and mass  12.00000

 Molecular mass:   126.06808 amu.
 Principal axes and moments of inertia in atomic units:
                           1         2         3
     Eigenvalues --   562.519881149.187091234.91401
           X            0.99976  -0.00857   0.02018
           Y            0.01058   0.99475  -0.10177
           Z           -0.01920   0.10196   0.99460
 This molecule is an asymmetric top.
 Rotational symmetry number  1.
 Warning -- assumption of classical behavior for rotation
           may cause significant error
 Rotational temperatures (Kelvin)      0.15397     0.07537     0.07014
 Rotational constants (GHZ):           3.20832     1.57045     1.46143
 Zero-point vibrational energy     424951.0 (Joules/Mol)
                                  101.56572 (Kcal/Mol)
 Warning -- explicit consideration of   8 degrees of freedom as
           vibrations may cause significant error
 Vibrational temperatures:    147.25   322.50   383.49   432.92   559.10
          (Kelvin)            680.24   757.04   837.87  1045.10  1113.79
                             1161.60  1196.67  1236.06  1270.84  1296.44
                             1351.38  1364.02  1377.41  1396.08  1417.73
                             1452.06  1487.57  1523.70  1550.42  1573.93
                             1582.19  1694.03  1706.42  1715.63  1791.37
                             1807.12  1850.35  1854.15  1900.34  1912.79
                             1976.03  2007.18  2112.85  2143.09  2167.88
                             2188.43  4358.94  4393.21  4422.69  4461.60
                             4489.95  4499.02  4503.06  4519.19  4602.31
                             4624.60

 Zero-point correction=                           0.161855 (Hartree/Particle)
 Thermal correction to Energy=                    0.168825
 Thermal correction to Enthalpy=                  0.169769
 Thermal correction to Gibbs Free Energy=         0.130580
 Sum of electronic and zero-point Energies=           -423.018393
 Sum of electronic and thermal Energies=              -423.011423
 Sum of electronic and thermal Enthalpies=            -423.010479
 Sum of electronic and thermal Free Energies=         -423.049668

                     E (Thermal)             CV                S
                      KCal/Mol        Cal/Mol-Kelvin    Cal/Mol-Kelvin
 Total                  105.939             28.589             82.481
 Electronic               0.000              0.000              0.000
 Translational            0.889              2.981             40.409
 Rotational               0.889              2.981             28.170
 Vibrational            104.162             22.627             13.902
 Vibration     1          0.604              1.947              3.409
 Vibration     2          0.649              1.804              1.925
 Vibration     3          0.672              1.734              1.619
 Vibration     4          0.693              1.672              1.412
 Vibration     5          0.757              1.495              1.006
 Vibration     6          0.830              1.310              0.730
 Vibration     7          0.881              1.192              0.596
 Vibration     8          0.939              1.069              0.481

 Optimization completed.
    -- Stationary point found.
 Normal termination of Gaussian 09 at Mon Jan 27 12:37:55 2020.
