 Gaussian 09, Revision D.01,
 Gaussian 09:  ES64L-G09RevD.01 24-Apr-2013

 -----------------------------
 # b3lyp 6-31G(2df,p) opt Freq
 -----------------------------

 -----
 titel
 -----
 Symbolic Z-matrix:
 Charge =  0 Multiplicity = 1

 SCF Done:  E(RB3LYP) =  -423.121868227     A.U. after   14 cycles
 Optimization completed.
    -- Stationary point found.
 Normal termination of Gaussian 09 at Tue Jan 28 08:08:31 2020.

 ----------------------------------------------------------------------
 #N Geom=AllCheck Guess=TCheck SCRF=Check GenChk RB3LYP/6-31G(2df,p) Fr
 eq
 ----------------------------------------------------------------------

 Structure from the checkpoint file:  "/scratch/puck/g09_7f727072-09a8-491c-a5f1-a658a484feb2/Gau-127794.chk"
 -----
 titel
 -----
 Charge =  0 Multiplicity = 1

                         Standard orientation:
 ---------------------------------------------------------------------
 Center     Atomic      Atomic             Coordinates (Angstroms)
 Number     Number       Type             X           Y           Z
 ---------------------------------------------------------------------
      1          8           0        4.277098   -0.154851   -0.313440
      2          6           0        3.254290    0.592332    0.331244
      3          6           0        1.920204    0.012363    0.173164
      4          6           0        0.836380   -0.482238   -0.009343
      5          6           0       -0.494862   -1.051839   -0.190132
      6          6           0       -1.581139   -0.241729    0.529540
      7          6           0       -3.038288   -0.604835    0.167286
      8          8           0       -3.247531    0.670738   -0.469376
      9          6           0       -1.931467    1.127998   -0.091712
     10          1           0        3.999900   -0.293261   -1.225095
     11          1           0        3.531433    0.619670    1.391023
     12          1           0        3.241143    1.637210   -0.018651
     13          1           0       -0.736094   -1.101283   -1.260745
     14          1           0       -0.511219   -2.086852    0.176484
     15          1           0       -1.371232   -0.210453    1.600326
     16          1           0       -3.162403   -1.442016   -0.532660
     17          1           0       -3.712498   -0.754796    1.020122
     18          1           0       -1.329894    1.423842   -0.960303
     19          1           0       -1.976370    1.968528    0.611753
 ---------------------------------------------------------------------

 SCF Done:  E(RB3LYP) =  -423.121868227     A.U. after    1 cycles

 The electronic state is 1-A.
 Alpha  occ. eigenvalues --  -19.14142 -19.13228 -10.25279 -10.23311 -10.23098
 Alpha  occ. eigenvalues --  -10.21630 -10.20402 -10.18360 -10.17730  -1.03785
 Alpha  occ. eigenvalues --   -1.02305  -0.81205  -0.75865  -0.70780  -0.69316
 Alpha  occ. eigenvalues --   -0.66296  -0.55806  -0.53301  -0.51005  -0.48658
 Alpha  occ. eigenvalues --   -0.47971  -0.46369  -0.44511  -0.43328  -0.42364
 Alpha  occ. eigenvalues --   -0.40174  -0.37702  -0.35609  -0.32799  -0.30670
 Alpha  occ. eigenvalues --   -0.28741  -0.26359  -0.25548  -0.24869
 Alpha virt. eigenvalues --    0.02647   0.04905   0.08483   0.08939   0.10083
 Alpha virt. eigenvalues --    0.11749   0.12804   0.13240   0.14364   0.16209
 Alpha virt. eigenvalues --    0.16488   0.18028   0.18571   0.19945   0.21073

 Mulliken charges:
               1
     1  O   -0.401502
     2  C   -0.190534
     3  C    0.093814
     4  C    0.014199
     5  C   -0.374955
     6  C   -0.015395
     7  C   -0.090774
     8  O   -0.270701
     9  C   -0.071463
    10  H    0.287180
    11  H    0.139367
    12  H    0.116630
    13  H    0.133027
    14  H    0.132083
    15  H    0.091562
    16  H    0.099484
    17  H    0.100215
    18  H    0.105441
    19  H    0.102321
 Sum of Mulliken charges =   0.00000

 Dipole moment (field-independent basis, Debye):
    X=             -0.1979    Y=             -0.3998    Z=              0.1592  Tot=              0.4736
 Quadrupole moment (field-independent basis, Debye-Ang):
   XX=            -67.0755   YY=            -51.3828   ZZ=            -50.0828
   XY=              7.0473   XZ=             -5.6371   YZ=              1.5759

  Exact polarizability: 109.295  11.547  70.553   0.551   2.500  62.281
 Approx polarizability: 143.749  20.473 103.520   5.629   4.081  94.194

                      1                      2                      3
                      A                      A                      A
 Frequencies --      6.1293                48.4377                57.1193
 Red. masses --      3.3918                 3.5790                 4.2033
 Frc consts  --      0.0001                 0.0049                 0.0081
 IR Inten    --      2.6714                 3.7918                 1.9106

                      4                      5                      6
                      A                      A                      A
 Frequencies --     87.1255               158.7508               201.8489
 Red. masses --      3.1971                 4.9758                 2.3587
 Frc consts  --      0.0143                 0.0739                 0.0566
 IR Inten    --      1.7157                 0.5241                 7.2889

                      7                      8                      9
                      A                      A                      A
 Frequencies --    296.2936               313.0594               365.7836
 Red. masses --      2.5836                 1.4079                 2.3219
 Frc consts  --      0.1336                 0.0813                 0.1830
 IR Inten    --      6.7646               111.5612                 0.5731

                     10                     11                     12
                      A                      A                      A
 Frequencies --    392.3154               496.4645               547.8739
 Red. masses --      2.9692                 4.3083                 6.4829
 Frc consts  --      0.2693                 0.6257                 1.1465
 IR Inten    --      8.8124                 5.2785                 5.7770

                     13                     14                     15
                      A                      A                      A
 Frequencies --    776.8816               786.1977               867.0625
 Red. masses --      3.8240                 3.4094                 3.0377
 Frc consts  --      1.3598                 1.2416                 1.3455
 IR Inten    --      6.1465                 4.1586                12.9396

                     16                     17                     18
                      A                      A                      A
 Frequencies --    889.0303               889.5410               973.1220
 Red. masses --      1.5807                 1.3210                 3.4999
 Frc consts  --      0.7361                 0.6159                 1.9527
 IR Inten    --      2.8800                 2.5472                23.1706

                     19                     20                     21
                      A                      A                      A
 Frequencies --    989.2825              1037.9782              1045.2798
 Red. masses --      1.6089                 6.1337                 6.8369
 Frc consts  --      0.9277                 3.8936                 4.4013
 IR Inten    --     31.5461                76.9905                71.9442

                     22                     23                     24
                      A                      A                      A
 Frequencies --   1055.3645              1095.6364              1135.8819
 Red. masses --      2.9219                 2.5790                 1.8001
 Frc consts  --      1.9175                 1.8240                 1.3684
 IR Inten    --     25.9653                 5.9953                 3.5927

                     25                     26                     27
                      A                      A                      A
 Frequencies --   1153.9826              1159.1629              1163.3320
 Red. masses --      3.1751                 1.1391                 1.1202
 Frc consts  --      2.4912                 0.9018                 0.8932
 IR Inten    --     12.5374                 0.4651                 0.3046

                     28                     29                     30
                      A                      A                      A
 Frequencies --   1215.4451              1239.0157              1267.5388
 Red. masses --      1.0855                 1.3127                 1.3632
 Frc consts  --      0.9449                 1.1873                 1.2904
 IR Inten    --     16.5501                 0.8279                 3.2211

                     31                     32                     33
                      A                      A                      A
 Frequencies --   1310.2157              1325.5140              1358.9226
 Red. masses --      1.2744                 1.4542                 1.2150
 Frc consts  --      1.2890                 1.5054                 1.3219
 IR Inten    --      1.7931                23.7152                 3.2841

                     34                     35                     36
                      A                      A                      A
 Frequencies --   1369.2135              1392.7933              1419.4624
 Red. masses --      1.3863                 1.5752                 1.2355
 Frc consts  --      1.5313                 1.8003                 1.4667
 IR Inten    --      3.1522                 1.4360               105.0017

                     37                     38                     39
                      A                      A                      A
 Frequencies --   1474.0194              1493.8966              1514.1399
 Red. masses --      1.0876                 1.0792                 1.0801
 Frc consts  --      1.3922                 1.4190                 1.4590
 IR Inten    --      3.5949                 0.7723                 1.3461

                     40                     41                     42
                      A                      A                      A
 Frequencies --   1539.0805              2360.7348              2973.9312
 Red. masses --      1.1101                11.8503                 1.0715
 Frc consts  --      1.5493                38.9112                 5.5837
 IR Inten    --      1.0010                 8.3549                47.7608

                     43                     44                     45
                      A                      A                      A
 Frequencies --   3001.8604              3010.4682              3017.1091
 Red. masses --      1.0536                 1.0578                 1.0577
 Frc consts  --      5.5939                 5.6481                 5.6727
 IR Inten    --     96.7195                50.5226                 4.7555

                     46                     47                     48
                      A                      A                      A
 Frequencies --   3041.9467              3044.7687              3055.2623
 Red. masses --      1.1008                 1.1100                 1.1101
 Frc consts  --      6.0015                 6.0629                 6.1056
 IR Inten    --     11.1756                41.7194                29.5003

                     49                     50                     51
                      A                      A                      A
 Frequencies --   3060.8349              3095.4697              3817.2306
 Red. masses --      1.0882                 1.0889                 1.0663
 Frc consts  --      6.0069                 6.1475                 9.1540
 IR Inten    --     19.3416                39.6242                20.8437

 - Thermochemistry -
 -------------------
 Temperature   298.150 Kelvin.  Pressure   1.00000 Atm.
 Atom     1 has atomic number  8 and mass  15.99491

 Molecular mass:   126.06808 amu.
 Principal axes and moments of inertia in atomic units:
                           1         2         3
     Eigenvalues --   310.171713294.378243452.80075
           X            0.99992   0.01208  -0.00347
           Y           -0.01195   0.99923   0.03731
           Z            0.00391  -0.03726   0.99930
 This molecule is an asymmetric top.
 Rotational symmetry number  1.
 Rotational temperatures (Kelvin)      0.27924     0.02629     0.02509
 Rotational constants (GHZ):           5.81852     0.54782     0.52269
 Zero-point vibrational energy     415031.3 (Joules/Mol)
                                   99.19486 (Kcal/Mol)
 Warning -- explicit consideration of  12 degrees of freedom as
           vibrations may cause significant error
 Vibrational temperatures:      8.82    69.69    82.18   125.35   228.41
          (Kelvin)            290.42   426.30   450.42   526.28   564.45
                              714.30   788.27  1117.76  1131.16  1247.51
                             1279.11  1279.85  1400.10  1423.36  1493.42
                             1503.92  1518.43  1576.37  1634.28  1660.32
                             1667.77  1673.77  1748.75  1782.66  1823.70
                             1885.11  1907.12  1955.18  1969.99  2003.92
                             2042.29  2120.78  2149.38  2178.51  2214.39
                             3396.57  4278.82  4319.00  4331.39  4340.94
                             4376.68  4380.74  4395.84  4403.85  4453.68
                             5492.14

 Zero-point correction=                           0.158077 (Hartree/Particle)
 Thermal correction to Energy=                    0.168086
 Thermal correction to Enthalpy=                  0.169030
 Thermal correction to Gibbs Free Energy=         0.119217
 Sum of electronic and zero-point Energies=           -422.963791
 Sum of electronic and thermal Energies=              -422.953783
 Sum of electronic and thermal Enthalpies=            -422.952838
 Sum of electronic and thermal Free Energies=         -423.002652

                     E (Thermal)             CV                S
                      KCal/Mol        Cal/Mol-Kelvin    Cal/Mol-Kelvin
 Total                  105.475             33.875            104.841
 Electronic               0.000              0.000              0.000
 Translational            0.889              2.981             40.409
 Rotational               0.889              2.981             29.646
 Vibrational            103.698             27.914             34.786
 Vibration     1          0.593              1.987              8.984
 Vibration     2          0.595              1.978              4.880
 Vibration     3          0.596              1.975              4.554
 Vibration     4          0.601              1.958              3.724
 Vibration     5          0.621              1.893              2.565
 Vibration     6          0.639              1.837              2.116
 Vibration     7          0.690              1.681              1.438
 Vibration     8          0.701              1.649              1.346
 Vibration     9          0.739              1.543              1.097
 Vibration    10          0.760              1.487              0.991
 Vibration    11          0.852              1.258              0.667
 Vibration    12          0.903              1.144              0.549

 Normal termination of Gaussian 09 at Tue Jan 28 08:41:09 2020.
