 Gaussian 09, Revision D.01,
 Gaussian 09:  ES64L-G09RevD.01 24-Apr-2013

 -----------------------------
 # b3lyp 6-31G(2df,p) opt Freq
 -----------------------------

 -----
 titel
 -----
 Symbolic Z-matrix:
 Charge =  0 Multiplicity = 1

 SCF Done:  E(RB3LYP) =  -423.117846501     A.U. after   14 cycles
 Optimization completed.
    -- Stationary point found.
 Normal termination of Gaussian 09 at Tue Jan 28 02:57:14 2020.

 ----------------------------------------------------------------------
 #N Geom=AllCheck Guess=TCheck SCRF=Check GenChk RB3LYP/6-31G(2df,p) Fr
 eq
 ----------------------------------------------------------------------

 Structure from the checkpoint file:  "/scratch/puck/g09_ba0b9fd8-7a1f-432b-b5f3-56b143724551/Gau-89742.chk"
 -----
 titel
 -----
 Charge =  0 Multiplicity = 1

                         Standard orientation:
 ---------------------------------------------------------------------
 Center     Atomic      Atomic             Coordinates (Angstroms)
 Number     Number       Type             X           Y           Z
 ---------------------------------------------------------------------
      1          6           0        2.465076   -0.489153   -0.377969
      2          6           0        0.954421   -0.579377   -0.463610
      3          8           0        0.408743   -1.375750    0.633312
      4          6           0       -0.416043   -0.297002    1.080129
      5          6           0       -1.842641   -0.219709    0.454954
      6          8           0       -1.745219   -0.657614   -0.901984
      7          6           0       -1.344316    0.677414   -0.607725
      8          6           0        0.102957    0.654484   -0.026903
      9          6           0        0.722655    2.005977    0.240994
     10          1           0        2.792573   -0.081178    0.582374
     11          1           0        2.898675   -1.488418   -0.484310
     12          1           0        2.861801    0.140090   -1.182351
     13          1           0        0.643588   -1.001270   -1.424850
     14          1           0       -0.347357   -0.089438    2.152012
     15          1           0       -2.813520   -0.303052    0.931046
     16          1           0       -1.831393    1.479291   -1.153123
     17          1           0        0.006678    2.666422    0.743546
     18          1           0        1.607575    1.931543    0.878787
     19          1           0        1.020530    2.497124   -0.692979
 ---------------------------------------------------------------------

 SCF Done:  E(RB3LYP) =  -423.117846501     A.U. after    1 cycles

 The electronic state is 1-A.
 Alpha  occ. eigenvalues --  -19.15758 -19.12884 -10.24114 -10.23733 -10.23396
 Alpha  occ. eigenvalues --  -10.22943 -10.20028 -10.18866 -10.17576  -1.08913
 Alpha  occ. eigenvalues --   -1.02756  -0.80395  -0.75530  -0.70777  -0.65734
 Alpha  occ. eigenvalues --   -0.62334  -0.59479  -0.53030  -0.51220  -0.48635
 Alpha  occ. eigenvalues --   -0.47120  -0.44623  -0.42211  -0.41015  -0.40105
 Alpha  occ. eigenvalues --   -0.39198  -0.38358  -0.37316  -0.34959  -0.33873
 Alpha  occ. eigenvalues --   -0.30057  -0.26747  -0.26210  -0.24041
 Alpha virt. eigenvalues --    0.05682   0.08447   0.09839   0.10685   0.13019
 Alpha virt. eigenvalues --    0.13633   0.13914   0.14727   0.15180   0.16167
 Alpha virt. eigenvalues --    0.16891   0.18136   0.18832   0.20461   0.21937

 Mulliken charges:
               1
     1  C   -0.418990
     2  C    0.119929
     3  O   -0.309903
     4  C    0.045530
     5  C   -0.006991
     6  O   -0.221128
     7  C   -0.039418
     8  C    0.220548
     9  C   -0.500400
    10  H    0.118273
    11  H    0.130218
    12  H    0.114276
    13  H    0.091105
    14  H    0.076918
    15  H    0.105532
    16  H    0.102098
    17  H    0.120695
    18  H    0.127836
    19  H    0.123871
 Sum of Mulliken charges =   0.00000

 Dipole moment (field-independent basis, Debye):
    X=              0.2732    Y=              2.7830    Z=              0.4970  Tot=              2.8402
 Quadrupole moment (field-independent basis, Debye-Ang):
   XX=            -51.2553   YY=            -55.6630   ZZ=            -52.1283
   XY=             -1.5519   XZ=             -3.5643   YZ=             -0.2723

  Exact polarizability:  83.602  -0.196  70.373  -3.479  -1.703  68.369
 Approx polarizability: 109.322   1.443 106.713  -3.792  -3.836 110.420

                      1                      2                      3
                      A                      A                      A
 Frequencies --    139.4973               198.4906               213.8384
 Red. masses --      3.2890                 1.2265                 1.2311
 Frc consts  --      0.0377                 0.0285                 0.0332
 IR Inten    --      2.3644                 0.1067                 0.1153

                      4                      5                      6
                      A                      A                      A
 Frequencies --    240.2003               260.0469               286.7475
 Red. masses --      1.8879                 2.7031                 3.1180
 Frc consts  --      0.0642                 0.1077                 0.1510
 IR Inten    --      1.0671                 1.4814                 0.4942

                      7                      8                      9
                      A                      A                      A
 Frequencies --    324.5751               399.2263               521.5219
 Red. masses --      2.9169                 3.2023                 3.3898
 Frc consts  --      0.1811                 0.3007                 0.5432
 IR Inten    --      1.8494                 1.4606                 0.9600

                     10                     11                     12
                      A                      A                      A
 Frequencies --    565.3419               676.0084               721.5419
 Red. masses --      4.7745                 4.5977                 4.1539
 Frc consts  --      0.8991                 1.2379                 1.2742
 IR Inten    --      8.4631                12.9074                 2.6929

                     13                     14                     15
                      A                      A                      A
 Frequencies --    799.8446               830.9271               844.2586
 Red. masses --      3.7369                 2.6774                 1.5803
 Frc consts  --      1.4086                 1.0892                 0.6636
 IR Inten    --      3.8710                 1.6981                14.4529

                     16                     17                     18
                      A                      A                      A
 Frequencies --    865.4361               880.1425               893.7002
 Red. masses --      2.7928                 2.7994                 2.1634
 Frc consts  --      1.2324                 1.2777                 1.0181
 IR Inten    --     28.5078                 2.7570                10.7564

                     19                     20                     21
                      A                      A                      A
 Frequencies --    921.4342               996.6430              1019.4342
 Red. masses --      2.0203                 2.7369                 2.2434
 Frc consts  --      1.0106                 1.6017                 1.3737
 IR Inten    --      2.5490                22.8133                48.2311

                     22                     23                     24
                      A                      A                      A
 Frequencies --   1040.2288              1050.7083              1078.6160
 Red. masses --      1.4831                 1.7734                 2.1157
 Frc consts  --      0.9455                 1.1535                 1.4502
 IR Inten    --      2.5932                40.0465                12.0612

                     25                     26                     27
                      A                      A                      A
 Frequencies --   1112.3276              1152.4920              1168.3731
 Red. masses --      2.2002                 2.4027                 2.0063
 Frc consts  --      1.6039                 1.8803                 1.6137
 IR Inten    --     11.6841                 3.1506                 0.3543

                     28                     29                     30
                      A                      A                      A
 Frequencies --   1192.2867              1222.6102              1238.6114
 Red. masses --      1.6594                 1.8101                 1.4397
 Frc consts  --      1.3898                 1.5942                 1.3013
 IR Inten    --      6.4008                 4.0366                 3.3241

                     31                     32                     33
                      A                      A                      A
 Frequencies --   1279.6803              1302.1795              1332.5527
 Red. masses --      1.4590                 2.1005                 1.9301
 Frc consts  --      1.4077                 2.0985                 2.0193
 IR Inten    --      0.9765                 8.6101                10.1767

                     34                     35                     36
                      A                      A                      A
 Frequencies --   1363.5744              1384.2227              1403.1800
 Red. masses --      1.6826                 2.4357                 1.3360
 Frc consts  --      1.8433                 2.7497                 1.5499
 IR Inten    --      6.3724                 7.9752                 6.9269

                     37                     38                     39
                      A                      A                      A
 Frequencies --   1416.2177              1478.3182              1487.1066
 Red. masses --      1.2768                 1.0503                 1.0515
 Frc consts  --      1.5089                 1.3524                 1.3700
 IR Inten    --      5.2444                 4.6738                 0.4471

                     40                     41                     42
                      A                      A                      A
 Frequencies --   1496.4990              1501.9322              3026.0729
 Red. masses --      1.0569                 1.0467                 1.0369
 Frc consts  --      1.3946                 1.3912                 5.5945
 IR Inten    --      3.3204                 8.7057                20.7120

                     43                     44                     45
                      A                      A                      A
 Frequencies --   3035.2254              3055.0954              3068.9805
 Red. masses --      1.0358                 1.0849                 1.0887
 Frc consts  --      5.6221                 5.9661                 6.0414
 IR Inten    --     18.8323                26.9509                34.1619

                     46                     47                     48
                      A                      A                      A
 Frequencies --   3084.1594              3105.6352              3108.0334
 Red. masses --      1.1001                 1.1004                 1.1002
 Frc consts  --      6.1654                 6.2530                 6.2616
 IR Inten    --     20.6434                14.4557                19.6071

                     49                     50                     51
                      A                      A                      A
 Frequencies --   3117.8515              3164.8327              3181.3518
 Red. masses --      1.1008                 1.0874                 1.1009
 Frc consts  --      6.3049                 6.4172                 6.5649
 IR Inten    --     32.9533                17.9331                27.3682

 - Thermochemistry -
 -------------------
 Temperature   298.150 Kelvin.  Pressure   1.00000 Atm.
 Atom     1 has atomic number  6 and mass  12.00000

 Molecular mass:   126.06808 amu.
 Principal axes and moments of inertia in atomic units:
                           1         2         3
     Eigenvalues --   661.192761085.409771332.90903
           X            0.99970  -0.00428  -0.02432
           Y            0.00489   0.99968   0.02481
           Z            0.02420  -0.02492   0.99940
 This molecule is an asymmetric top.
 Rotational symmetry number  1.
 Warning -- assumption of classical behavior for rotation
           may cause significant error
 Rotational temperatures (Kelvin)      0.13100     0.07980     0.06498
 Rotational constants (GHZ):           2.72952     1.66273     1.35399
 Zero-point vibrational energy     414193.9 (Joules/Mol)
                                   98.99472 (Kcal/Mol)
 Warning -- explicit consideration of  10 degrees of freedom as
           vibrations may cause significant error
 Vibrational temperatures:    200.71   285.58   307.67   345.59   374.15
          (Kelvin)            412.57   466.99   574.40   750.35   813.40
                              972.62  1038.14  1150.80  1195.52  1214.70
                             1245.17  1266.33  1285.83  1325.74  1433.95
                             1466.74  1496.66  1511.73  1551.89  1600.39
                             1658.18  1681.03  1715.43  1759.06  1782.08
                             1841.17  1873.54  1917.24  1961.88  1991.59
                             2018.86  2037.62  2126.97  2139.61  2153.13
                             2160.94  4353.84  4367.01  4395.60  4415.57
                             4437.41  4468.31  4471.76  4485.89  4553.48
                             4577.25

 Zero-point correction=                           0.157758 (Hartree/Particle)
 Thermal correction to Energy=                    0.165875
 Thermal correction to Enthalpy=                  0.166820
 Thermal correction to Gibbs Free Energy=         0.125625
 Sum of electronic and zero-point Energies=           -422.960088
 Sum of electronic and thermal Energies=              -422.951971
 Sum of electronic and thermal Enthalpies=            -422.951027
 Sum of electronic and thermal Free Energies=         -422.992222

                     E (Thermal)             CV                S
                      KCal/Mol        Cal/Mol-Kelvin    Cal/Mol-Kelvin
 Total                  104.088             31.918             86.701
 Electronic               0.000              0.000              0.000
 Translational            0.889              2.981             40.409
 Rotational               0.889              2.981             28.350
 Vibrational            102.311             25.956             17.943
 Vibration     1          0.615              1.914              2.811
 Vibration     2          0.637              1.842              2.147
 Vibration     3          0.644              1.820              2.011
 Vibration     4          0.657              1.779              1.801
 Vibration     5          0.668              1.746              1.661
 Vibration     6          0.684              1.698              1.493
 Vibration     7          0.709              1.626              1.287
 Vibration     8          0.765              1.472              0.966
 Vibration     9          0.876              1.202              0.606
 Vibration    10          0.921              1.106              0.513

 Optimization completed.
    -- Stationary point found.
 Normal termination of Gaussian 09 at Tue Jan 28 03:52:15 2020.
