 Gaussian 09, Revision D.01,
 Gaussian 09:  ES64L-G09RevD.01 24-Apr-2013

 -----------------------------
 # b3lyp 6-31G(2df,p) opt Freq
 -----------------------------

 -----
 titel
 -----
 Symbolic Z-matrix:
 Charge =  0 Multiplicity = 1

 SCF Done:  E(RB3LYP) =  -423.150103674     A.U. after   13 cycles
 Optimization completed.
    -- Stationary point found.
 Normal termination of Gaussian 09 at Tue Jan 28 02:55:46 2020.

 ----------------------------------------------------------------------
 #N Geom=AllCheck Guess=TCheck SCRF=Check GenChk RB3LYP/6-31G(2df,p) Fr
 eq
 ----------------------------------------------------------------------

 Structure from the checkpoint file:  "/scratch/puck/g09_da57381c-885b-44a6-8b0a-cfc9bac2d458/Gau-29349.chk"
 -----
 titel
 -----
 Charge =  0 Multiplicity = 1

                         Standard orientation:
 ---------------------------------------------------------------------
 Center     Atomic      Atomic             Coordinates (Angstroms)
 Number     Number       Type             X           Y           Z
 ---------------------------------------------------------------------
      1          6           0       -2.519226   -0.607221   -0.540081
      2          6           0       -1.550442    0.250281    0.254979
      3          8           0       -0.832134    1.123077   -0.643449
      4          6           0        0.501331    1.179416   -0.203474
      5          6           0        0.694854    0.532578    1.140438
      6          6           0       -0.426480   -0.510814    0.957268
      7          8           0        0.337414   -1.208913   -0.075988
      8          6           0        1.278795   -0.126627   -0.093642
      9          6           0        2.664198   -0.409463   -0.565980
     10          1           0       -1.964798   -1.262969   -1.214568
     11          1           0       -3.130452   -1.217236    0.133268
     12          1           0       -3.187739    0.025821   -1.129355
     13          1           0       -2.093986    0.863211    0.993947
     14          1           0        1.018386    2.091663   -0.478212
     15          1           0        1.110239    0.946267    2.049494
     16          1           0       -0.716116   -1.167149    1.778998
     17          1           0        2.651554   -0.735969   -1.611592
     18          1           0        3.281613    0.491213   -0.497972
     19          1           0        3.130870   -1.197057    0.034430
 ---------------------------------------------------------------------

 SCF Done:  E(RB3LYP) =  -423.150103674     A.U. after    1 cycles

 The electronic state is 1-A.
 Alpha  occ. eigenvalues --  -19.13742 -19.13667 -10.24275 -10.24105 -10.23350
 Alpha  occ. eigenvalues --  -10.23180 -10.19050 -10.18592 -10.17045  -1.07324
 Alpha  occ. eigenvalues --   -1.01178  -0.82870  -0.76996  -0.73816  -0.67477
 Alpha  occ. eigenvalues --   -0.60403  -0.57690  -0.53731  -0.51034  -0.50026
 Alpha  occ. eigenvalues --   -0.46690  -0.42754  -0.42148  -0.41878  -0.40480
 Alpha  occ. eigenvalues --   -0.38797  -0.38070  -0.36497  -0.35073  -0.33171
 Alpha  occ. eigenvalues --   -0.31916  -0.29618  -0.25081  -0.21270
 Alpha virt. eigenvalues --    0.07657   0.09606   0.11145   0.12414   0.12790
 Alpha virt. eigenvalues --    0.13657   0.15131   0.15524   0.15730   0.16760
 Alpha virt. eigenvalues --    0.17364   0.18805   0.18987   0.20179   0.21930

 Mulliken charges:
               1
     1  C   -0.403803
     2  C    0.144488
     3  O   -0.280930
     4  C    0.029811
     5  C   -0.266007
     6  C    0.045065
     7  O   -0.331718
     8  C    0.442291
     9  C   -0.502422
    10  H    0.141792
    11  H    0.108904
    12  H    0.125687
    13  H    0.067584
    14  H    0.104270
    15  H    0.097640
    16  H    0.084556
    17  H    0.137342
    18  H    0.125155
    19  H    0.130294
 Sum of Mulliken charges =   0.00000

 Dipole moment (field-independent basis, Debye):
    X=              0.7884    Y=              0.4988    Z=              1.6166  Tot=              1.8665
 Quadrupole moment (field-independent basis, Debye-Ang):
   XX=            -48.4506   YY=            -55.3210   ZZ=            -52.0546
   XY=              2.9175   XZ=             -1.9830   YZ=              0.2611

  Exact polarizability:  89.466   2.019  67.523  -3.126   0.074  67.519
 Approx polarizability: 112.670   0.707 105.560  -4.934  -0.656 105.603

                      1                      2                      3
                      A                      A                      A
 Frequencies --    140.0211               198.9078               217.6001
 Red. masses --      3.0834                 1.0435                 2.1949
 Frc consts  --      0.0356                 0.0243                 0.0612
 IR Inten    --      1.6843                 0.2336                 2.5684

                      4                      5                      6
                      A                      A                      A
 Frequencies --    246.7684               272.2879               307.5969
 Red. masses --      1.2195                 2.9956                 2.6662
 Frc consts  --      0.0438                 0.1309                 0.1486
 IR Inten    --      0.9534                 1.5949                 0.3605

                      7                      8                      9
                      A                      A                      A
 Frequencies --    397.9904               508.2405               549.1737
 Red. masses --      4.7016                 4.3125                 2.9698
 Frc consts  --      0.4388                 0.6563                 0.5277
 IR Inten    --      4.6086                 1.9704                 1.3250

                     10                     11                     12
                      A                      A                      A
 Frequencies --    613.3553               707.4592               749.9831
 Red. masses --      3.3645                 3.0052                 3.3235
 Frc consts  --      0.7458                 0.8862                 1.1014
 IR Inten    --      5.6467                 1.5582                 9.6567

                     13                     14                     15
                      A                      A                      A
 Frequencies --    781.0911               832.3010               844.1240
 Red. masses --      5.4010                 2.6979                 3.3544
 Frc consts  --      1.9414                 1.1011                 1.4082
 IR Inten    --     13.5356                21.4993                 4.2052

                     16                     17                     18
                      A                      A                      A
 Frequencies --    885.0605               892.5337               907.1992
 Red. masses --      1.5028                 2.1463                 2.3488
 Frc consts  --      0.6936                 1.0074                 1.1389
 IR Inten    --     12.3211                 8.2565                 5.4545

                     19                     20                     21
                      A                      A                      A
 Frequencies --    950.2465               971.2259              1026.4849
 Red. masses --      1.7095                 2.7278                 1.7395
 Frc consts  --      0.9095                 1.5160                 1.0799
 IR Inten    --      7.2620                46.0914                11.3380

                     22                     23                     24
                      A                      A                      A
 Frequencies --   1037.4474              1073.2353              1088.8859
 Red. masses --      2.0117                 2.6468                 1.8862
 Frc consts  --      1.2757                 1.7962                 1.3177
 IR Inten    --      5.5337                51.1502                14.5789

                     25                     26                     27
                      A                      A                      A
 Frequencies --   1105.1679              1118.6826              1146.9428
 Red. masses --      1.9864                 2.7738                 2.2377
 Frc consts  --      1.4295                 2.0452                 1.7344
 IR Inten    --     30.1318                39.0080                26.9996

                     28                     29                     30
                      A                      A                      A
 Frequencies --   1174.7044              1233.0063              1243.9374
 Red. masses --      1.7573                 1.9976                 1.7613
 Frc consts  --      1.4287                 1.7894                 1.6057
 IR Inten    --     31.6667                14.4881                 4.7620

                     31                     32                     33
                      A                      A                      A
 Frequencies --   1280.5211              1304.1153              1346.6991
 Red. masses --      1.5718                 1.7140                 1.3961
 Frc consts  --      1.5185                 1.7175                 1.4918
 IR Inten    --     14.2396                 4.5572                 3.6667

                     34                     35                     36
                      A                      A                      A
 Frequencies --   1377.5499              1403.9667              1405.7851
 Red. masses --      1.4905                 1.2857                 1.3774
 Frc consts  --      1.6665                 1.4931                 1.6038
 IR Inten    --      7.0487                 5.4354                14.4517

                     37                     38                     39
                      A                      A                      A
 Frequencies --   1452.3984              1472.8060              1486.7359
 Red. masses --      3.4836                 1.0462                 1.0517
 Frc consts  --      4.3297                 1.3371                 1.3697
 IR Inten    --      7.9823                 3.7234                 3.6590

                     40                     41                     42
                      A                      A                      A
 Frequencies --   1498.3620              1502.0888              2960.1776
 Red. masses --      1.0963                 1.0567                 1.0829
 Frc consts  --      1.4502                 1.4047                 5.5907
 IR Inten    --      3.6449                 2.1881                64.3772

                     43                     44                     45
                      A                      A                      A
 Frequencies --   3033.1835              3045.0134              3099.5463
 Red. masses --      1.0349                 1.0365                 1.1015
 Frc consts  --      5.6100                 5.6624                 6.2347
 IR Inten    --     25.2417                21.0819                15.1426

                     46                     47                     48
                      A                      A                      A
 Frequencies --   3109.5386              3113.1737              3115.1183
 Red. masses --      1.0910                 1.1005                 1.0994
 Frc consts  --      6.2156                 6.2844                 6.2859
 IR Inten    --     23.0946                13.5429                29.1842

                     49                     50                     51
                      A                      A                      A
 Frequencies --   3141.3530              3184.0214              3198.8799
 Red. masses --      1.1019                 1.0905                 1.0976
 Frc consts  --      6.4067                 6.5136                 6.6176
 IR Inten    --     12.4101                13.4966                11.6882

 - Thermochemistry -
 -------------------
 Temperature   298.150 Kelvin.  Pressure   1.00000 Atm.
 Atom     1 has atomic number  6 and mass  12.00000

 Molecular mass:   126.06808 amu.
 Principal axes and moments of inertia in atomic units:
                           1         2         3
     Eigenvalues --   511.258701246.535111356.26629
           X            0.99975   0.02134  -0.00638
           Y           -0.02090   0.99784   0.06233
           Z            0.00770  -0.06218   0.99804
 This molecule is an asymmetric top.
 Rotational symmetry number  1.
 Warning -- assumption of classical behavior for rotation
           may cause significant error
 Rotational temperatures (Kelvin)      0.16941     0.06948     0.06386
 Rotational constants (GHZ):           3.53000     1.44781     1.33067
 Zero-point vibrational energy     417213.8 (Joules/Mol)
                                   99.71648 (Kcal/Mol)
 Warning -- explicit consideration of  10 degrees of freedom as
           vibrations may cause significant error
 Vibrational temperatures:    201.46   286.18   313.08   355.04   391.76
          (Kelvin)            442.56   572.62   731.24   790.14   882.48
                             1017.87  1079.06  1123.81  1197.49  1214.50
                             1273.40  1284.16  1305.26  1367.19  1397.38
                             1476.88  1492.65  1544.14  1566.66  1590.09
                             1609.53  1650.19  1690.14  1774.02  1789.75
                             1842.38  1876.33  1937.60  1981.98  2019.99
                             2022.61  2089.67  2119.04  2139.08  2155.81
                             2161.17  4259.03  4364.07  4381.09  4459.55
                             4473.93  4479.16  4481.95  4519.70  4581.09
                             4602.47

 Zero-point correction=                           0.158908 (Hartree/Particle)
 Thermal correction to Energy=                    0.166719
 Thermal correction to Enthalpy=                  0.167663
 Thermal correction to Gibbs Free Energy=         0.127070
 Sum of electronic and zero-point Energies=           -422.991195
 Sum of electronic and thermal Energies=              -422.983385
 Sum of electronic and thermal Enthalpies=            -422.982441
 Sum of electronic and thermal Free Energies=         -423.023033

                     E (Thermal)             CV                S
                      KCal/Mol        Cal/Mol-Kelvin    Cal/Mol-Kelvin
 Total                  104.618             31.114             85.435
 Electronic               0.000              0.000              0.000
 Translational            0.889              2.981             40.409
 Rotational               0.889              2.981             28.249
 Vibrational            102.840             25.152             16.777
 Vibration     1          0.615              1.913              2.804
 Vibration     2          0.637              1.841              2.143
 Vibration     3          0.646              1.814              1.979
 Vibration     4          0.661              1.768              1.754
 Vibration     5          0.675              1.724              1.582
 Vibration     6          0.697              1.659              1.375
 Vibration     7          0.764              1.474              0.970
 Vibration     8          0.863              1.232              0.638
 Vibration     9          0.904              1.141              0.546
 Vibration    10          0.973              1.004              0.427

 Optimization completed.
    -- Stationary point found.
 Normal termination of Gaussian 09 at Tue Jan 28 03:43:16 2020.
