 Gaussian 09, Revision D.01,
 Gaussian 09:  ES64L-G09RevD.01 24-Apr-2013

 -----------------------------
 # b3lyp 6-31G(2df,p) opt Freq
 -----------------------------

 -----
 titel
 -----
 Symbolic Z-matrix:
 Charge =  0 Multiplicity = 1

 SCF Done:  E(RB3LYP) =  -423.143226702     A.U. after   14 cycles
 Optimization completed.
    -- Stationary point found.
 Normal termination of Gaussian 09 at Tue Jan 28 14:07:53 2020.

 ----------------------------------------------------------------------
 #N Geom=AllCheck Guess=TCheck SCRF=Check GenChk RB3LYP/6-31G(2df,p) Fr
 eq
 ----------------------------------------------------------------------

 Structure from the checkpoint file:  "/scratch/puck/g09_077eb640-4124-4633-9d99-4af9a2e01716/Gau-15617.chk"
 -----
 titel
 -----
 Charge =  0 Multiplicity = 1

                         Standard orientation:
 ---------------------------------------------------------------------
 Center     Atomic      Atomic             Coordinates (Angstroms)
 Number     Number       Type             X           Y           Z
 ---------------------------------------------------------------------
      1          6           0       -3.110217   -1.076017    0.136911
      2          8           0       -2.493740    0.137452   -0.252128
      3          6           0       -1.249021    0.329218    0.333339
      4          6           0       -0.350365    1.229379   -0.445477
      5          6           0        0.928910    1.503962    0.343243
      6          6           0        1.217774   -0.046421    0.419586
      7          6           0        2.466650   -0.422923   -0.330136
      8          8           0        3.344320   -1.128864    0.095362
      9          6           0       -0.070573   -0.282521   -0.388787
     10          1           0       -3.267656   -1.116144    1.224952
     11          1           0       -4.080357   -1.116423   -0.362931
     12          1           0       -2.513603   -1.949949   -0.159852
     13          1           0       -1.261764    0.360785    1.427906
     14          1           0       -0.745431    1.820282   -1.261932
     15          1           0        1.687365    2.028063   -0.244195
     16          1           0        0.817965    2.013420    1.305093
     17          1           0        1.252387   -0.493841    1.416986
     18          1           0        2.527007    0.016645   -1.354779
     19          1           0       -0.219500   -1.039612   -1.149193
 ---------------------------------------------------------------------

 SCF Done:  E(RB3LYP) =  -423.143226702     A.U. after    1 cycles

 The electronic state is 1-A.
 Alpha  occ. eigenvalues --  -19.15457 -19.13802 -10.26911 -10.24498 -10.23162
 Alpha  occ. eigenvalues --  -10.20489 -10.20468 -10.20461 -10.20198  -1.05081
 Alpha  occ. eigenvalues --   -1.04500  -0.90490  -0.76015  -0.69267  -0.68164
 Alpha  occ. eigenvalues --   -0.59423  -0.58918  -0.55048  -0.52438  -0.49072
 Alpha  occ. eigenvalues --   -0.47634  -0.45315  -0.44527  -0.43653  -0.42596
 Alpha  occ. eigenvalues --   -0.40737  -0.39201  -0.35266  -0.34830  -0.33812
 Alpha  occ. eigenvalues --   -0.30621  -0.28070  -0.25715  -0.24418
 Alpha virt. eigenvalues --   -0.02281   0.08442   0.09673   0.10229   0.11327
 Alpha virt. eigenvalues --    0.11849   0.12749   0.14096   0.14779   0.15944
 Alpha virt. eigenvalues --    0.16474   0.17501   0.18335   0.19169   0.21032

 Mulliken charges:
               1
     1  C   -0.239173
     2  O   -0.249376
     3  C    0.115800
     4  C   -0.081697
     5  C   -0.276624
     6  C   -0.097729
     7  C    0.162100
     8  O   -0.256309
     9  C   -0.103325
    10  H    0.110671
    11  H    0.131291
    12  H    0.111692
    13  H    0.080188
    14  H    0.102790
    15  H    0.116741
    16  H    0.111564
    17  H    0.088957
    18  H    0.071882
    19  H    0.100558
 Sum of Mulliken charges =   0.00000

 Dipole moment (field-independent basis, Debye):
    X=             -2.1430    Y=              0.7432    Z=              0.0070  Tot=              2.2682
 Quadrupole moment (field-independent basis, Debye-Ang):
   XX=            -63.3886   YY=            -53.2269   ZZ=            -51.6969
   XY=              9.2287   XZ=             -2.8341   YZ=              0.6333

  Exact polarizability:  95.603  -0.018  72.362  -0.227  -1.464  66.053
 Approx polarizability: 122.661  -8.282 111.270   2.922  -4.805 101.989

                      1                      2                      3
                      A                      A                      A
 Frequencies --     65.0771                96.8306               122.7776
 Red. masses --      5.6716                 2.7101                 3.1350
 Frc consts  --      0.0142                 0.0150                 0.0278
 IR Inten    --      4.9057                 7.0671                 0.7274

                      4                      5                      6
                      A                      A                      A
 Frequencies --    175.6920               185.2782               255.6565
 Red. masses --      1.4953                 1.9110                 2.5043
 Frc consts  --      0.0272                 0.0387                 0.0964
 IR Inten    --      0.3245                 0.8630                 1.4862

                      7                      8                      9
                      A                      A                      A
 Frequencies --    346.4756               376.0858               406.3248
 Red. masses --      2.8330                 2.7144                 3.9263
 Frc consts  --      0.2004                 0.2262                 0.3819
 IR Inten    --      2.5639                 3.0781                 1.9621

                     10                     11                     12
                      A                      A                      A
 Frequencies --    455.5517               513.8297               751.4421
 Red. masses --      3.4181                 3.9955                 2.9923
 Frc consts  --      0.4179                 0.6215                 0.9955
 IR Inten    --      0.8519                22.0350                 5.3217

                     13                     14                     15
                      A                      A                      A
 Frequencies --    812.0136               846.0585               892.9449
 Red. masses --      1.7396                 2.3878                 1.9898
 Frc consts  --      0.6758                 1.0070                 0.9348
 IR Inten    --      3.1209                10.7257                13.7244

                     16                     17                     18
                      A                      A                      A
 Frequencies --    905.9144               952.3180               967.2848
 Red. masses --      2.4986                 2.5715                 2.1474
 Frc consts  --      1.2081                 1.3740                 1.1838
 IR Inten    --      8.1949                25.0107                 2.4050

                     19                     20                     21
                      A                      A                      A
 Frequencies --   1007.0709              1024.3193              1031.4924
 Red. masses --      1.2135                 2.2826                 2.7662
 Frc consts  --      0.7251                 1.4111                 1.7341
 IR Inten    --      0.2208                 9.7391                22.2203

                     22                     23                     24
                      A                      A                      A
 Frequencies --   1073.5249              1092.8717              1133.4629
 Red. masses --      1.7866                 1.6912                 1.9690
 Frc consts  --      1.2131                 1.1901                 1.4904
 IR Inten    --      2.7658                 7.5456                18.2143

                     25                     26                     27
                      A                      A                      A
 Frequencies --   1155.7195              1173.4500              1181.8184
 Red. masses --      2.0321                 2.1984                 1.3457
 Frc consts  --      1.5992                 1.7835                 1.1074
 IR Inten    --     10.0917                89.6336                16.5838

                     28                     29                     30
                      A                      A                      A
 Frequencies --   1191.4734              1224.4930              1240.3355
 Red. masses --      1.5534                 1.4603                 1.4289
 Frc consts  --      1.2993                 1.2900                 1.2952
 IR Inten    --      0.4370                 4.7908                 2.7516

                     31                     32                     33
                      A                      A                      A
 Frequencies --   1244.9356              1271.6276              1292.4228
 Red. masses --      1.9000                 1.5333                 1.6594
 Frc consts  --      1.7350                 1.4608                 1.6331
 IR Inten    --     59.0773                 8.3587                 4.0874

                     34                     35                     36
                      A                      A                      A
 Frequencies --   1324.4081              1421.7018              1427.2094
 Red. masses --      1.3874                 1.9995                 1.2576
 Frc consts  --      1.4338                 2.3812                 1.5093
 IR Inten    --      8.9452                40.1119                12.8141

                     37                     38                     39
                      A                      A                      A
 Frequencies --   1483.7048              1486.2238              1487.0321
 Red. masses --      1.1348                 1.0549                 1.1818
 Frc consts  --      1.4719                 1.3728                 1.5397
 IR Inten    --      0.2678                 5.6567                 4.6764

                     40                     41                     42
                      A                      A                      A
 Frequencies --   1508.0166              1830.2002              2845.1109
 Red. masses --      1.0685                10.3060                 1.0813
 Frc consts  --      1.4316                20.3393                 5.1569
 IR Inten    --      5.6094               224.3985                95.0766

                     43                     44                     45
                      A                      A                      A
 Frequencies --   2987.9306              3039.7349              3041.7166
 Red. masses --      1.0363                 1.0937                 1.0960
 Frc consts  --      5.4510                 5.9539                 5.9743
 IR Inten    --     51.5889                74.3610                 7.5443

                     46                     47                     48
                      A                      A                      A
 Frequencies --   3051.4059              3073.0385              3103.9355
 Red. masses --      1.0588                 1.0860                 1.1071
 Frc consts  --      5.8087                 6.0427                 6.2842
 IR Inten    --     40.0250                21.5122                20.3757

                     49                     50                     51
                      A                      A                      A
 Frequencies --   3124.1348              3184.7740              3200.4845
 Red. masses --      1.0979                 1.0896                 1.0951
 Frc consts  --      6.3135                 6.5111                 6.6091
 IR Inten    --     28.0930                 9.5875                10.2423

 - Thermochemistry -
 -------------------
 Temperature   298.150 Kelvin.  Pressure   1.00000 Atm.
 Atom     1 has atomic number  6 and mass  12.00000

 Molecular mass:   126.06808 amu.
 Principal axes and moments of inertia in atomic units:
                           1         2         3
     Eigenvalues --   454.067962099.361532381.80164
           X            0.99938   0.03441  -0.00689
           Y           -0.03441   0.99941   0.00081
           Z            0.00691  -0.00058   0.99998
 This molecule is an asymmetric top.
 Rotational symmetry number  1.
 Warning -- assumption of classical behavior for rotation
           may cause significant error
 Rotational temperatures (Kelvin)      0.19075     0.04126     0.03636
 Rotational constants (GHZ):           3.97461     0.85966     0.75772
 Zero-point vibrational energy     413234.0 (Joules/Mol)
                                   98.76531 (Kcal/Mol)
 Warning -- explicit consideration of  11 degrees of freedom as
           vibrations may cause significant error
 Vibrational temperatures:     93.63   139.32   176.65   252.78   266.57
          (Kelvin)            367.83   498.50   541.10   584.61   655.44
                              739.29  1081.16  1168.31  1217.29  1284.75
                             1303.41  1370.17  1391.71  1448.95  1473.77
                             1484.09  1544.56  1572.40  1630.80  1662.82
                             1688.33  1700.37  1714.26  1761.77  1784.56
                             1791.18  1829.59  1859.51  1905.53  2045.51
                             2053.43  2134.72  2138.34  2139.50  2169.70
                             2633.25  4093.47  4298.96  4373.50  4376.35
                             4390.29  4421.41  4465.87  4494.93  4582.17
                             4604.78

 Zero-point correction=                           0.157393 (Hartree/Particle)
 Thermal correction to Energy=                    0.166392
 Thermal correction to Enthalpy=                  0.167336
 Thermal correction to Gibbs Free Energy=         0.122943
 Sum of electronic and zero-point Energies=           -422.985834
 Sum of electronic and thermal Energies=              -422.976835
 Sum of electronic and thermal Enthalpies=            -422.975891
 Sum of electronic and thermal Free Energies=         -423.020283

                     E (Thermal)             CV                S
                      KCal/Mol        Cal/Mol-Kelvin    Cal/Mol-Kelvin
 Total                  104.413             32.538             93.432
 Electronic               0.000              0.000              0.000
 Translational            0.889              2.981             40.409
 Rotational               0.889              2.981             29.208
 Vibrational            102.635             26.576             23.815
 Vibration     1          0.597              1.971              4.297
 Vibration     2          0.603              1.951              3.517
 Vibration     3          0.610              1.930              3.056
 Vibration     4          0.628              1.872              2.374
 Vibration     5          0.631              1.860              2.275
 Vibration     6          0.666              1.753              1.691
 Vibration     7          0.724              1.582              1.182
 Vibration     8          0.747              1.521              1.055
 Vibration     9          0.771              1.456              0.940
 Vibration    10          0.814              1.349              0.779
 Vibration    11          0.869              1.219              0.624

 Optimization completed.
    -- Stationary point found.
 Normal termination of Gaussian 09 at Tue Jan 28 15:25:41 2020.
