 Gaussian 09, Revision D.01,
 Gaussian 09:  ES64L-G09RevD.01 24-Apr-2013

 -----------------------------
 # b3lyp 6-31G(2df,p) opt Freq
 -----------------------------

 -----
 titel
 -----
 Symbolic Z-matrix:
 Charge =  0 Multiplicity = 1

 SCF Done:  E(RB3LYP) =  -423.110740024     A.U. after   13 cycles
 Optimization completed.
    -- Stationary point found.
 Normal termination of Gaussian 09 at Tue Jan 28 08:20:04 2020.

 ----------------------------------------------------------------------
 #N Geom=AllCheck Guess=TCheck SCRF=Check GenChk RB3LYP/6-31G(2df,p) Fr
 eq
 ----------------------------------------------------------------------

 Structure from the checkpoint file:  "/scratch/puck/g09_6aa4c40c-fe7d-40c1-8b8a-6b3997140465/Gau-74504.chk"
 -----
 titel
 -----
 Charge =  0 Multiplicity = 1

                         Standard orientation:
 ---------------------------------------------------------------------
 Center     Atomic      Atomic             Coordinates (Angstroms)
 Number     Number       Type             X           Y           Z
 ---------------------------------------------------------------------
      1          6           0        2.651160   -0.647908   -0.173843
      2          6           0        1.438229   -0.450093    0.743844
      3          6           0        0.339694    0.419141    0.142069
      4          8           0        0.800201    1.705854   -0.242941
      5          6           0       -0.968321    0.599175    0.908481
      6          6           0       -1.846414   -0.587468    0.476137
      7          8           0       -1.075575   -1.427465   -0.391595
      8          6           0       -0.575528   -0.193843   -0.977793
      9          6           0       -1.780309    0.621357   -0.383840
     10          1           0        2.361048   -1.085232   -1.136091
     11          1           0        3.173842    0.295308   -0.370678
     12          1           0        3.379175   -1.323440    0.284090
     13          1           0        0.997160   -1.421163    0.985190
     14          1           0        1.759089    0.008054    1.687476
     15          1           0        1.512326    1.583336   -0.879613
     16          1           0       -1.132093    1.159697    1.820120
     17          1           0       -2.631755   -1.027354    1.076171
     18          1           0       -0.257667   -0.287933   -2.015289
     19          1           0       -2.509199    1.309445   -0.785425
 ---------------------------------------------------------------------

 SCF Done:  E(RB3LYP) =  -423.110740024     A.U. after    1 cycles

 The electronic state is 1-A.
 Alpha  occ. eigenvalues --  -19.13823 -19.13751 -10.24158 -10.23992 -10.23795
 Alpha  occ. eigenvalues --  -10.19488 -10.19243 -10.17956 -10.17505  -1.06473
 Alpha  occ. eigenvalues --   -1.01937  -0.85384  -0.77210  -0.70749  -0.66267
 Alpha  occ. eigenvalues --   -0.60214  -0.55535  -0.55010  -0.53778  -0.48423
 Alpha  occ. eigenvalues --   -0.46898  -0.44809  -0.42585  -0.41656  -0.38895
 Alpha  occ. eigenvalues --   -0.38112  -0.37383  -0.35035  -0.34501  -0.31570
 Alpha  occ. eigenvalues --   -0.30404  -0.28356  -0.25668  -0.22715
 Alpha virt. eigenvalues --    0.06672   0.07604   0.10706   0.11159   0.13323
 Alpha virt. eigenvalues --    0.14036   0.14709   0.15351   0.15865   0.16063
 Alpha virt. eigenvalues --    0.17971   0.18304   0.19881   0.20864   0.22106

 Mulliken charges:
               1
     1  C   -0.411092
     2  C   -0.235299
     3  C    0.427702
     4  O   -0.488003
     5  C   -0.164260
     6  C    0.080140
     7  O   -0.291933
     8  C   -0.011690
     9  C   -0.142439
    10  H    0.119751
    11  H    0.110174
    12  H    0.121935
    13  H    0.119294
    14  H    0.098500
    15  H    0.278839
    16  H    0.092801
    17  H    0.112783
    18  H    0.079655
    19  H    0.103143
 Sum of Mulliken charges =   0.00000

 Dipole moment (field-independent basis, Debye):
    X=              0.3007    Y=              0.3966    Z=             -0.1677  Tot=              0.5252
 Quadrupole moment (field-independent basis, Debye-Ang):
   XX=            -48.2982   YY=            -59.0721   ZZ=            -49.8139
   XY=             -1.6506   XZ=             -3.1582   YZ=             -1.9828

  Exact polarizability:  84.217  -0.787  66.875  -2.670  -0.578  68.998
 Approx polarizability: 108.689   2.063 107.348  -3.316  -0.126 107.945

                      1                      2                      3
                      A                      A                      A
 Frequencies --     82.1549               175.3136               201.7586
 Red. masses --      2.4146                 2.6161                 1.8135
 Frc consts  --      0.0096                 0.0474                 0.0435
 IR Inten    --      0.0282                 0.7627                 0.9329

                      4                      5                      6
                      A                      A                      A
 Frequencies --    266.1698               279.0475               335.6506
 Red. masses --      1.7872                 1.8330                 1.5294
 Frc consts  --      0.0746                 0.0841                 0.1015
 IR Inten    --     15.7008                32.1480                50.9515

                      7                      8                      9
                      A                      A                      A
 Frequencies --    376.1226               431.7206               541.8410
 Red. masses --      2.9464                 3.6627                 5.1441
 Frc consts  --      0.2456                 0.4022                 0.8898
 IR Inten    --     17.6346                 5.7488                 0.5742

                     10                     11                     12
                      A                      A                      A
 Frequencies --    575.6999               660.5128               774.0293
 Red. masses --      3.7748                 3.2462                 1.5007
 Frc consts  --      0.7371                 0.8344                 0.5297
 IR Inten    --      9.7258                 2.2955                 5.6353

                     13                     14                     15
                      A                      A                      A
 Frequencies --    780.3080               784.5787               809.9011
 Red. masses --      1.4635                 1.9815                 2.5150
 Frc consts  --      0.5250                 0.7186                 0.9720
 IR Inten    --      5.8922                18.5879                 4.0403

                     16                     17                     18
                      A                      A                      A
 Frequencies --    821.8193               873.6930               936.1784
 Red. masses --      1.9522                 2.6056                 2.2537
 Frc consts  --      0.7768                 1.1718                 1.1637
 IR Inten    --      5.2814                 9.3649                25.1281

                     19                     20                     21
                      A                      A                      A
 Frequencies --    946.2551               971.4198               981.8311
 Red. masses --      2.0348                 2.9874                 2.4867
 Frc consts  --      1.0735                 1.6610                 1.4124
 IR Inten    --      4.9505                40.0158                10.2055

                     22                     23                     24
                      A                      A                      A
 Frequencies --   1007.3038              1029.1319              1046.1521
 Red. masses --      1.8222                 1.4419                 3.1047
 Frc consts  --      1.0894                 0.8998                 2.0020
 IR Inten    --     28.0432                 3.4450                15.0954

                     25                     26                     27
                      A                      A                      A
 Frequencies --   1061.4615              1080.0991              1109.7700
 Red. masses --      2.0558                 2.4938                 2.1977
 Frc consts  --      1.3647                 1.7141                 1.5947
 IR Inten    --      3.7800                 2.9853                40.3392

                     28                     29                     30
                      A                      A                      A
 Frequencies --   1152.3131              1176.9620              1191.8301
 Red. masses --      1.4477                 1.5817                 2.6483
 Frc consts  --      1.1326                 1.2909                 2.2164
 IR Inten    --      2.7957                 6.0816                28.5025

                     31                     32                     33
                      A                      A                      A
 Frequencies --   1211.4317              1221.0624              1279.9783
 Red. masses --      2.7309                 1.6778                 1.4594
 Frc consts  --      2.3613                 1.4739                 1.4087
 IR Inten    --     18.7317                 9.2640                15.4840

                     34                     35                     36
                      A                      A                      A
 Frequencies --   1315.8948              1342.2116              1373.0824
 Red. masses --      1.2936                 1.5156                 2.6961
 Frc consts  --      1.3198                 1.6087                 2.9949
 IR Inten    --     16.6158                11.3505                15.2091

                     37                     38                     39
                      A                      A                      A
 Frequencies --   1404.0668              1416.1245              1475.1888
 Red. masses --      1.3594                 1.7267                 1.0783
 Frc consts  --      1.5790                 2.0402                 1.3826
 IR Inten    --     12.3228                25.6029                 6.9663

                     40                     41                     42
                      A                      A                      A
 Frequencies --   1501.9148              1512.7056              3027.4064
 Red. masses --      1.0509                 1.0454                 1.0380
 Frc consts  --      1.3967                 1.4095                 5.6053
 IR Inten    --      5.4993                 4.4157                19.3706

                     43                     44                     45
                      A                      A                      A
 Frequencies --   3036.6905              3081.5172              3104.3571
 Red. masses --      1.0654                 1.0970                 1.1008
 Frc consts  --      5.7883                 6.1374                 6.2504
 IR Inten    --     22.4720                 9.8347                29.2193

                     46                     47                     48
                      A                      A                      A
 Frequencies --   3106.9994              3132.3628              3198.9636
 Red. masses --      1.0974                 1.0923                 1.0917
 Frc consts  --      6.2414                 6.3143                 6.5822
 IR Inten    --     27.4743                31.8637                 7.1714

                     49                     50                     51
                      A                      A                      A
 Frequencies --   3208.9547              3228.1908              3808.1851
 Red. masses --      1.0908                 1.1047                 1.0656
 Frc consts  --      6.6181                 6.7828                 9.1046
 IR Inten    --     14.8030                10.9388                13.3670

 - Thermochemistry -
 -------------------
 Temperature   298.150 Kelvin.  Pressure   1.00000 Atm.
 Atom     1 has atomic number  6 and mass  12.00000

 Molecular mass:   126.06808 amu.
 Principal axes and moments of inertia in atomic units:
                           1         2         3
     Eigenvalues --   591.482991191.441231412.87889
           X            0.99908  -0.04143  -0.01075
           Y            0.04119   0.99890  -0.02236
           Z            0.01167   0.02189   0.99969
 This molecule is an asymmetric top.
 Rotational symmetry number  1.
 Warning -- assumption of classical behavior for rotation
           may cause significant error
 Rotational temperatures (Kelvin)      0.14644     0.07270     0.06130
 Rotational constants (GHZ):           3.05121     1.51475     1.27735
 Zero-point vibrational energy     415393.2 (Joules/Mol)
                                   99.28135 (Kcal/Mol)
 Warning -- explicit consideration of  10 degrees of freedom as
           vibrations may cause significant error
 Vibrational temperatures:    118.20   252.24   290.29   382.96   401.49
          (Kelvin)            482.93   541.16   621.15   779.59   828.30
                              950.33  1113.65  1122.69  1128.83  1165.27
                             1182.41  1257.05  1346.95  1361.45  1397.65
                             1412.63  1449.28  1480.69  1505.18  1527.20
                             1554.02  1596.71  1657.92  1693.38  1714.78
                             1742.98  1756.83  1841.60  1893.28  1931.14
                             1975.56  2020.14  2037.48  2122.46  2160.92
                             2176.44  4355.76  4369.11  4433.61  4466.47
                             4470.27  4506.77  4602.59  4616.96  4644.64
                             5479.12

 Zero-point correction=                           0.158215 (Hartree/Particle)
 Thermal correction to Energy=                    0.166346
 Thermal correction to Enthalpy=                  0.167290
 Thermal correction to Gibbs Free Energy=         0.125791
 Sum of electronic and zero-point Energies=           -422.952525
 Sum of electronic and thermal Energies=              -422.944394
 Sum of electronic and thermal Enthalpies=            -422.943450
 Sum of electronic and thermal Free Energies=         -422.984949

                     E (Thermal)             CV                S
                      KCal/Mol        Cal/Mol-Kelvin    Cal/Mol-Kelvin
 Total                  104.384             32.260             87.341
 Electronic               0.000              0.000              0.000
 Translational            0.889              2.981             40.409
 Rotational               0.889              2.981             28.389
 Vibrational            102.606             26.298             18.543
 Vibration     1          0.600              1.961              3.839
 Vibration     2          0.627              1.873              2.378
 Vibration     3          0.639              1.837              2.117
 Vibration     4          0.672              1.735              1.621
 Vibration     5          0.679              1.712              1.540
 Vibration     6          0.717              1.604              1.233
 Vibration     7          0.747              1.521              1.055
 Vibration     8          0.793              1.401              0.853
 Vibration     9          0.897              1.158              0.561
 Vibration    10          0.932              1.084              0.493

 Optimization completed.
    -- Stationary point found.
 Normal termination of Gaussian 09 at Tue Jan 28 09:09:02 2020.
