 Gaussian 09, Revision D.01,
 Gaussian 09:  ES64L-G09RevD.01 24-Apr-2013

 -----------------------------
 # b3lyp 6-31G(2df,p) opt Freq
 -----------------------------

 -----
 titel
 -----
 Symbolic Z-matrix:
 Charge =  0 Multiplicity = 1

 SCF Done:  E(RB3LYP) =  -423.189092766     A.U. after   14 cycles
 Optimization completed.
    -- Stationary point found.
 Normal termination of Gaussian 09 at Mon Jan 27 13:15:07 2020.

 ----------------------------------------------------------------------
 #N Geom=AllCheck Guess=TCheck SCRF=Check GenChk RB3LYP/6-31G(2df,p) Fr
 eq
 ----------------------------------------------------------------------

 Structure from the checkpoint file:  "/scratch/puck/g09_e2bde2a0-cff2-478e-af31-c267a5674d4a/Gau-169532.chk"
 -----
 titel
 -----
 Charge =  0 Multiplicity = 1

                         Standard orientation:
 ---------------------------------------------------------------------
 Center     Atomic      Atomic             Coordinates (Angstroms)
 Number     Number       Type             X           Y           Z
 ---------------------------------------------------------------------
      1          8           0       -3.373495    0.039508   -0.645365
      2          6           0       -2.460353   -0.017007    0.141902
      3          6           0       -1.029517    0.016580   -0.211858
      4          6           0       -0.045450    0.679924    0.755365
      5          6           0        1.131098    1.489993    0.235591
      6          6           0        2.029447    0.664688   -0.700462
      7          6           0        2.219779   -0.738706   -0.131821
      8          8           0        0.985529   -1.451236   -0.072536
      9          6           0       -0.032803   -0.803957    0.620639
     10          1           0       -2.654115   -0.105561    1.239333
     11          1           0       -0.813189    0.073171   -1.272872
     12          1           0       -0.501119    1.065642    1.663927
     13          1           0        0.783639    2.404545   -0.256842
     14          1           0        1.725027    1.806746    1.102318
     15          1           0        1.587752    0.583372   -1.700178
     16          1           0        3.001098    1.155891   -0.817912
     17          1           0        2.870743   -1.345828   -0.765799
     18          1           0        2.674575   -0.682679    0.870396
     19          1           0       -0.443900   -1.410558    1.424711
 ---------------------------------------------------------------------

 SCF Done:  E(RB3LYP) =  -423.189092766     A.U. after    1 cycles

 The electronic state is 1-A.
 Alpha  occ. eigenvalues --  -19.15504 -19.12741 -10.26512 -10.25380 -10.23905
 Alpha  occ. eigenvalues --  -10.21448 -10.20290 -10.19961 -10.19559  -1.05223
 Alpha  occ. eigenvalues --   -1.03511  -0.87412  -0.80105  -0.70781  -0.64978
 Alpha  occ. eigenvalues --   -0.64597  -0.58454  -0.54832  -0.51090  -0.49946
 Alpha  occ. eigenvalues --   -0.47128  -0.45909  -0.44384  -0.42941  -0.41127
 Alpha  occ. eigenvalues --   -0.39575  -0.38853  -0.37915  -0.36074  -0.34225
 Alpha  occ. eigenvalues --   -0.31613  -0.28811  -0.25745  -0.24140
 Alpha virt. eigenvalues --   -0.01562   0.07772   0.08722   0.10394   0.11432
 Alpha virt. eigenvalues --    0.12905   0.13572   0.14653   0.15018   0.16118
 Alpha virt. eigenvalues --    0.17061   0.18001   0.18813   0.19875   0.21167

 Mulliken charges:
               1
     1  O   -0.272297
     2  C    0.158956
     3  C   -0.143265
     4  C   -0.082401
     5  C   -0.232243
     6  C   -0.220528
     7  C   -0.061511
     8  O   -0.253975
     9  C    0.086093
    10  H    0.058256
    11  H    0.110067
    12  H    0.098269
    13  H    0.113107
    14  H    0.109230
    15  H    0.116039
    16  H    0.104203
    17  H    0.115047
    18  H    0.092582
    19  H    0.104372
 Sum of Mulliken charges =   0.00000

 Dipole moment (field-independent basis, Debye):
    X=              3.6198    Y=              1.2645    Z=              1.7069  Tot=              4.1970
 Quadrupole moment (field-independent basis, Debye-Ang):
   XX=            -62.1110   YY=            -54.5315   ZZ=            -51.7725
   XY=              1.5817   XZ=             -5.3508   YZ=             -0.4704

  Exact polarizability:  99.609   0.574  66.093   1.374  -0.467  68.917
 Approx polarizability: 133.882  -0.980  98.911  11.501   0.152 109.808

                      1                      2                      3
                      A                      A                      A
 Frequencies --     97.3496               102.9498               222.0281
 Red. masses --      5.6992                 3.5834                 3.2979
 Frc consts  --      0.0318                 0.0224                 0.0958
 IR Inten    --      3.4360                 0.2949                 9.0200

                      4                      5                      6
                      A                      A                      A
 Frequencies --    232.5996               270.7613               340.4577
 Red. masses --      2.1282                 2.2989                 2.1340
 Frc consts  --      0.0678                 0.0993                 0.1457
 IR Inten    --      1.9561                 0.7131                 4.3456

                      7                      8                      9
                      A                      A                      A
 Frequencies --    358.0859               487.3720               501.6467
 Red. masses --      4.0488                 2.6725                 4.8545
 Frc consts  --      0.3059                 0.3740                 0.7198
 IR Inten    --      1.0035                 0.9210                 2.4432

                     10                     11                     12
                      A                      A                      A
 Frequencies --    526.7944               668.2946               765.7282
 Red. masses --      4.2347                 2.2029                 3.7012
 Frc consts  --      0.6924                 0.5797                 1.2786
 IR Inten    --     26.8628                 3.0750                14.3356

                     13                     14                     15
                      A                      A                      A
 Frequencies --    812.8498               870.2602               877.1072
 Red. masses --      3.1320                 2.3882                 1.5388
 Frc consts  --      1.2192                 1.0657                 0.6975
 IR Inten    --      7.1465                23.2407                 3.6206

                     16                     17                     18
                      A                      A                      A
 Frequencies --    918.2443               960.3024               997.1174
 Red. masses --      2.8365                 1.6574                 1.8044
 Frc consts  --      1.4091                 0.9005                 1.0570
 IR Inten    --     12.8431                 5.1742                 4.8931

                     19                     20                     21
                      A                      A                      A
 Frequencies --   1015.3706              1044.9745              1055.0093
 Red. masses --      2.1794                 1.7516                 2.0239
 Frc consts  --      1.3239                 1.1269                 1.3272
 IR Inten    --     44.4328                 4.7662                50.1012

                     22                     23                     24
                      A                      A                      A
 Frequencies --   1083.1168              1101.3545              1125.1484
 Red. masses --      1.6206                 1.4590                 2.2379
 Frc consts  --      1.1202                 1.0427                 1.6692
 IR Inten    --      8.4063                30.8970                 5.6616

                     25                     26                     27
                      A                      A                      A
 Frequencies --   1152.8987              1173.4527              1218.6871
 Red. masses --      1.8784                 2.1918                 1.5381
 Frc consts  --      1.4711                 1.7782                 1.3459
 IR Inten    --      2.9725               148.8559                10.0366

                     28                     29                     30
                      A                      A                      A
 Frequencies --   1235.2733              1261.2026              1271.6560
 Red. masses --      1.5103                 1.6999                 1.3302
 Frc consts  --      1.3579                 1.5931                 1.2673
 IR Inten    --      7.9532                24.2275                14.2757

                     31                     32                     33
                      A                      A                      A
 Frequencies --   1307.7216              1349.4301              1370.1633
 Red. masses --      1.1582                 1.2221                 1.5347
 Frc consts  --      1.1670                 1.3111                 1.6975
 IR Inten    --      7.8314                 1.5650                 1.3418

                     34                     35                     36
                      A                      A                      A
 Frequencies --   1380.8194              1411.8675              1428.4356
 Red. masses --      1.4702                 1.3570                 1.3706
 Frc consts  --      1.6515                 1.5938                 1.6477
 IR Inten    --      8.2585                12.1945                 4.9830

                     37                     38                     39
                      A                      A                      A
 Frequencies --   1452.3724              1484.0618              1494.7564
 Red. masses --      1.7963                 1.0906                 1.1180
 Frc consts  --      2.2325                 1.4152                 1.4717
 IR Inten    --     33.2148                 4.9564                 5.2227

                     40                     41                     42
                      A                      A                      A
 Frequencies --   1504.9581              1815.6222              2825.5294
 Red. masses --      1.0987                10.0999                 1.0802
 Frc consts  --      1.4661                19.6164                 5.0812
 IR Inten    --      1.8724               301.9086               107.1537

                     43                     44                     45
                      A                      A                      A
 Frequencies --   2978.2378              3025.9704              3041.3119
 Red. masses --      1.0708                 1.0632                 1.0619
 Frc consts  --      5.5962                 5.7359                 5.7870
 IR Inten    --     59.5995                28.8016                14.6493

                     46                     47                     48
                      A                      A                      A
 Frequencies --   3068.0348              3087.0719              3098.1155
 Red. masses --      1.0974                 1.1032                 1.0935
 Frc consts  --      6.0859                 6.1945                 6.1841
 IR Inten    --     24.5731                39.9068                33.3917

                     49                     50                     51
                      A                      A                      A
 Frequencies --   3124.2451              3137.7081              3186.5711
 Red. masses --      1.0878                 1.0895                 1.0886
 Frc consts  --      6.2560                 6.3199                 6.5129
 IR Inten    --     15.7853                19.9434                 2.6397

 - Thermochemistry -
 -------------------
 Temperature   298.150 Kelvin.  Pressure   1.00000 Atm.
 Atom     1 has atomic number  8 and mass  15.99491

 Molecular mass:   126.06808 amu.
 Principal axes and moments of inertia in atomic units:
                           1         2         3
     Eigenvalues --   505.326061733.193261953.77991
           X            0.99978   0.01204  -0.01708
           Y           -0.01221   0.99988  -0.00992
           Z            0.01696   0.01012   0.99980
 This molecule is an asymmetric top.
 Rotational symmetry number  1.
 Warning -- assumption of classical behavior for rotation
           may cause significant error
 Rotational temperatures (Kelvin)      0.17140     0.04997     0.04433
 Rotational constants (GHZ):           3.57144     1.04128     0.92372
 Zero-point vibrational energy     420613.6 (Joules/Mol)
                                  100.52906 (Kcal/Mol)
 Warning -- explicit consideration of  10 degrees of freedom as
           vibrations may cause significant error
 Vibrational temperatures:    140.06   148.12   319.45   334.66   389.56
          (Kelvin)            489.84   515.21   701.22   721.76   757.94
                              961.53  1101.71  1169.51  1252.11  1261.96
                             1321.15  1381.66  1434.63  1460.89  1503.48
                             1517.92  1558.36  1584.60  1618.84  1658.76
                             1688.33  1753.42  1777.28  1814.59  1829.63
                             1881.52  1941.53  1971.36  1986.69  2031.36
                             2055.20  2089.64  2135.23  2150.62  2165.30
                             2612.27  4065.30  4285.01  4353.69  4375.76
                             4414.21  4441.60  4457.49  4495.09  4514.46
                             4584.76

 Zero-point correction=                           0.160203 (Hartree/Particle)
 Thermal correction to Energy=                    0.168263
 Thermal correction to Enthalpy=                  0.169207
 Thermal correction to Gibbs Free Energy=         0.127314
 Sum of electronic and zero-point Energies=           -423.028890
 Sum of electronic and thermal Energies=              -423.020830
 Sum of electronic and thermal Enthalpies=            -423.019886
 Sum of electronic and thermal Free Energies=         -423.061778

                     E (Thermal)             CV                S
                      KCal/Mol        Cal/Mol-Kelvin    Cal/Mol-Kelvin
 Total                  105.587             30.689             88.171
 Electronic               0.000              0.000              0.000
 Translational            0.889              2.981             40.409
 Rotational               0.889              2.981             28.927
 Vibrational            103.809             24.727             18.835
 Vibration     1          0.603              1.951              3.507
 Vibration     2          0.605              1.947              3.398
 Vibration     3          0.648              1.808              1.942
 Vibration     4          0.653              1.791              1.859
 Vibration     5          0.674              1.727              1.591
 Vibration     6          0.720              1.595              1.210
 Vibration     7          0.733              1.559              1.130
 Vibration     8          0.843              1.278              0.690
 Vibration     9          0.857              1.246              0.654
 Vibration    10          0.882              1.191              0.594

 Normal termination of Gaussian 09 at Mon Jan 27 13:57:33 2020.
