 Gaussian 09, Revision D.01,
 Gaussian 09:  ES64L-G09RevD.01 24-Apr-2013

 -----------------------------
 # b3lyp 6-31G(2df,p) opt Freq
 -----------------------------

 -----
 titel
 -----
 Symbolic Z-matrix:
 Charge =  0 Multiplicity = 1

 SCF Done:  E(RB3LYP) =  -423.155414656     A.U. after   13 cycles
 SCF Done:  E(RB3LYP) =  -423.155414658     A.U. after    6 cycles
 Optimization completed.
    -- Stationary point found.
 Normal termination of Gaussian 09 at Mon Jan 27 22:05:51 2020.

 ----------------------------------------------------------------------
 #N Geom=AllCheck Guess=TCheck SCRF=Check GenChk RB3LYP/6-31G(2df,p) Fr
 eq
 ----------------------------------------------------------------------

 Structure from the checkpoint file:  "/scratch/puck/g09_a8242d1a-e7ae-4aed-b54c-c08a600638dc/Gau-98608.chk"
 -----
 titel
 -----
 Charge =  0 Multiplicity = 1

                         Standard orientation:
 ---------------------------------------------------------------------
 Center     Atomic      Atomic             Coordinates (Angstroms)
 Number     Number       Type             X           Y           Z
 ---------------------------------------------------------------------
      1          6           0        2.388179    0.223986    0.400438
      2          6           0        0.991007   -0.211982    0.070129
      3          8           0        0.000097   -0.025232    1.152143
      4          6           0       -0.990940   -0.212087    0.070207
      5          6           0       -2.388139    0.223683    0.400674
      6          6           0       -0.668253   -1.624342   -0.412051
      7          6           0        0.668414   -1.624483   -0.411485
      8          6           0       -0.000084    0.627777   -0.833662
      9          8           0       -0.000235    1.998227   -0.602755
     10          1           0        3.069496   -0.027780   -0.418356
     11          1           0        2.428762    1.305649    0.557259
     12          1           0        2.740988   -0.273955    1.308665
     13          1           0       -3.069482   -0.028024   -0.418116
     14          1           0       -2.740840   -0.274434    1.308847
     15          1           0       -2.428825    1.305318    0.557665
     16          1           0       -1.375474   -2.380032   -0.723011
     17          1           0        1.375724   -2.380291   -0.721951
     18          1           0       -0.000142    0.456133   -1.911918
     19          1           0       -0.000206    2.098145    0.360316
 ---------------------------------------------------------------------

 SCF Done:  E(RB3LYP) =  -423.155414658     A.U. after    1 cycles

 The electronic state is 1-A.
 Alpha  occ. eigenvalues --  -19.14485 -19.13123 -10.24104 -10.24104 -10.23660
 Alpha  occ. eigenvalues --  -10.18555 -10.18468 -10.18164 -10.18164  -1.05950
 Alpha  occ. eigenvalues --   -1.01238  -0.80666  -0.76885  -0.72663  -0.68329
 Alpha  occ. eigenvalues --   -0.61657  -0.56965  -0.53570  -0.50307  -0.47959
 Alpha  occ. eigenvalues --   -0.45606  -0.45433  -0.42364  -0.41311  -0.40657
 Alpha  occ. eigenvalues --   -0.38897  -0.36762  -0.35862  -0.34790  -0.34301
 Alpha  occ. eigenvalues --   -0.33412  -0.25756  -0.25325  -0.24280
 Alpha virt. eigenvalues --    0.00105   0.08968   0.10251   0.11427   0.12515
 Alpha virt. eigenvalues --    0.13378   0.15103   0.15824   0.15836   0.16566
 Alpha virt. eigenvalues --    0.16933   0.18202   0.19804   0.20797   0.22283

 Mulliken charges:
               1
     1  C   -0.514872
     2  C    0.316888
     3  O   -0.381666
     4  C    0.317059
     5  C   -0.514869
     6  C   -0.130286
     7  C   -0.130077
     8  C    0.123090
     9  O   -0.448450
    10  H    0.124940
    11  H    0.125722
    12  H    0.135286
    13  H    0.124940
    14  H    0.135290
    15  H    0.125719
    16  H    0.110288
    17  H    0.110286
    18  H    0.085515
    19  H    0.285198
 Sum of Mulliken charges =   0.00000

 Dipole moment (field-independent basis, Debye):
    X=             -0.0001    Y=             -1.0407    Z=             -0.5725  Tot=              1.1877
 Quadrupole moment (field-independent basis, Debye-Ang):
   XX=            -48.1465   YY=            -54.1254   ZZ=            -55.4454
   XY=              0.0004   XZ=              0.0002   YZ=              4.2068

  Exact polarizability:  90.081  -0.002  76.763   0.004   3.847  60.787
 Approx polarizability: 129.284  -0.007 114.571   0.015   4.205  98.913

                      1                      2                      3
                      A                      A                      A
 Frequencies --    181.6852               183.2693               190.6055
 Red. masses --      1.0442                 1.0771                 2.7941
 Frc consts  --      0.0203                 0.0213                 0.0598
 IR Inten    --      0.5037                 0.2009                 2.9378

                      4                      5                      6
                      A                      A                      A
 Frequencies --    229.3189               236.2426               315.8972
 Red. masses --      3.6440                 2.6122                 3.2186
 Frc consts  --      0.1129                 0.0859                 0.1892
 IR Inten    --      0.6540                 1.6572                10.7071

                      7                      8                      9
                      A                      A                      A
 Frequencies --    353.7691               419.6604               489.2742
 Red. masses --      2.5436                 2.9076                 3.7975
 Frc consts  --      0.1876                 0.3017                 0.5356
 IR Inten    --      0.7238                 2.2719                 3.3634

                     10                     11                     12
                      A                      A                      A
 Frequencies --    547.5043               596.7372               598.4102
 Red. masses --      1.8329                 1.4818                 3.9860
 Frc consts  --      0.3237                 0.3109                 0.8410
 IR Inten    --     12.2907                82.5934                 2.4559

                     13                     14                     15
                      A                      A                      A
 Frequencies --    658.9345               692.7607               714.1736
 Red. masses --      2.4863                 3.8144                 2.2738
 Frc consts  --      0.6361                 1.0786                 0.6833
 IR Inten    --      2.4190                 0.0926                28.0758

                     16                     17                     18
                      A                      A                      A
 Frequencies --    733.6281               809.5063               831.0121
 Red. masses --      4.7208                 3.5646                 2.1237
 Frc consts  --      1.4970                 1.3763                 0.8641
 IR Inten    --      7.6056                33.9851                 8.6575

                     19                     20                     21
                      A                      A                      A
 Frequencies --    885.4386               891.4770               901.8575
 Red. masses --      2.2748                 1.6724                 1.5318
 Frc consts  --      1.0508                 0.7831                 0.7340
 IR Inten    --      3.6789                 4.6130                 2.2269

                     22                     23                     24
                      A                      A                      A
 Frequencies --    923.7634              1053.1183              1073.9909
 Red. masses --      4.8019                 1.1169                 1.8229
 Frc consts  --      2.4142                 0.7298                 1.2388
 IR Inten    --     45.5170                 6.4276                 5.4747

                     25                     26                     27
                      A                      A                      A
 Frequencies --   1121.8528              1133.6228              1164.4938
 Red. masses --      3.1258                 1.8073                 2.0925
 Frc consts  --      2.3179                 1.3684                 1.6718
 IR Inten    --    116.0782                 9.0649                48.8448

                     28                     29                     30
                      A                      A                      A
 Frequencies --   1179.7819              1181.5953              1213.9107
 Red. masses --      2.4768                 1.4345                 2.6033
 Frc consts  --      2.0312                 1.1800                 2.2602
 IR Inten    --     26.4582                 0.1179                18.9387

                     31                     32                     33
                      A                      A                      A
 Frequencies --   1271.8163              1338.2116              1352.3240
 Red. masses --      1.5734                 2.1738                 2.1951
 Frc consts  --      1.4995                 2.2936                 2.3651
 IR Inten    --      4.5047                21.7329                 1.6263

                     34                     35                     36
                      A                      A                      A
 Frequencies --   1410.6424              1419.5109              1433.6557
 Red. masses --      1.3854                 1.5159                 1.5757
 Frc consts  --      1.6242                 1.7997                 1.9082
 IR Inten    --     17.9925                10.0037                89.5121

                     37                     38                     39
                      A                      A                      A
 Frequencies --   1481.2784              1482.0012              1488.3905
 Red. masses --      1.0505                 1.0479                 1.0461
 Frc consts  --      1.3580                 1.3561                 1.3653
 IR Inten    --     11.8580                 0.3022                 0.8123

                     40                     41                     42
                      A                      A                      A
 Frequencies --   1490.7987              1614.1193              3040.8853
 Red. masses --      1.0499                 6.3830                 1.0350
 Frc consts  --      1.3747                 9.7983                 5.6387
 IR Inten    --      7.1306                 1.1052                31.3275

                     43                     44                     45
                      A                      A                      A
 Frequencies --   3041.1150              3104.4377              3113.4182
 Red. masses --      1.0349                 1.0885                 1.1010
 Frc consts  --      5.6393                 6.1808                 6.2880
 IR Inten    --      2.9234                30.7288                 0.9962

                     46                     47                     48
                      A                      A                      A
 Frequencies --   3113.4355              3116.0522              3116.2143
 Red. masses --      1.1007                 1.1018                 1.1017
 Frc consts  --      6.2865                 6.3031                 6.3031
 IR Inten    --     28.0138                 0.1249                22.6868

                     49                     50                     51
                      A                      A                      A
 Frequencies --   3221.6491              3248.3929              3741.9866
 Red. masses --      1.0864                 1.1109                 1.0638
 Frc consts  --      6.6438                 6.9064                 8.7764
 IR Inten    --      2.5833                 7.0070                22.4745

 - Thermochemistry -
 -------------------
 Temperature   298.150 Kelvin.  Pressure   1.00000 Atm.
 Atom     1 has atomic number  6 and mass  12.00000

 Molecular mass:   126.06808 amu.
 Principal axes and moments of inertia in atomic units:
                           1         2         3
     Eigenvalues --   737.74440 976.916721339.28383
           X            1.00000   0.00002   0.00000
           Y           -0.00002   0.99920   0.03991
           Z            0.00000  -0.03991   0.99920
 This molecule is an asymmetric top.
 Rotational symmetry number  1.
 Warning -- assumption of classical behavior for rotation
           may cause significant error
 Rotational temperatures (Kelvin)      0.11740     0.08866     0.06467
 Rotational constants (GHZ):           2.44630     1.84738     1.34754
 Zero-point vibrational energy     413594.7 (Joules/Mol)
                                   98.85150 (Kcal/Mol)
 Warning -- explicit consideration of  12 degrees of freedom as
           vibrations may cause significant error
 Vibrational temperatures:    261.40   263.68   274.24   329.94   339.90
          (Kelvin)            454.51   508.99   603.80   703.96   787.74
                              858.57   860.98   948.06   996.73  1027.54
                             1055.53  1164.70  1195.64  1273.95  1282.63
                             1297.57  1329.09  1515.20  1545.23  1614.09
                             1631.03  1675.44  1697.44  1700.05  1746.54
                             1829.86  1925.39  1945.69  2029.60  2042.36
                             2062.71  2131.23  2132.27  2141.46  2144.92
                             2322.35  4375.15  4375.48  4466.59  4479.51
                             4479.53  4483.30  4483.53  4635.23  4673.71
                             5383.88

 Zero-point correction=                           0.157530 (Hartree/Particle)
 Thermal correction to Energy=                    0.165996
 Thermal correction to Enthalpy=                  0.166940
 Thermal correction to Gibbs Free Energy=         0.125311
 Sum of electronic and zero-point Energies=           -422.997885
 Sum of electronic and thermal Energies=              -422.989419
 Sum of electronic and thermal Enthalpies=            -422.988475
 Sum of electronic and thermal Free Energies=         -423.030103

                     E (Thermal)             CV                S
                      KCal/Mol        Cal/Mol-Kelvin    Cal/Mol-Kelvin
 Total                  104.164             33.890             87.615
 Electronic               0.000              0.000              0.000
 Translational            0.889              2.981             40.409
 Rotational               0.889              2.981             28.358
 Vibrational            102.386             27.928             18.848
 Vibration     1          0.630              1.865              2.311
 Vibration     2          0.631              1.863              2.295
 Vibration     3          0.634              1.853              2.222
 Vibration     4          0.652              1.796              1.884
 Vibration     5          0.655              1.785              1.831
 Vibration     6          0.703              1.643              1.331
 Vibration     7          0.730              1.568              1.149
 Vibration     8          0.782              1.428              0.893
 Vibration     9          0.845              1.274              0.685
 Vibration    10          0.903              1.145              0.549
 Vibration    11          0.955              1.039              0.455
 Vibration    12          0.956              1.035              0.452

 Optimization completed.
    -- Stationary point found.
 Normal termination of Gaussian 09 at Mon Jan 27 22:51:21 2020.
