 Gaussian 09, Revision D.01,
 Gaussian 09:  ES64L-G09RevD.01 24-Apr-2013

 -----------------------------
 # b3lyp 6-31G(2df,p) opt Freq
 -----------------------------

 -----
 titel
 -----
 Symbolic Z-matrix:
 Charge =  0 Multiplicity = 1

 SCF Done:  E(RB3LYP) =  -423.162756224     A.U. after   14 cycles
 Optimization completed.
    -- Stationary point found.
 Normal termination of Gaussian 09 at Tue Jan 28 08:20:46 2020.

 ----------------------------------------------------------------------
 #N Geom=AllCheck Guess=TCheck SCRF=Check GenChk RB3LYP/6-31G(2df,p) Fr
 eq
 ----------------------------------------------------------------------

 Structure from the checkpoint file:  "/scratch/puck/g09_ea453631-81e4-417e-a29d-600da128145e/Gau-106666.chk"
 -----
 titel
 -----
 Charge =  0 Multiplicity = 1

                         Standard orientation:
 ---------------------------------------------------------------------
 Center     Atomic      Atomic             Coordinates (Angstroms)
 Number     Number       Type             X           Y           Z
 ---------------------------------------------------------------------
      1          6           0       -2.217977   -0.062604    1.345100
      2          6           0       -1.943719   -0.263275   -0.134841
      3          8           0       -2.759659    0.021697   -0.978825
      4          6           0       -0.597683   -0.874478   -0.526222
      5          6           0        0.639313   -0.282427    0.185329
      6          6           0        1.934748   -0.984184   -0.290604
      7          8           0        3.082192   -0.507034    0.371641
      8          6           0        0.758304    1.159753   -0.026290
      9          6           0        0.897625    2.338844   -0.221197
     10          1           0       -3.271596    0.178430    1.489463
     11          1           0       -1.952353   -0.952730    1.925694
     12          1           0       -1.607706    0.765454    1.723236
     13          1           0       -0.643838   -1.947007   -0.289616
     14          1           0       -0.502355   -0.778316   -1.610780
     15          1           0        0.560980   -0.465877    1.264371
     16          1           0        1.864788   -2.052195   -0.060189
     17          1           0        2.015610   -0.879179   -1.383761
     18          1           0        3.138381    0.440702    0.199461
     19          1           0        0.994162    3.383635   -0.388065
 ---------------------------------------------------------------------

 SCF Done:  E(RB3LYP) =  -423.162756224     A.U. after    2 cycles

 The electronic state is 1-A.
 Alpha  occ. eigenvalues --  -19.14164 -19.12971 -10.27429 -10.24189 -10.22801
 Alpha  occ. eigenvalues --  -10.20389 -10.19695 -10.19116 -10.18974  -1.04122
 Alpha  occ. eigenvalues --   -1.02645  -0.83311  -0.75838  -0.73848  -0.69633
 Alpha  occ. eigenvalues --   -0.64159  -0.54667  -0.53635  -0.51521  -0.49465
 Alpha  occ. eigenvalues --   -0.46534  -0.45888  -0.44630  -0.42712  -0.41378
 Alpha  occ. eigenvalues --   -0.40134  -0.38951  -0.37264  -0.35197  -0.33862
 Alpha  occ. eigenvalues --   -0.29263  -0.28270  -0.27253  -0.24445
 Alpha virt. eigenvalues --   -0.01477   0.03396   0.03501   0.08652   0.09493
 Alpha virt. eigenvalues --    0.11313   0.11662   0.13319   0.14354   0.15237
 Alpha virt. eigenvalues --    0.16526   0.17087   0.18212   0.19407   0.21206

 Mulliken charges:
               1
     1  C   -0.484535
     2  C    0.391382
     3  O   -0.292762
     4  C   -0.303809
     5  C   -0.188536
     6  C   -0.058840
     7  O   -0.420264
     8  C    0.323080
     9  C   -0.476725
    10  H    0.143822
    11  H    0.131569
    12  H    0.155585
    13  H    0.122258
    14  H    0.130769
    15  H    0.118786
    16  H    0.112405
    17  H    0.099299
    18  H    0.287846
    19  H    0.208670
 Sum of Mulliken charges =   0.00000

 Dipole moment (field-independent basis, Debye):
    X=              0.8462    Y=              0.0385    Z=              1.1646  Tot=              1.4401
 Quadrupole moment (field-independent basis, Debye-Ang):
   XX=            -65.4665   YY=            -46.5799   ZZ=            -54.7130
   XY=              5.2355   XZ=             -8.1044   YZ=             -0.0200

  Exact polarizability:  81.484   0.875  85.736   0.306  -2.169  65.447
 Approx polarizability: 106.492   1.138 137.012   8.066  -9.186 101.146

                      1                      2                      3
                      A                      A                      A
 Frequencies --     43.6392                61.0399               100.4581
 Red. masses --      4.5690                 4.3974                 4.0081
 Frc consts  --      0.0051                 0.0097                 0.0238
 IR Inten    --      3.9262                 2.4827                 2.3531

                      4                      5                      6
                      A                      A                      A
 Frequencies --    140.4996               156.1872               171.6837
 Red. masses --      3.3958                 1.1746                 2.1733
 Frc consts  --      0.0395                 0.0169                 0.0377
 IR Inten    --      1.9584                 0.1927                 0.7798

                      7                      8                      9
                      A                      A                      A
 Frequencies --    222.1721               271.5260               368.0109
 Red. masses --      3.0152                 3.9985                 2.6136
 Frc consts  --      0.0877                 0.1737                 0.2086
 IR Inten    --      0.5646                 1.4227                34.5312

                     10                     11                     12
                      A                      A                      A
 Frequencies --    394.9784               410.7068               484.3369
 Red. masses --      1.6660                 2.0950                 4.0376
 Frc consts  --      0.1531                 0.2082                 0.5580
 IR Inten    --     49.7742                47.9245                 3.9025

                     13                     14                     15
                      A                      A                      A
 Frequencies --    534.9994               549.8486               625.0277
 Red. masses --      2.6471                 3.3805                 3.2509
 Frc consts  --      0.4464                 0.6022                 0.7483
 IR Inten    --      3.4853                 9.6061                18.2369

                     16                     17                     18
                      A                      A                      A
 Frequencies --    637.0996               664.0059               777.2970
 Red. masses --      1.2347                 1.2225                 2.9461
 Frc consts  --      0.2953                 0.3176                 1.0487
 IR Inten    --     41.1570                46.0083                 1.5814

                     19                     20                     21
                      A                      A                      A
 Frequencies --    793.4870               864.1951               969.1031
 Red. masses --      2.8861                 1.6150                 1.4967
 Frc consts  --      1.0707                 0.7106                 0.8282
 IR Inten    --      1.3045                 5.0483                 9.3966

                     22                     23                     24
                      A                      A                      A
 Frequencies --    990.3747              1054.8409              1074.4426
 Red. masses --      2.0900                 2.7401                 2.2979
 Frc consts  --      1.2078                 1.7963                 1.5630
 IR Inten    --      7.3171                 1.2626                43.4353

                     25                     26                     27
                      A                      A                      A
 Frequencies --   1094.1547              1097.9831              1178.0080
 Red. masses --      3.8518                 2.9052                 1.5279
 Frc consts  --      2.7169                 2.0636                 1.2493
 IR Inten    --     77.2674                 3.7751                12.1738

                     28                     29                     30
                      A                      A                      A
 Frequencies --   1212.9944              1244.7527              1268.5798
 Red. masses --      1.2408                 1.7844                 1.2694
 Frc consts  --      1.0756                 1.6290                 1.2036
 IR Inten    --     28.2417                43.9304                22.0096

                     31                     32                     33
                      A                      A                      A
 Frequencies --   1335.5098              1366.5294              1380.4575
 Red. masses --      1.4828                 1.4243                 1.3320
 Frc consts  --      1.5582                 1.5671                 1.4956
 IR Inten    --      1.8786                12.4392                40.3376

                     34                     35                     36
                      A                      A                      A
 Frequencies --   1386.4598              1427.4000              1458.6972
 Red. masses --      1.2080                 1.2197                 1.0823
 Frc consts  --      1.3681                 1.4642                 1.3568
 IR Inten    --      0.1770                71.5518                 2.4718

                     37                     38                     39
                      A                      A                      A
 Frequencies --   1464.8351              1479.6746              1504.9732
 Red. masses --      1.0551                 1.0492                 1.0890
 Frc consts  --      1.3339                 1.3534                 1.4533
 IR Inten    --      7.1190                 9.3415                 0.4980

                     40                     41                     42
                      A                      A                      A
 Frequencies --   1816.5819              2227.2798              2984.6953
 Red. masses --     10.7652                 5.9242                 1.0682
 Frc consts  --     20.9306                17.3154                 5.6065
 IR Inten    --    162.2829                 0.3238                42.7863

                     43                     44                     45
                      A                      A                      A
 Frequencies --   3018.3353              3032.6267              3038.0664
 Red. masses --      1.0659                 1.0733                 1.0441
 Frc consts  --      5.7215                 5.8157                 5.6776
 IR Inten    --     13.3676                 6.2039                 7.5519

                     46                     47                     48
                      A                      A                      A
 Frequencies --   3079.5336              3099.2737              3105.6686
 Red. masses --      1.0953                 1.0984                 1.0953
 Frc consts  --      6.1200                 6.2162                 6.2246
 IR Inten    --     30.2049                 6.0877                13.5023

                     49                     50                     51
                      A                      A                      A
 Frequencies --   3153.0308              3499.8984              3783.8331
 Red. masses --      1.1015                 1.1618                 1.0656
 Frc consts  --      6.4521                 8.3848                 8.9886
 IR Inten    --      9.5646                69.4891                24.0908

 - Thermochemistry -
 -------------------
 Temperature   298.150 Kelvin.  Pressure   1.00000 Atm.
 Atom     1 has atomic number  6 and mass  12.00000

 Molecular mass:   126.06808 amu.
 Principal axes and moments of inertia in atomic units:
                           1         2         3
     Eigenvalues --   682.910141948.678022204.63537
           X            0.99959   0.00205  -0.02869
           Y           -0.00164   0.99990   0.01418
           Z            0.02872  -0.01412   0.99949
 This molecule is an asymmetric top.
 Rotational symmetry number  1.
 Warning -- assumption of classical behavior for rotation
           may cause significant error
 Rotational temperatures (Kelvin)      0.12683     0.04445     0.03929
 Rotational constants (GHZ):           2.64272     0.92614     0.81861
 Zero-point vibrational energy     407327.2 (Joules/Mol)
                                   97.35354 (Kcal/Mol)
 Warning -- explicit consideration of  14 degrees of freedom as
           vibrations may cause significant error
 Vibrational temperatures:     62.79    87.82   144.54   202.15   224.72
          (Kelvin)            247.01   319.66   390.66   529.48   568.29
                              590.91   696.85   769.74   791.11   899.27
                              916.64   955.36  1118.36  1141.65  1243.38
                             1394.32  1424.93  1517.68  1545.88  1574.24
                             1579.75  1694.89  1745.23  1790.92  1825.20
                             1921.50  1966.13  1986.17  1994.80  2053.71
                             2098.74  2107.57  2128.92  2165.32  2613.65
                             3204.55  4294.31  4342.71  4363.27  4371.09
                             4430.76  4459.16  4468.36  4536.50  5035.57
                             5444.09

 Zero-point correction=                           0.155143 (Hartree/Particle)
 Thermal correction to Energy=                    0.165788
 Thermal correction to Enthalpy=                  0.166732
 Thermal correction to Gibbs Free Energy=         0.118503
 Sum of electronic and zero-point Energies=           -423.007613
 Sum of electronic and thermal Energies=              -422.996968
 Sum of electronic and thermal Enthalpies=            -422.996024
 Sum of electronic and thermal Free Energies=         -423.044253

                     E (Thermal)             CV                S
                      KCal/Mol        Cal/Mol-Kelvin    Cal/Mol-Kelvin
 Total                  104.033             37.554            101.506
 Electronic               0.000              0.000              0.000
 Translational            0.889              2.981             40.409
 Rotational               0.889              2.981             29.463
 Vibrational            102.256             31.592             31.634
 Vibration     1          0.595              1.980              5.087
 Vibration     2          0.597              1.973              4.423
 Vibration     3          0.604              1.949              3.445
 Vibration     4          0.615              1.913              2.797
 Vibration     5          0.620              1.896              2.595
 Vibration     6          0.626              1.877              2.417
 Vibration     7          0.648              1.807              1.941
 Vibration     8          0.675              1.726              1.586
 Vibration     9          0.741              1.538              1.088
 Vibration    10          0.762              1.481              0.981
 Vibration    11          0.775              1.447              0.924
 Vibration    12          0.840              1.285              0.698
 Vibration    13          0.890              1.173              0.576
 Vibration    14          0.905              1.140              0.544

 Normal termination of Gaussian 09 at Tue Jan 28 09:03:54 2020.
