 Gaussian 09, Revision D.01,
 Gaussian 09:  ES64L-G09RevD.01 24-Apr-2013

 -----------------------------
 # b3lyp 6-31G(2df,p) opt Freq
 -----------------------------

 -----
 titel
 -----
 Symbolic Z-matrix:
 Charge =  0 Multiplicity = 1

 SCF Done:  E(RB3LYP) =  -423.184616410     A.U. after   14 cycles
 Optimization completed.
    -- Stationary point found.
 Normal termination of Gaussian 09 at Mon Jan 27 17:07:37 2020.

 ----------------------------------------------------------------------
 #N Geom=AllCheck Guess=TCheck SCRF=Check GenChk RB3LYP/6-31G(2df,p) Fr
 eq
 ----------------------------------------------------------------------

 Structure from the checkpoint file:  "/scratch/puck/g09_d9e3f2e0-f753-41ca-b784-4b8bb2dc5a2f/Gau-179190.chk"
 -----
 titel
 -----
 Charge =  0 Multiplicity = 1

                         Standard orientation:
 ---------------------------------------------------------------------
 Center     Atomic      Atomic             Coordinates (Angstroms)
 Number     Number       Type             X           Y           Z
 ---------------------------------------------------------------------
      1          6           0       -2.664476   -0.729013   -0.052770
      2          6           0       -1.290715   -0.133429    0.059444
      3          6           0       -0.243747   -0.562856    1.118542
      4          6           0        0.670581   -0.085897   -0.044898
      5          6           0        0.447217    1.440864   -0.071100
      6          6           0       -1.110869    1.403868   -0.003933
      7          8           0       -0.338534   -0.576339   -0.976764
      8          6           0        2.038918   -0.663583   -0.234800
      9          8           0        3.049966   -0.123420    0.137675
     10          1           0       -2.621497   -1.821322   -0.034800
     11          1           0       -3.293585   -0.390742    0.777103
     12          1           0       -3.140074   -0.417090   -0.988372
     13          1           0       -0.188979   -0.038864    2.075608
     14          1           0       -0.215036   -1.646069    1.245414
     15          1           0        0.920642    1.947441    0.771769
     16          1           0        0.825049    1.877342   -0.997205
     17          1           0       -1.524323    1.913236    0.870764
     18          1           0       -1.581223    1.814035   -0.900407
     19          1           0        2.046112   -1.659621   -0.730075
 ---------------------------------------------------------------------

 SCF Done:  E(RB3LYP) =  -423.184616410     A.U. after    1 cycles

 The electronic state is 1-A.
 Alpha  occ. eigenvalues --  -19.14560 -19.13986 -10.27335 -10.25134 -10.24876
 Alpha  occ. eigenvalues --  -10.19993 -10.18988 -10.18951 -10.18741  -1.06017
 Alpha  occ. eigenvalues --   -1.04748  -0.80494  -0.76826  -0.72725  -0.68937
 Alpha  occ. eigenvalues --   -0.62625  -0.55281  -0.54009  -0.50381  -0.47825
 Alpha  occ. eigenvalues --   -0.46632  -0.46394  -0.44237  -0.41747  -0.40067
 Alpha  occ. eigenvalues --   -0.38102  -0.38024  -0.37478  -0.35261  -0.34566
 Alpha  occ. eigenvalues --   -0.32805  -0.31511  -0.25879  -0.25371
 Alpha virt. eigenvalues --   -0.03556   0.07984   0.09882   0.10602   0.12619
 Alpha virt. eigenvalues --    0.13239   0.14119   0.14744   0.15791   0.16430
 Alpha virt. eigenvalues --    0.17460   0.18085   0.18779   0.19947   0.20839

 Mulliken charges:
               1
     1  C   -0.496809
     2  C    0.411841
     3  C   -0.307078
     4  C    0.331401
     5  C   -0.259417
     6  C   -0.253708
     7  O   -0.364461
     8  C    0.051887
     9  O   -0.251416
    10  H    0.128739
    11  H    0.125418
    12  H    0.132783
    13  H    0.105667
    14  H    0.112225
    15  H    0.116915
    16  H    0.115230
    17  H    0.101324
    18  H    0.109158
    19  H    0.090301
 Sum of Mulliken charges =   0.00000

 Dipole moment (field-independent basis, Debye):
    X=             -2.7770    Y=              0.0477    Z=              0.9935  Tot=              2.9498
 Quadrupole moment (field-independent basis, Debye-Ang):
   XX=            -60.1715   YY=            -51.3252   ZZ=            -53.2512
   XY=             -1.3629   XZ=             -2.1509   YZ=             -1.0566

  Exact polarizability:  90.865   1.095  73.345   0.110   1.020  63.559
 Approx polarizability: 123.754   4.995 106.373   2.088   5.411 102.424

                      1                      2                      3
                      A                      A                      A
 Frequencies --     64.4496               162.5154               189.1819
 Red. masses --      3.9469                 4.4024                 1.1407
 Frc consts  --      0.0097                 0.0685                 0.0241
 IR Inten    --      6.7855                 4.3107                 1.1065

                      4                      5                      6
                      A                      A                      A
 Frequencies --    224.3855               246.8363               300.7397
 Red. masses --      1.9359                 1.8623                 2.8917
 Frc consts  --      0.0574                 0.0669                 0.1541
 IR Inten    --      1.6949                 0.8734                 4.5417

                      7                      8                      9
                      A                      A                      A
 Frequencies --    373.9038               433.4309               464.0079
 Red. masses --      2.2790                 1.9971                 5.4175
 Frc consts  --      0.1877                 0.2210                 0.6872
 IR Inten    --      0.9781                 0.9321                 1.2072

                     10                     11                     12
                      A                      A                      A
 Frequencies --    559.9031               598.3596               698.5137
 Red. masses --      3.2193                 3.7466                 4.4993
 Frc consts  --      0.5946                 0.7903                 1.2934
 IR Inten    --     12.6609                 1.9275                10.3605

                     13                     14                     15
                      A                      A                      A
 Frequencies --    737.1411               801.9102               824.9672
 Red. masses --      3.2790                 3.7060                 1.4517
 Frc consts  --      1.0498                 1.4041                 0.5821
 IR Inten    --     19.0007                44.9654                 1.2520

                     16                     17                     18
                      A                      A                      A
 Frequencies --    842.0674               879.2722               911.3998
 Red. masses --      2.8416                 2.3306                 2.1394
 Frc consts  --      1.1871                 1.0616                 1.0470
 IR Inten    --      6.0037                 8.7973                13.3412

                     19                     20                     21
                      A                      A                      A
 Frequencies --    960.1062               986.7220              1003.9332
 Red. masses --      2.8096                 1.5209                 2.0775
 Frc consts  --      1.5259                 0.8724                 1.2337
 IR Inten    --      2.7041                 0.3105                14.4455

                     22                     23                     24
                      A                      A                      A
 Frequencies --   1013.8323              1070.8535              1101.0120
 Red. masses --      1.5692                 1.5798                 1.9487
 Frc consts  --      0.9503                 1.0674                 1.3918
 IR Inten    --     17.5286                10.8742                 7.7241

                     25                     26                     27
                      A                      A                      A
 Frequencies --   1139.0723              1169.6023              1201.1302
 Red. masses --      2.6073                 1.7062                 1.6972
 Frc consts  --      1.9932                 1.3751                 1.4427
 IR Inten    --      6.4389                 1.6791                13.3699

                     28                     29                     30
                      A                      A                      A
 Frequencies --   1221.3304              1234.5794              1240.8432
 Red. masses --      1.5784                 1.5209                 1.4118
 Frc consts  --      1.3872                 1.3658                 1.2808
 IR Inten    --      8.0317                 5.0627                 2.8470

                     31                     32                     33
                      A                      A                      A
 Frequencies --   1255.8705              1323.7415              1355.1115
 Red. masses --      2.2845                 2.0069                 2.0818
 Frc consts  --      2.1229                 2.0719                 2.2523
 IR Inten    --      7.3430                 1.4803                19.9518

                     34                     35                     36
                      A                      A                      A
 Frequencies --   1407.1434              1418.1631              1476.6627
 Red. masses --      1.2821                 1.6339                 1.0771
 Frc consts  --      1.4957                 1.9361                 1.3838
 IR Inten    --      6.7954                20.6907                 0.9569

                     37                     38                     39
                      A                      A                      A
 Frequencies --   1480.7787              1482.5358              1492.8557
 Red. masses --      1.1194                 1.0812                 1.0493
 Frc consts  --      1.4462                 1.4001                 1.3777
 IR Inten    --      6.0213                 0.3366                 4.4211

                     40                     41                     42
                      A                      A                      A
 Frequencies --   1508.2787              1823.8227              2894.5753
 Red. masses --      1.1619                10.7851                 1.0838
 Frc consts  --      1.5574                21.1368                 5.3502
 IR Inten    --      4.8127               157.0127                90.9372

                     43                     44                     45
                      A                      A                      A
 Frequencies --   3038.3701              3063.5978              3069.4637
 Red. masses --      1.0355                 1.0587                 1.0573
 Frc consts  --      5.6321                 5.8545                 5.8690
 IR Inten    --     13.3731                29.3708                25.1089

                     46                     47                     48
                      A                      A                      A
 Frequencies --   3084.1818              3107.0630              3112.1563
 Red. masses --      1.0598                 1.1015                 1.1061
 Frc consts  --      5.9396                 6.2653                 6.3119
 IR Inten    --     16.8535                 5.5552                13.2198

                     49                     50                     51
                      A                      A                      A
 Frequencies --   3118.7373              3135.4642              3143.6650
 Red. masses --      1.1018                 1.1072                 1.1101
 Frc consts  --      6.3140                 6.4131                 6.4636
 IR Inten    --     13.4420                18.7829                25.0806

 - Thermochemistry -
 -------------------
 Temperature   298.150 Kelvin.  Pressure   1.00000 Atm.
 Atom     1 has atomic number  6 and mass  12.00000

 Molecular mass:   126.06808 amu.
 Principal axes and moments of inertia in atomic units:
                           1         2         3
     Eigenvalues --   485.636981462.302941644.00373
           X            0.99997   0.00635  -0.00523
           Y           -0.00645   0.99976  -0.02075
           Z            0.00510   0.02079   0.99977
 This molecule is an asymmetric top.
 Rotational symmetry number  1.
 Warning -- assumption of classical behavior for rotation
           may cause significant error
 Rotational temperatures (Kelvin)      0.17835     0.05923     0.05268
 Rotational constants (GHZ):           3.71624     1.23418     1.09777
 Zero-point vibrational energy     415392.7 (Joules/Mol)
                                   99.28124 (Kcal/Mol)
 Warning -- explicit consideration of  11 degrees of freedom as
           vibrations may cause significant error
 Vibrational temperatures:     92.73   233.82   272.19   322.84   355.14
          (Kelvin)            432.70   537.96   623.61   667.60   805.57
                              860.90  1005.00  1060.58  1153.77  1186.94
                             1211.55  1265.07  1311.30  1381.38  1419.67
                             1444.43  1458.68  1540.72  1584.11  1638.87
                             1682.79  1728.16  1757.22  1776.28  1785.29
                             1806.92  1904.57  1949.70  2024.56  2040.42
                             2124.59  2130.51  2133.04  2147.88  2170.07
                             2624.07  4164.64  4371.53  4407.83  4416.27
                             4437.44  4470.37  4477.69  4487.16  4511.23
                             4523.03

 Zero-point correction=                           0.158215 (Hartree/Particle)
 Thermal correction to Energy=                    0.166615
 Thermal correction to Enthalpy=                  0.167559
 Thermal correction to Gibbs Free Energy=         0.125207
 Sum of electronic and zero-point Energies=           -423.026402
 Sum of electronic and thermal Energies=              -423.018001
 Sum of electronic and thermal Enthalpies=            -423.017057
 Sum of electronic and thermal Free Energies=         -423.059409

                     E (Thermal)             CV                S
                      KCal/Mol        Cal/Mol-Kelvin    Cal/Mol-Kelvin
 Total                  104.552             32.191             89.137
 Electronic               0.000              0.000              0.000
 Translational            0.889              2.981             40.409
 Rotational               0.889              2.981             28.547
 Vibrational            102.775             26.229             20.181
 Vibration     1          0.597              1.971              4.316
 Vibration     2          0.623              1.888              2.520
 Vibration     3          0.633              1.855              2.236
 Vibration     4          0.649              1.804              1.923
 Vibration     5          0.661              1.768              1.753
 Vibration     6          0.693              1.672              1.413
 Vibration     7          0.745              1.526              1.064
 Vibration     8          0.794              1.397              0.848
 Vibration     9          0.822              1.330              0.755
 Vibration    10          0.916              1.118              0.524
 Vibration    11          0.956              1.035              0.452

 Normal termination of Gaussian 09 at Mon Jan 27 17:50:10 2020.
