 Gaussian 09, Revision D.01,
 Gaussian 09:  ES64L-G09RevD.01 24-Apr-2013

 -----------------------------
 # b3lyp 6-31G(2df,p) opt Freq
 -----------------------------

 -----
 titel
 -----
 Symbolic Z-matrix:
 Charge =  0 Multiplicity = 1

 SCF Done:  E(RB3LYP) =  -423.081785646     A.U. after   12 cycles
 Optimization completed.
    -- Stationary point found.
 Normal termination of Gaussian 09 at Tue Jan 28 09:38:40 2020.

 ----------------------------------------------------------------------
 #N Geom=AllCheck Guess=TCheck SCRF=Check GenChk RB3LYP/6-31G(2df,p) Fr
 eq
 ----------------------------------------------------------------------

 Structure from the checkpoint file:  "/scratch/puck/g09_34cf8ee1-f092-480f-9db7-90593b3907da/Gau-106277.chk"
 -----
 titel
 -----
 Charge =  0 Multiplicity = 1

                         Standard orientation:
 ---------------------------------------------------------------------
 Center     Atomic      Atomic             Coordinates (Angstroms)
 Number     Number       Type             X           Y           Z
 ---------------------------------------------------------------------
      1          6           0        2.654827   -1.138798    0.248850
      2          8           0        1.996387   -0.207700   -0.597131
      3          6           0        0.777352    0.199261   -0.106955
      4          6           0        0.641338    1.249498    0.964914
      5          6           0        0.043200    1.476741   -0.416705
      6          6           0       -1.257226    0.672166   -0.678188
      7          6           0       -1.708789   -0.209225    0.458420
      8          8           0       -2.900975   -0.922632    0.294182
      9          6           0       -0.517531   -0.633604   -0.360650
     10          1           0        2.062201   -2.054629    0.381925
     11          1           0        3.600578   -1.394140   -0.233815
     12          1           0        2.855893   -0.706207    1.238452
     13          1           0        0.048383    1.145339    1.866569
     14          1           0        1.561744    1.808198    1.109784
     15          1           0        0.352237    2.312001   -1.031570
     16          1           0       -1.921093    0.884003   -1.508458
     17          1           0       -1.628190    0.086689    1.497738
     18          1           0       -2.984336   -1.174972   -0.631886
     19          1           0       -0.509743   -1.559863   -0.923260
 ---------------------------------------------------------------------

 SCF Done:  E(RB3LYP) =  -423.081785646     A.U. after    1 cycles

 The electronic state is 1-A.
 Alpha  occ. eigenvalues --  -19.14967 -19.14589 -10.24170 -10.24035 -10.22588
 Alpha  occ. eigenvalues --  -10.19379 -10.19266 -10.18883 -10.18788  -1.04508
 Alpha  occ. eigenvalues --   -1.03171  -0.90867  -0.79272  -0.69696  -0.64294
 Alpha  occ. eigenvalues --   -0.62496  -0.58046  -0.53168  -0.52895  -0.50421
 Alpha  occ. eigenvalues --   -0.48007  -0.44979  -0.44098  -0.42676  -0.40334
 Alpha  occ. eigenvalues --   -0.38268  -0.37639  -0.35874  -0.34141  -0.32323
 Alpha  occ. eigenvalues --   -0.30545  -0.25477  -0.24202  -0.21355
 Alpha virt. eigenvalues --    0.06992   0.07944   0.09037   0.10281   0.11688
 Alpha virt. eigenvalues --    0.14091   0.14595   0.15718   0.16113   0.16607
 Alpha virt. eigenvalues --    0.17292   0.17879   0.19918   0.21909   0.22794

 Mulliken charges:
               1
     1  C   -0.257825
     2  O   -0.274058
     3  C    0.442760
     4  C   -0.370457
     5  C   -0.157817
     6  C   -0.122971
     7  C    0.135054
     8  O   -0.443176
     9  C   -0.207909
    10  H    0.114330
    11  H    0.127234
    12  H    0.113002
    13  H    0.114875
    14  H    0.117558
    15  H    0.101815
    16  H    0.087918
    17  H    0.104652
    18  H    0.285294
    19  H    0.089723
 Sum of Mulliken charges =   0.00000

 Dipole moment (field-independent basis, Debye):
    X=              0.6964    Y=             -0.2809    Z=             -0.3855  Tot=              0.8441
 Quadrupole moment (field-independent basis, Debye-Ang):
   XX=            -55.1667   YY=            -51.5671   ZZ=            -52.0169
   XY=             -1.3571   XZ=              6.8813   YZ=              1.5946

  Exact polarizability:  86.880  -0.005  72.666   3.615   0.944  66.164
 Approx polarizability: 114.521  -1.227 108.872   1.885  -0.350 104.832

                      1                      2                      3
                      A                      A                      A
 Frequencies --     86.1989               149.6019               165.4289
 Red. masses --      2.8236                 2.9209                 1.1877
 Frc consts  --      0.0124                 0.0385                 0.0192
 IR Inten    --      2.4894                 1.6563                 1.0651

                      4                      5                      6
                      A                      A                      A
 Frequencies --    225.0376               234.8028               293.5572
 Red. masses --      1.3285                 2.1549                 2.8100
 Frc consts  --      0.0396                 0.0700                 0.1427
 IR Inten    --     49.3676                31.0641                15.6575

                      7                      8                      9
                      A                      A                      A
 Frequencies --    320.3507               396.3063               412.4688
 Red. masses --      4.3071                 4.9206                 3.0723
 Frc consts  --      0.2604                 0.4553                 0.3080
 IR Inten    --      2.3786                 1.1439                 1.8024

                     10                     11                     12
                      A                      A                      A
 Frequencies --    432.1910               522.1999               644.9026
 Red. masses --      3.0130                 2.5316                 3.1445
 Frc consts  --      0.3316                 0.4067                 0.7705
 IR Inten    --      4.0747                 0.3416                10.1520

                     13                     14                     15
                      A                      A                      A
 Frequencies --    749.8238               775.6015               841.1702
 Red. masses --      2.4027                 1.5665                 4.6586
 Frc consts  --      0.7959                 0.5552                 1.9421
 IR Inten    --      3.9509                 7.1238                19.0773

                     16                     17                     18
                      A                      A                      A
 Frequencies --    871.4996               892.0396               897.5912
 Red. masses --      1.6648                 2.9513                 2.7671
 Frc consts  --      0.7450                 1.3837                 1.3135
 IR Inten    --      8.2775                 6.4071                17.9864

                     19                     20                     21
                      A                      A                      A
 Frequencies --    945.9366               969.7941              1003.9402
 Red. masses --      1.7245                 1.4793                 2.3687
 Frc consts  --      0.9091                 0.8197                 1.4066
 IR Inten    --      3.5811                 7.0589                14.9062

                     22                     23                     24
                      A                      A                      A
 Frequencies --   1015.2791              1053.2331              1070.9181
 Red. masses --      1.5528                 1.5001                 2.7606
 Frc consts  --      0.9431                 0.9804                 1.8654
 IR Inten    --      5.5950                 2.3448                18.6654

                     25                     26                     27
                      A                      A                      A
 Frequencies --   1078.0137              1100.4915              1116.6333
 Red. masses --      2.2009                 1.3582                 1.7043
 Frc consts  --      1.5070                 0.9692                 1.2521
 IR Inten    --     23.2029                 2.5443                23.6783

                     28                     29                     30
                      A                      A                      A
 Frequencies --   1132.6141              1179.1475              1183.5369
 Red. masses --      2.9105                 1.4194                 1.6810
 Frc consts  --      2.1998                 1.1628                 1.3873
 IR Inten    --    163.8483                 3.1657                 6.0676

                     31                     32                     33
                      A                      A                      A
 Frequencies --   1220.5221              1243.5069              1254.8926
 Red. masses --      1.4555                 1.7888                 1.8343
 Frc consts  --      1.2775                 1.6297                 1.7019
 IR Inten    --      1.3847                10.0338                40.9013

                     34                     35                     36
                      A                      A                      A
 Frequencies --   1282.2583              1329.0827              1377.2596
 Red. masses --      2.1405                 2.2184                 1.9305
 Frc consts  --      2.0736                 2.3089                 2.1575
 IR Inten    --     66.4980                 7.9943                71.2624

                     37                     38                     39
                      A                      A                      A
 Frequencies --   1449.6853              1479.7647              1486.9738
 Red. masses --      1.6483                 1.1826                 1.0566
 Frc consts  --      2.0409                 1.5258                 1.3764
 IR Inten    --     90.5745                20.2400                 2.1433

                     40                     41                     42
                      A                      A                      A
 Frequencies --   1504.1739              1507.4926              2995.0892
 Red. masses --      1.2166                 1.2098                 1.0344
 Frc consts  --      1.6217                 1.6198                 5.4674
 IR Inten    --     22.0811                 2.4656                49.2057

                     43                     44                     45
                      A                      A                      A
 Frequencies --   3049.6644              3124.0390              3124.4692
 Red. masses --      1.1041                 1.0981                 1.0560
 Frc consts  --      6.0501                 6.3141                 6.0736
 IR Inten    --     40.8385                28.2326                 8.8003

                     46                     47                     48
                      A                      A                      A
 Frequencies --   3170.8290              3176.1400              3183.1030
 Red. masses --      1.0892                 1.0904                 1.0935
 Frc consts  --      6.4521                 6.4810                 6.5278
 IR Inten    --     11.3109                13.8186                13.8297

                     49                     50                     51
                      A                      A                      A
 Frequencies --   3197.8941              3209.4618              3805.9023
 Red. masses --      1.0959                 1.1112                 1.0657
 Frc consts  --      6.6034                 6.7436                 9.0950
 IR Inten    --      7.4309                17.7482                19.1156

 - Thermochemistry -
 -------------------
 Temperature   298.150 Kelvin.  Pressure   1.00000 Atm.
 Atom     1 has atomic number  6 and mass  12.00000

 Molecular mass:   126.06808 amu.
 Principal axes and moments of inertia in atomic units:
                           1         2         3
     Eigenvalues --   540.297261572.388081798.46865
           X            0.99960  -0.01813   0.02167
           Y            0.01769   0.99964   0.02010
           Z           -0.02203  -0.01971   0.99956
 This molecule is an asymmetric top.
 Rotational symmetry number  1.
 Warning -- assumption of classical behavior for rotation
           may cause significant error
 Rotational temperatures (Kelvin)      0.16031     0.05508     0.04816
 Rotational constants (GHZ):           3.34027     1.14777     1.00349
 Zero-point vibrational energy     412308.0 (Joules/Mol)
                                   98.54398 (Kcal/Mol)
 Warning -- explicit consideration of  11 degrees of freedom as
           vibrations may cause significant error
 Vibrational temperatures:    124.02   215.24   238.01   323.78   337.83
          (Kelvin)            422.36   460.91   570.20   593.45   621.83
                              751.33   927.87  1078.83  1115.92  1210.25
                             1253.89  1283.44  1291.43  1360.99  1395.32
                             1444.44  1460.76  1515.37  1540.81  1551.02
                             1583.36  1606.58  1629.58  1696.53  1702.84
                             1756.06  1789.13  1805.51  1844.88  1912.25
                             1981.57  2085.77  2129.05  2139.42  2164.17
                             2168.94  4309.26  4387.78  4494.79  4495.41
                             4562.11  4569.75  4579.77  4601.05  4617.69
                             5475.84

 Zero-point correction=                           0.157040 (Hartree/Particle)
 Thermal correction to Energy=                    0.165850
 Thermal correction to Enthalpy=                  0.166794
 Thermal correction to Gibbs Free Energy=         0.123746
 Sum of electronic and zero-point Energies=           -422.924746
 Sum of electronic and thermal Energies=              -422.915936
 Sum of electronic and thermal Enthalpies=            -422.914992
 Sum of electronic and thermal Free Energies=         -422.958040

                     E (Thermal)             CV                S
                      KCal/Mol        Cal/Mol-Kelvin    Cal/Mol-Kelvin
 Total                  104.072             33.738             90.603
 Electronic               0.000              0.000              0.000
 Translational            0.889              2.981             40.409
 Rotational               0.889              2.981             28.815
 Vibrational            102.295             27.777             21.379
 Vibration     1          0.601              1.959              3.745
 Vibration     2          0.618              1.903              2.677
 Vibration     3          0.624              1.885              2.487
 Vibration     4          0.650              1.803              1.918
 Vibration     5          0.655              1.788              1.842
 Vibration     6          0.688              1.686              1.453
 Vibration     7          0.706              1.635              1.308
 Vibration     8          0.763              1.478              0.976
 Vibration     9          0.776              1.443              0.918
 Vibration    10          0.793              1.400              0.852
 Vibration    11          0.877              1.201              0.605

 Normal termination of Gaussian 09 at Tue Jan 28 10:20:30 2020.
