 Gaussian 09, Revision D.01,
 Gaussian 09:  ES64L-G09RevD.01 24-Apr-2013

 -----------------------------
 # b3lyp 6-31G(2df,p) opt Freq
 -----------------------------

 -----
 titel
 -----
 Symbolic Z-matrix:
 Charge =  0 Multiplicity = 1

 SCF Done:  E(RB3LYP) =  -423.177411284     A.U. after   14 cycles
 Optimization completed.
    -- Stationary point found.
 Normal termination of Gaussian 09 at Tue Jan 28 08:17:14 2020.

 ----------------------------------------------------------------------
 #N Geom=AllCheck Guess=TCheck SCRF=Check GenChk RB3LYP/6-31G(2df,p) Fr
 eq
 ----------------------------------------------------------------------

 Structure from the checkpoint file:  "/scratch/puck/g09_c73a9faf-d111-4c6a-b38e-5c3301e6239e/Gau-79687.chk"
 -----
 titel
 -----
 Charge =  0 Multiplicity = 1

                         Standard orientation:
 ---------------------------------------------------------------------
 Center     Atomic      Atomic             Coordinates (Angstroms)
 Number     Number       Type             X           Y           Z
 ---------------------------------------------------------------------
      1          6           0        3.997901   -0.041862   -0.274338
      2          6           0        2.563705   -0.190052   -0.099430
      3          6           0        1.373961   -0.326015    0.055547
      4          6           0       -0.052734   -0.498320    0.224578
      5          8           0       -0.505221   -1.513006    0.727857
      6          6           0       -0.942835    0.638380   -0.275437
      7          6           0       -0.530317    1.990146    0.332323
      8          6           0       -2.424321    0.326123   -0.011298
      9          8           0       -2.866837   -0.854944   -0.642381
     10          1           0        4.477641   -1.012106   -0.439365
     11          1           0        4.230634    0.606276   -1.125541
     12          1           0        4.447774    0.405130    0.619161
     13          1           0       -0.787783    0.682512   -1.363445
     14          1           0       -0.672228    1.992485    1.418417
     15          1           0        0.518303    2.217399    0.127750
     16          1           0       -1.142623    2.793281   -0.088264
     17          1           0       -2.592430    0.293470    1.077017
     18          1           0       -3.033193    1.144718   -0.410242
     19          1           0       -2.381793   -1.569964   -0.210961
 ---------------------------------------------------------------------

 SCF Done:  E(RB3LYP) =  -423.177411285     A.U. after    1 cycles

 The electronic state is 1-A.
 Alpha  occ. eigenvalues --  -19.14338 -19.11722 -10.29166 -10.22560 -10.22140
 Alpha  occ. eigenvalues --  -10.21376 -10.19892 -10.19146 -10.18834  -1.05258
 Alpha  occ. eigenvalues --   -1.00146  -0.81148  -0.79569  -0.73347  -0.67433
 Alpha  occ. eigenvalues --   -0.65583  -0.58782  -0.51076  -0.48999  -0.47384
 Alpha  occ. eigenvalues --   -0.45851  -0.45037  -0.44775  -0.43402  -0.41850
 Alpha  occ. eigenvalues --   -0.40072  -0.38752  -0.38005  -0.35168  -0.32150
 Alpha  occ. eigenvalues --   -0.28561  -0.28237  -0.26300  -0.25338
 Alpha virt. eigenvalues --   -0.05770   0.03381   0.08118   0.09220   0.10624
 Alpha virt. eigenvalues --    0.12194   0.13137   0.14909   0.16278   0.16834
 Alpha virt. eigenvalues --    0.17290   0.18007   0.18619   0.19704   0.22750

 Mulliken charges:
               1
     1  C   -0.506566
     2  C    0.181499
     3  C   -0.014447
     4  C    0.210403
     5  O   -0.329754
     6  C   -0.107676
     7  C   -0.411525
     8  C   -0.066008
     9  O   -0.430808
    10  H    0.165819
    11  H    0.161098
    12  H    0.166014
    13  H    0.111368
    14  H    0.127197
    15  H    0.130561
    16  H    0.125568
    17  H    0.091469
    18  H    0.101424
    19  H    0.294364
 Sum of Mulliken charges =   0.00000

 Dipole moment (field-independent basis, Debye):
    X=              3.8543    Y=              2.4716    Z=             -0.1705  Tot=              4.5818
 Quadrupole moment (field-independent basis, Debye-Ang):
   XX=            -47.1767   YY=            -54.4149   ZZ=            -54.3112
   XY=             -2.8125   XZ=             -3.6394   YZ=              0.7174

  Exact polarizability: 119.002   3.137  72.080  -4.530  -2.058  58.424
 Approx polarizability: 166.586  15.251 108.584 -10.776  -8.348  91.669

                      1                      2                      3
                      A                      A                      A
 Frequencies --     14.6949                37.8261                82.4416
 Red. masses --      1.0247                 4.9278                 3.8374
 Frc consts  --      0.0001                 0.0042                 0.0154
 IR Inten    --      0.0695                 1.0495                 0.9317

                      4                      5                      6
                      A                      A                      A
 Frequencies --    131.7552               162.4289               196.3426
 Red. masses --      3.9634                 2.8255                 1.0945
 Frc consts  --      0.0405                 0.0439                 0.0249
 IR Inten    --      0.6981                 5.6687                 0.0311

                      7                      8                      9
                      A                      A                      A
 Frequencies --    221.8631               262.5540               295.3545
 Red. masses --      5.2713                 3.1942                 3.0705
 Frc consts  --      0.1529                 0.1297                 0.1578
 IR Inten    --      4.1653                 1.3555                 5.6027

                     10                     11                     12
                      A                      A                      A
 Frequencies --    341.7112               390.9347               414.9091
 Red. masses --      3.6492                 4.6128                 4.1888
 Frc consts  --      0.2511                 0.4154                 0.4249
 IR Inten    --      9.2843                 2.5371                 0.8432

                     13                     14                     15
                      A                      A                      A
 Frequencies --    498.2194               560.4095               579.4825
 Red. masses --      4.0932                 1.4816                 2.4912
 Frc consts  --      0.5986                 0.2742                 0.4929
 IR Inten    --      0.2929                86.0124                78.1874

                     16                     17                     18
                      A                      A                      A
 Frequencies --    667.6388               742.4822               885.3302
 Red. masses --      5.0439                 3.2668                 1.9362
 Frc consts  --      1.3246                 1.0611                 0.8942
 IR Inten    --      0.9603                10.5977                 5.6028

                     19                     20                     21
                      A                      A                      A
 Frequencies --    928.9089               961.8300              1043.6913
 Red. masses --      1.3929                 2.8220                 1.4395
 Frc consts  --      0.7081                 1.5382                 0.9239
 IR Inten    --      8.3915                83.1524                 2.0412

                     22                     23                     24
                      A                      A                      A
 Frequencies --   1053.3405              1064.4645              1078.3404
 Red. masses --      1.4072                 2.5518                 2.6725
 Frc consts  --      0.9199                 1.7036                 1.8310
 IR Inten    --      1.3083                 0.0962                79.8227

                     25                     26                     27
                      A                      A                      A
 Frequencies --   1106.4663              1146.5430              1190.2165
 Red. masses --      2.7867                 2.2846                 1.7431
 Frc consts  --      2.0101                 1.7695                 1.4549
 IR Inten    --     49.1312                12.4056               114.7883

                     28                     29                     30
                      A                      A                      A
 Frequencies --   1246.8924              1285.6834              1355.7867
 Red. masses --      1.6621                 1.4501                 1.7489
 Frc consts  --      1.5225                 1.4122                 1.8941
 IR Inten    --     48.2327                 1.8513                29.2123

                     31                     32                     33
                      A                      A                      A
 Frequencies --   1394.1224              1406.1347              1409.4563
 Red. masses --      1.2832                 1.2189                 1.2373
 Frc consts  --      1.4695                 1.4200                 1.4482
 IR Inten    --      0.7959                11.0273                 3.2815

                     34                     35                     36
                      A                      A                      A
 Frequencies --   1444.3806              1468.2686              1473.8125
 Red. masses --      1.2204                 1.0379                 1.0417
 Frc consts  --      1.5001                 1.3183                 1.3331
 IR Inten    --     90.1687                 7.4635                 7.4032

                     37                     38                     39
                      A                      A                      A
 Frequencies --   1493.6169              1498.3829              1503.6375
 Red. masses --      1.0659                 1.0523                 1.0671
 Frc consts  --      1.4010                 1.3919                 1.4214
 IR Inten    --      1.3690                 8.7347                 7.7989

                     40                     41                     42
                      A                      A                      A
 Frequencies --   1729.9536              2336.1263              2979.0653
 Red. masses --     11.7721                11.9097                 1.0688
 Frc consts  --     20.7574                38.2951                 5.5888
 IR Inten    --    196.5493               162.1689                40.4784

                     43                     44                     45
                      A                      A                      A
 Frequencies --   3012.4257              3033.2520              3039.8586
 Red. masses --      1.0802                 1.0346                 1.0362
 Frc consts  --      5.7755                 5.6083                 5.6417
 IR Inten    --     18.0817                12.5113                22.7864

                     46                     47                     48
                      A                      A                      A
 Frequencies --   3067.9572              3096.7442              3102.1591
 Red. masses --      1.0942                 1.0994                 1.1011
 Frc consts  --      6.0678                 6.2119                 6.2429
 IR Inten    --     31.0956                 4.3651                 4.3678

                     49                     50                     51
                      A                      A                      A
 Frequencies --   3106.8617              3126.4787              3773.9164
 Red. masses --      1.1013                 1.1007                 1.0648
 Frc consts  --      6.2634                 6.3393                 8.9349
 IR Inten    --     23.3416                19.4431                70.5684

 - Thermochemistry -
 -------------------
 Temperature   298.150 Kelvin.  Pressure   1.00000 Atm.
 Atom     1 has atomic number  6 and mass  12.00000

 Molecular mass:   126.06808 amu.
 Principal axes and moments of inertia in atomic units:
                           1         2         3
     Eigenvalues --   553.793362221.717552589.39783
           X            0.99992  -0.00910  -0.00840
           Y            0.00927   0.99975   0.02056
           Z            0.00821  -0.02063   0.99975
 This molecule is an asymmetric top.
 Rotational symmetry number  1.
 Warning -- assumption of classical behavior for rotation
           may cause significant error
 Rotational temperatures (Kelvin)      0.15640     0.03899     0.03345
 Rotational constants (GHZ):           3.25887     0.81232     0.69697
 Zero-point vibrational energy     409392.9 (Joules/Mol)
                                   97.84726 (Kcal/Mol)
 Warning -- explicit consideration of  15 degrees of freedom as
           vibrations may cause significant error
 Vibrational temperatures:     21.14    54.42   118.61   189.57   233.70
          (Kelvin)            282.49   319.21   377.76   424.95   491.65
                              562.47   596.96   716.83   806.30   833.75
                              960.58  1068.26  1273.79  1336.49  1383.86
                             1501.64  1515.52  1531.53  1551.49  1591.96
                             1649.62  1712.45  1794.00  1849.81  1950.67
                             2005.83  2023.11  2027.89  2078.14  2112.51
                             2120.48  2148.98  2155.84  2163.40  2489.01
                             3361.16  4286.21  4334.20  4364.17  4373.67
                             4414.10  4455.52  4463.31  4470.08  4498.30
                             5429.82

 Zero-point correction=                           0.155930 (Hartree/Particle)
 Thermal correction to Energy=                    0.166795
 Thermal correction to Enthalpy=                  0.167739
 Thermal correction to Gibbs Free Energy=         0.117621
 Sum of electronic and zero-point Energies=           -423.021482
 Sum of electronic and thermal Energies=              -423.010617
 Sum of electronic and thermal Enthalpies=            -423.009673
 Sum of electronic and thermal Free Energies=         -423.059790

                     E (Thermal)             CV                S
                      KCal/Mol        Cal/Mol-Kelvin    Cal/Mol-Kelvin
 Total                  104.665             37.071            105.481
 Electronic               0.000              0.000              0.000
 Translational            0.889              2.981             40.409
 Rotational               0.889              2.981             29.545
 Vibrational            102.888             31.109             35.527
 Vibration     1          0.593              1.986              7.246
 Vibration     2          0.594              1.982              5.370
 Vibration     3          0.600              1.961              3.832
 Vibration     4          0.612              1.922              2.920
 Vibration     5          0.623              1.889              2.521
 Vibration     6          0.636              1.845              2.167
 Vibration     7          0.648              1.808              1.944
 Vibration     8          0.670              1.741              1.645
 Vibration     9          0.690              1.682              1.443
 Vibration    10          0.721              1.592              1.204
 Vibration    11          0.759              1.490              0.997
 Vibration    12          0.778              1.438              0.909
 Vibration    13          0.854              1.254              0.663
 Vibration    14          0.916              1.117              0.523
 Vibration    15          0.936              1.076              0.486

 Optimization completed on the basis of negligible forces.
    -- Stationary point found.
 Normal termination of Gaussian 09 at Tue Jan 28 08:59:51 2020.
