 Gaussian 09, Revision D.01,
 Gaussian 09:  ES64L-G09RevD.01 24-Apr-2013

 -----------------------------
 # b3lyp 6-31G(2df,p) opt Freq
 -----------------------------

 -----
 titel
 -----
 Symbolic Z-matrix:
 Charge =  0 Multiplicity = 1

 SCF Done:  E(RB3LYP) =  -423.177121644     A.U. after   14 cycles
 Optimization completed.
    -- Stationary point found.
 Normal termination of Gaussian 09 at Mon Jan 27 22:54:53 2020.

 ----------------------------------------------------------------------
 #N Geom=AllCheck Guess=TCheck SCRF=Check GenChk RB3LYP/6-31G(2df,p) Fr
 eq
 ----------------------------------------------------------------------

 Structure from the checkpoint file:  "/scratch/puck/g09_36959d72-9a4f-4ad5-bc5f-1bcbbb04d758/Gau-75168.chk"
 -----
 titel
 -----
 Charge =  0 Multiplicity = 1

                         Standard orientation:
 ---------------------------------------------------------------------
 Center     Atomic      Atomic             Coordinates (Angstroms)
 Number     Number       Type             X           Y           Z
 ---------------------------------------------------------------------
      1          8           0        2.554364   -0.525068    0.400499
      2          6           0        1.170378   -0.546908    0.623001
      3          6           0        0.241656   -0.856164   -0.552252
      4          6           0       -1.074754   -1.500294   -0.324766
      5          6           0       -2.158967   -0.779984   -0.031436
      6          6           0       -2.118416    0.726178    0.078475
      7          6           0       -0.766200    1.229291    0.620790
      8          6           0        0.426394    0.569211   -0.059877
      9          8           0        1.193270    1.454590   -0.821480
     10          1           0        2.841311   -1.405227    0.136371
     11          1           0        0.865080   -0.860332    1.621320
     12          1           0        0.766053   -1.103426   -1.473447
     13          1           0       -1.134493   -2.583673   -0.403953
     14          1           0       -3.114366   -1.274699    0.122189
     15          1           0       -2.305290    1.166693   -0.911319
     16          1           0       -2.930308    1.081509    0.722027
     17          1           0       -0.670688    2.309505    0.480920
     18          1           0       -0.726631    1.039026    1.699669
     19          1           0        2.107721    1.146465   -0.749535
 ---------------------------------------------------------------------

 SCF Done:  E(RB3LYP) =  -423.177121644     A.U. after    1 cycles

 The electronic state is 1-A.
 Alpha  occ. eigenvalues --  -19.16082 -19.12884 -10.23502 -10.23319 -10.18520
 Alpha  occ. eigenvalues --  -10.18225 -10.18004 -10.17925 -10.17914  -1.04939
 Alpha  occ. eigenvalues --   -1.01081  -0.85466  -0.78044  -0.73824  -0.64584
 Alpha  occ. eigenvalues --   -0.61291  -0.58058  -0.53197  -0.51466  -0.49492
 Alpha  occ. eigenvalues --   -0.47813  -0.44203  -0.42922  -0.39811  -0.39350
 Alpha  occ. eigenvalues --   -0.39215  -0.35928  -0.35450  -0.34561  -0.32267
 Alpha  occ. eigenvalues --   -0.30883  -0.28314  -0.23978  -0.22206
 Alpha virt. eigenvalues --    0.01826   0.06477   0.10142   0.10689   0.12279
 Alpha virt. eigenvalues --    0.13964   0.15004   0.15168   0.17059   0.17500
 Alpha virt. eigenvalues --    0.18295   0.19998   0.22272   0.22583   0.23604

 Mulliken charges:
               1
     1  O   -0.435390
     2  C   -0.006660
     3  C   -0.210816
     4  C   -0.062837
     5  C   -0.069647
     6  C   -0.252731
     7  C   -0.278420
     8  C    0.432826
     9  O   -0.486977
    10  H    0.294777
    11  H    0.091319
    12  H    0.090554
    13  H    0.082507
    14  H    0.087550
    15  H    0.120256
    16  H    0.098983
    17  H    0.115565
    18  H    0.101695
    19  H    0.287444
 Sum of Mulliken charges =   0.00000

 Dipole moment (field-independent basis, Debye):
    X=              0.0551    Y=             -2.0408    Z=              0.4500  Tot=              2.0905
 Quadrupole moment (field-independent basis, Debye-Ang):
   XX=            -49.3171   YY=            -52.0560   ZZ=            -54.3328
   XY=             -5.0362   XZ=             -2.1306   YZ=              1.7681

  Exact polarizability:  93.553  -4.570  78.093  -3.086   2.212  59.085
 Approx polarizability: 132.479 -10.676 116.751  -5.115   2.568  93.076

                      1                      2                      3
                      A                      A                      A
 Frequencies --    110.1238               174.9133               254.9844
 Red. masses --      2.7888                 2.7866                 2.1736
 Frc consts  --      0.0199                 0.0502                 0.0833
 IR Inten    --      0.1143                 4.1229                10.5211

                      4                      5                      6
                      A                      A                      A
 Frequencies --    256.8703               278.4160               371.2341
 Red. masses --      3.9290                 1.4775                 2.5843
 Frc consts  --      0.1527                 0.0675                 0.2098
 IR Inten    --      3.1253                39.8911                 4.4114

                      7                      8                      9
                      A                      A                      A
 Frequencies --    387.9696               411.7737               451.5494
 Red. masses --      3.8410                 2.3376                 1.2188
 Frc consts  --      0.3406                 0.2335                 0.1464
 IR Inten    --      5.8881                43.3805                66.3465

                     10                     11                     12
                      A                      A                      A
 Frequencies --    472.9135               498.5204               637.7485
 Red. masses --      3.3661                 3.5657                 4.8484
 Frc consts  --      0.4436                 0.5221                 1.1618
 IR Inten    --      8.9918                 3.4020                13.6825

                     13                     14                     15
                      A                      A                      A
 Frequencies --    702.9522               719.5419               758.2515
 Red. masses --      2.0813                 2.3237                 1.5889
 Frc consts  --      0.6060                 0.7088                 0.5382
 IR Inten    --     14.7783                14.3650                 7.9398

                     16                     17                     18
                      A                      A                      A
 Frequencies --    858.2947               886.2824               932.9634
 Red. masses --      3.3297                 3.2068                 2.4012
 Frc consts  --      1.4452                 1.4841                 1.2314
 IR Inten    --     12.6950                12.2335                 4.1385

                     19                     20                     21
                      A                      A                      A
 Frequencies --    954.7599               976.5280               992.7031
 Red. masses --      1.9410                 2.5014                 1.2736
 Frc consts  --      1.0425                 1.4054                 0.7394
 IR Inten    --      6.8395                16.3524                 1.8431

                     22                     23                     24
                      A                      A                      A
 Frequencies --   1016.7724              1039.3023              1061.6323
 Red. masses --      1.9441                 2.2994                 1.4757
 Frc consts  --      1.1842                 1.4634                 0.9799
 IR Inten    --      1.1756                17.6703                 4.2263

                     25                     26                     27
                      A                      A                      A
 Frequencies --   1092.4086              1124.8689              1158.8601
 Red. masses --      1.7562                 4.0499                 1.4253
 Frc consts  --      1.2348                 3.0193                 1.1278
 IR Inten    --      2.3015                92.7791                32.8831

                     28                     29                     30
                      A                      A                      A
 Frequencies --   1191.4103              1227.3936              1239.5904
 Red. masses --      1.2702                 1.4992                 1.3921
 Frc consts  --      1.0623                 1.3307                 1.2603
 IR Inten    --     18.6493                18.8604                 3.5452

                     31                     32                     33
                      A                      A                      A
 Frequencies --   1274.3788              1285.6028              1330.7989
 Red. masses --      1.2515                 1.4886                 1.5743
 Frc consts  --      1.1976                 1.4496                 1.6428
 IR Inten    --     59.0674                23.7108                23.4119

                     34                     35                     36
                      A                      A                      A
 Frequencies --   1347.0432              1359.9715              1414.2404
 Red. masses --      1.2933                 1.3461                 1.6024
 Frc consts  --      1.3826                 1.4669                 1.8883
 IR Inten    --      6.4662                36.0506                 1.5232

                     37                     38                     39
                      A                      A                      A
 Frequencies --   1418.6623              1458.7361              1475.4187
 Red. masses --      1.7156                 2.6519                 1.1173
 Frc consts  --      2.0344                 3.3248                 1.4330
 IR Inten    --     14.0341                56.5683                 6.6320

                     40                     41                     42
                      A                      A                      A
 Frequencies --   1486.2933              1706.4163              3009.1640
 Red. masses --      1.1023                 6.6582                 1.0691
 Frc consts  --      1.4347                11.4229                 5.7035
 IR Inten    --      3.1502                 3.8457                24.1357

                     43                     44                     45
                      A                      A                      A
 Frequencies --   3034.1896              3064.3357              3096.9893
 Red. masses --      1.0656                 1.0914                 1.0978
 Frc consts  --      5.7799                 6.0381                 6.2037
 IR Inten    --     21.4320                37.9361                11.5490

                     46                     47                     48
                      A                      A                      A
 Frequencies --   3101.4205              3126.4830              3140.3589
 Red. masses --      1.0897                 1.0858                 1.0848
 Frc consts  --      6.1755                 6.2536                 6.3029
 IR Inten    --     28.3082                13.8713                13.0756

                     49                     50                     51
                      A                      A                      A
 Frequencies --   3168.2566              3739.4437              3810.3518
 Red. masses --      1.0964                 1.0649                 1.0666
 Frc consts  --      6.4844                 8.7734                 9.1236
 IR Inten    --     36.4158                61.7810                31.4108

 - Thermochemistry -
 -------------------
 Temperature   298.150 Kelvin.  Pressure   1.00000 Atm.
 Atom     1 has atomic number  8 and mass  15.99491

 Molecular mass:   126.06808 amu.
 Principal axes and moments of inertia in atomic units:
                           1         2         3
     Eigenvalues --   620.047181267.221051618.01897
           X            0.99968  -0.02377  -0.00914
           Y            0.02401   0.99934   0.02716
           Z            0.00849  -0.02737   0.99959
 This molecule is an asymmetric top.
 Rotational symmetry number  1.
 Warning -- assumption of classical behavior for rotation
           may cause significant error
 Rotational temperatures (Kelvin)      0.13969     0.06835     0.05353
 Rotational constants (GHZ):           2.91065     1.42417     1.11540
 Zero-point vibrational energy     419231.8 (Joules/Mol)
                                  100.19881 (Kcal/Mol)
 Warning -- explicit consideration of  11 degrees of freedom as
           vibrations may cause significant error
 Vibrational temperatures:    158.44   251.66   366.87   369.58   400.58
          (Kelvin)            534.12   558.20   592.45   649.68   680.42
                              717.26   917.58  1011.39  1035.26  1090.95
                             1234.89  1275.16  1342.32  1373.68  1405.00
                             1428.28  1462.91  1495.32  1527.45  1571.73
                             1618.43  1667.34  1714.17  1765.94  1783.49
                             1833.54  1849.69  1914.72  1938.09  1956.69
                             2034.77  2041.14  2098.79  2122.80  2138.44
                             2455.15  4329.51  4365.52  4408.89  4455.87
                             4462.25  4498.31  4518.27  4558.41  5380.22
                             5482.24

 Zero-point correction=                           0.159677 (Hartree/Particle)
 Thermal correction to Energy=                    0.167953
 Thermal correction to Enthalpy=                  0.168897
 Thermal correction to Gibbs Free Energy=         0.127327
 Sum of electronic and zero-point Energies=           -423.017445
 Sum of electronic and thermal Energies=              -423.009169
 Sum of electronic and thermal Enthalpies=            -423.008224
 Sum of electronic and thermal Free Energies=         -423.049795

                     E (Thermal)             CV                S
                      KCal/Mol        Cal/Mol-Kelvin    Cal/Mol-Kelvin
 Total                  105.392             32.981             87.492
 Electronic               0.000              0.000              0.000
 Translational            0.889              2.981             40.409
 Rotational               0.889              2.981             28.632
 Vibrational            103.615             27.019             18.452
 Vibration     1          0.606              1.941              3.267
 Vibration     2          0.627              1.873              2.382
 Vibration     3          0.665              1.754              1.696
 Vibration     4          0.666              1.751              1.683
 Vibration     5          0.679              1.713              1.543
 Vibration     6          0.743              1.531              1.075
 Vibration     7          0.756              1.496              1.008
 Vibration     8          0.776              1.445              0.920
 Vibration     9          0.810              1.357              0.791
 Vibration    10          0.830              1.310              0.729
 Vibration    11          0.854              1.253              0.662

 Optimization completed.
    -- Stationary point found.
 Normal termination of Gaussian 09 at Mon Jan 27 23:40:47 2020.
