 Gaussian 09, Revision D.01,
 Gaussian 09:  ES64L-G09RevD.01 24-Apr-2013

 -----------------------------
 # b3lyp 6-31G(2df,p) opt Freq
 -----------------------------

 -----
 titel
 -----
 Symbolic Z-matrix:
 Charge =  0 Multiplicity = 1

 SCF Done:  E(RB3LYP) =  -423.169343870     A.U. after   14 cycles
 Optimization completed.
    -- Stationary point found.
 Normal termination of Gaussian 09 at Mon Jan 27 13:02:36 2020.

 ----------------------------------------------------------------------
 #N Geom=AllCheck Guess=TCheck SCRF=Check GenChk RB3LYP/6-31G(2df,p) Fr
 eq
 ----------------------------------------------------------------------

 Structure from the checkpoint file:  "/scratch/puck/g09_befa260f-fd55-4276-b2e7-77467eb6142f/Gau-155297.chk"
 -----
 titel
 -----
 Charge =  0 Multiplicity = 1

                         Standard orientation:
 ---------------------------------------------------------------------
 Center     Atomic      Atomic             Coordinates (Angstroms)
 Number     Number       Type             X           Y           Z
 ---------------------------------------------------------------------
      1          8           0        2.542675   -1.466183   -0.210981
      2          6           0        2.007211   -0.421424    0.023303
      3          6           0        2.378071    1.052806   -0.205577
      4          6           0        0.871854    1.397881    0.002347
      5          6           0        0.598549   -0.049539    0.526189
      6          6           0       -0.578216   -0.858341   -0.015941
      7          6           0       -1.911257   -0.342500    0.469120
      8          6           0       -3.111784   -0.344328   -0.374602
      9          8           0       -2.387838    0.864908   -0.136115
     10          1           0        3.029239    1.432925    0.588688
     11          1           0        2.837961    1.286121   -1.169071
     12          1           0        0.653238    2.207208    0.699023
     13          1           0        0.349807    1.595476   -0.935552
     14          1           0        0.596271   -0.070072    1.624644
     15          1           0       -0.565487   -0.840406   -1.111972
     16          1           0       -0.460338   -1.905958    0.288187
     17          1           0       -2.056219   -0.372616    1.551406
     18          1           0       -3.051136   -0.732624   -1.390693
     19          1           0       -4.098597   -0.397183    0.083080
 ---------------------------------------------------------------------

 SCF Done:  E(RB3LYP) =  -423.169343870     A.U. after    1 cycles

 The electronic state is 1-A.
 Alpha  occ. eigenvalues --  -19.15320 -19.13646 -10.26731 -10.24332 -10.23692
 Alpha  occ. eigenvalues --  -10.19835 -10.19665 -10.19188 -10.19141  -1.07266
 Alpha  occ. eigenvalues --   -1.04478  -0.84964  -0.76542  -0.67714  -0.64832
 Alpha  occ. eigenvalues --   -0.62865  -0.59492  -0.53156  -0.50367  -0.47886
 Alpha  occ. eigenvalues --   -0.47222  -0.46003  -0.43642  -0.42664  -0.38900
 Alpha  occ. eigenvalues --   -0.38749  -0.37939  -0.37158  -0.34632  -0.34241
 Alpha  occ. eigenvalues --   -0.32781  -0.30334  -0.27110  -0.23929
 Alpha virt. eigenvalues --   -0.01892   0.08975   0.10412   0.10576   0.10893
 Alpha virt. eigenvalues --    0.11378   0.13473   0.13591   0.14594   0.15580
 Alpha virt. eigenvalues --    0.16735   0.17601   0.18097   0.19315   0.21214

 Mulliken charges:
               1
     1  O   -0.299929
     2  C    0.384360
     3  C   -0.340470
     4  C   -0.234334
     5  C   -0.094695
     6  C   -0.243280
     7  C    0.097044
     8  C   -0.182338
     9  O   -0.233646
    10  H    0.131567
    11  H    0.129541
    12  H    0.111851
    13  H    0.125078
    14  H    0.100134
    15  H    0.105921
    16  H    0.120828
    17  H    0.091341
    18  H    0.115055
    19  H    0.115973
 Sum of Mulliken charges =   0.00000

 Dipole moment (field-independent basis, Debye):
    X=             -1.3823    Y=              0.5955    Z=              0.7338  Tot=              1.6744
 Quadrupole moment (field-independent basis, Debye-Ang):
   XX=            -55.5712   YY=            -57.7186   ZZ=            -49.9990
   XY=             10.8987   XZ=              1.1209   YZ=             -0.1760

  Exact polarizability:  93.290   1.858  71.964   0.150   0.770  64.334
 Approx polarizability: 115.084  -4.027 114.862   0.710   1.431 100.204

                      1                      2                      3
                      A                      A                      A
 Frequencies --     55.1315                71.3495                87.2243
 Red. masses --      4.3194                 3.0796                 2.5698
 Frc consts  --      0.0077                 0.0092                 0.0115
 IR Inten    --      5.8255                 4.1804                 2.2876

                      4                      5                      6
                      A                      A                      A
 Frequencies --    119.7244               220.8376               323.6508
 Red. masses --      3.9780                 4.9594                 2.8789
 Frc consts  --      0.0336                 0.1425                 0.1777
 IR Inten    --      2.7669                 0.7023                 1.5356

                      7                      8                      9
                      A                      A                      A
 Frequencies --    361.3006               430.5048               481.3567
 Red. masses --      2.9420                 2.4498                 2.1057
 Frc consts  --      0.2263                 0.2675                 0.2875
 IR Inten    --      0.2918                 6.1648                 1.7483

                     10                     11                     12
                      A                      A                      A
 Frequencies --    550.6230               671.0271               726.3322
 Red. masses --      2.9981                 3.8442                 1.4224
 Frc consts  --      0.5356                 1.0198                 0.4421
 IR Inten    --      2.0186                 2.3440                 1.9287

                     13                     14                     15
                      A                      A                      A
 Frequencies --    783.6220               799.3297               853.6108
 Red. masses --      2.9230                 2.6703                 1.6792
 Frc consts  --      1.0575                 1.0052                 0.7209
 IR Inten    --      5.6790                 5.2522                 9.9619

                     16                     17                     18
                      A                      A                      A
 Frequencies --    870.0328               928.6237               941.9165
 Red. masses --      2.9619                 2.4779                 1.7616
 Frc consts  --      1.3210                 1.2590                 0.9209
 IR Inten    --     14.5234                 1.9527                 2.1315

                     19                     20                     21
                      A                      A                      A
 Frequencies --    961.0802               998.1411              1035.5838
 Red. masses --      2.5584                 2.0363                 1.4461
 Frc consts  --      1.3923                 1.1953                 0.9138
 IR Inten    --     19.0453                 3.9267                 4.7361

                     22                     23                     24
                      A                      A                      A
 Frequencies --   1072.7696              1097.6580              1116.2499
 Red. masses --      2.4370                 1.8323                 1.7693
 Frc consts  --      1.6524                 1.3007                 1.2989
 IR Inten    --     58.6622                26.4640                 0.8864

                     25                     26                     27
                      A                      A                      A
 Frequencies --   1148.7562              1159.5837              1173.7266
 Red. masses --      2.3377                 1.3767                 1.3974
 Frc consts  --      1.8176                 1.0907                 1.1343
 IR Inten    --     12.0038                 1.2350                 2.3956

                     28                     29                     30
                      A                      A                      A
 Frequencies --   1198.2029              1216.2958              1231.4166
 Red. masses --      1.4080                 1.2557                 1.4150
 Frc consts  --      1.1910                 1.0945                 1.2642
 IR Inten    --      0.2578                 1.4674                 2.3266

                     31                     32                     33
                      A                      A                      A
 Frequencies --   1249.3871              1273.4551              1294.3513
 Red. masses --      1.3361                 1.5513                 1.6213
 Frc consts  --      1.2288                 1.4822                 1.6003
 IR Inten    --      7.6566                 4.8361                 4.8992

                     34                     35                     36
                      A                      A                      A
 Frequencies --   1311.5503              1358.1775              1441.2625
 Red. masses --      1.3803                 1.5252                 1.1010
 Frc consts  --      1.3990                 1.6577                 1.3475
 IR Inten    --      0.5232                11.5388                 5.9478

                     37                     38                     39
                      A                      A                      A
 Frequencies --   1448.5427              1468.6881              1494.7564
 Red. masses --      1.6655                 1.1058                 1.1001
 Frc consts  --      2.0590                 1.4054                 1.4482
 IR Inten    --      8.1790                 6.1081                 1.7601

                     40                     41                     42
                      A                      A                      A
 Frequencies --   1530.4929              1885.8003              3019.7674
 Red. masses --      1.3627                12.7871                 1.0813
 Frc consts  --      1.8807                26.7926                 5.8095
 IR Inten    --      3.2564               259.9926                 7.5870

                     43                     44                     45
                      A                      A                      A
 Frequencies --   3031.4250              3056.8147              3070.5640
 Red. masses --      1.0600                 1.0607                 1.0965
 Frc consts  --      5.7391                 5.8395                 6.0909
 IR Inten    --     14.8165                12.1408                 1.9891

                     46                     47                     48
                      A                      A                      A
 Frequencies --   3082.4524              3088.1892              3091.0260
 Red. masses --      1.0520                 1.0613                 1.0906
 Frc consts  --      5.8894                 5.9635                 6.1396
 IR Inten    --     32.5678                14.2751                39.5036

                     49                     50                     51
                      A                      A                      A
 Frequencies --   3112.2567              3143.5962              3168.8992
 Red. masses --      1.1032                 1.1081                 1.1194
 Frc consts  --      6.2961                 6.4517                 6.6228
 IR Inten    --      5.9200                18.1314                27.8828

 - Thermochemistry -
 -------------------
 Temperature   298.150 Kelvin.  Pressure   1.00000 Atm.
 Atom     1 has atomic number  8 and mass  15.99491

 Molecular mass:   126.06808 amu.
 Principal axes and moments of inertia in atomic units:
                           1         2         3
     Eigenvalues --   476.324231995.649022324.53233
           X            0.99931   0.03699   0.00150
           Y           -0.03700   0.99931   0.00105
           Z           -0.00146  -0.00111   1.00000
 This molecule is an asymmetric top.
 Rotational symmetry number  1.
 Warning -- assumption of classical behavior for rotation
           may cause significant error
 Rotational temperatures (Kelvin)      0.18184     0.04340     0.03726
 Rotational constants (GHZ):           3.78889     0.90434     0.77639
 Zero-point vibrational energy     414548.6 (Joules/Mol)
                                   99.07950 (Kcal/Mol)
 Warning -- explicit consideration of  10 degrees of freedom as
           vibrations may cause significant error
 Vibrational temperatures:     79.32   102.66   125.50   172.26   317.74
          (Kelvin)            465.66   519.83   619.40   692.56   792.22
                              965.46  1045.03  1127.46  1150.06  1228.15
                             1251.78  1336.08  1355.21  1382.78  1436.10
                             1489.97  1543.47  1579.28  1606.03  1652.80
                             1668.38  1688.73  1723.94  1749.98  1771.73
                             1797.59  1832.22  1862.28  1887.03  1954.11
                             2073.65  2084.13  2113.11  2150.62  2202.04
                             2713.24  4344.77  4361.54  4398.07  4417.85
                             4434.96  4443.21  4447.29  4477.84  4522.93
                             4559.33

 Zero-point correction=                           0.157893 (Hartree/Particle)
 Thermal correction to Energy=                    0.166764
 Thermal correction to Enthalpy=                  0.167708
 Thermal correction to Gibbs Free Energy=         0.122958
 Sum of electronic and zero-point Energies=           -423.011451
 Sum of electronic and thermal Energies=              -423.002580
 Sum of electronic and thermal Enthalpies=            -423.001636
 Sum of electronic and thermal Free Energies=         -423.046386

                     E (Thermal)             CV                S
                      KCal/Mol        Cal/Mol-Kelvin    Cal/Mol-Kelvin
 Total                  104.646             32.086             94.184
 Electronic               0.000              0.000              0.000
 Translational            0.889              2.981             40.409
 Rotational               0.889              2.981             29.181
 Vibrational            102.868             26.124             24.594
 Vibration     1          0.596              1.976              4.624
 Vibration     2          0.598              1.968              4.116
 Vibration     3          0.601              1.958              3.721
 Vibration     4          0.609              1.933              3.105
 Vibration     5          0.648              1.809              1.952
 Vibration     6          0.708              1.628              1.292
 Vibration     7          0.735              1.552              1.117
 Vibration     8          0.792              1.404              0.857
 Vibration     9          0.838              1.291              0.706
 Vibration    10          0.906              1.138              0.543

 Optimization completed.
    -- Stationary point found.
 Normal termination of Gaussian 09 at Mon Jan 27 13:39:46 2020.
