 Gaussian 09, Revision D.01,
 Gaussian 09:  ES64L-G09RevD.01 24-Apr-2013

 -----------------------------
 # b3lyp 6-31G(2df,p) opt Freq
 -----------------------------

 -----
 titel
 -----
 Symbolic Z-matrix:
 Charge =  0 Multiplicity = 1

 SCF Done:  E(RB3LYP) =  -423.215509359     A.U. after   14 cycles
 Optimization completed.
    -- Stationary point found.
 Normal termination of Gaussian 09 at Mon Jan 27 10:18:16 2020.

 ----------------------------------------------------------------------
 #N Geom=AllCheck Guess=TCheck SCRF=Check GenChk RB3LYP/6-31G(2df,p) Fr
 eq
 ----------------------------------------------------------------------

 Structure from the checkpoint file:  "/scratch/puck/g09_18ec3a61-d384-4779-8165-198e7254ddb2/Gau-91769.chk"
 -----
 titel
 -----
 Charge =  0 Multiplicity = 1

                         Standard orientation:
 ---------------------------------------------------------------------
 Center     Atomic      Atomic             Coordinates (Angstroms)
 Number     Number       Type             X           Y           Z
 ---------------------------------------------------------------------
      1          6           0       -2.625804   -1.393914    0.000020
      2          8           0       -2.049720   -0.103401   -0.000105
      3          6           0       -0.690475   -0.053569    0.000001
      4          6           0        0.018141    1.111926   -0.000079
      5          6           0       -0.384446    2.539082    0.000057
      6          8           0        1.357781    0.809927   -0.000036
      7          6           0        1.489413   -0.542641    0.000106
      8          6           0        2.873347   -1.085194   -0.000044
      9          6           0        0.260630   -1.130603    0.000057
     10          1           0       -2.340188   -1.965553    0.893462
     11          1           0       -3.707991   -1.250710   -0.000533
     12          1           0       -2.339370   -1.966099   -0.892802
     13          1           0       -0.012775    3.071908   -0.883784
     14          1           0       -1.475281    2.599154    0.000355
     15          1           0       -0.012286    3.071770    0.883773
     16          1           0        2.844494   -2.177147    0.000195
     17          1           0        3.434958   -0.758069   -0.882899
     18          1           0        3.435349   -0.757678    0.882414
     19          1           0        0.063758   -2.190303    0.000228
 ---------------------------------------------------------------------

 SCF Done:  E(RB3LYP) =  -423.215509359     A.U. after    1 cycles

 The electronic state is 1-A.
 Alpha  occ. eigenvalues --  -19.18512 -19.16013 -10.23256 -10.22491 -10.21870
 Alpha  occ. eigenvalues --  -10.20905 -10.18703 -10.17842 -10.16859  -1.09033
 Alpha  occ. eigenvalues --   -1.05267  -0.78449  -0.78232  -0.72332  -0.70279
 Alpha  occ. eigenvalues --   -0.63680  -0.57757  -0.54983  -0.50205  -0.46654
 Alpha  occ. eigenvalues --   -0.45558  -0.44637  -0.44281  -0.41269  -0.41098
 Alpha  occ. eigenvalues --   -0.40013  -0.38407  -0.37812  -0.37694  -0.35086
 Alpha  occ. eigenvalues --   -0.33050  -0.32097  -0.24151  -0.18416
 Alpha virt. eigenvalues --    0.02774   0.10198   0.10350   0.10599   0.12015
 Alpha virt. eigenvalues --    0.13206   0.14765   0.15920   0.16924   0.17053
 Alpha virt. eigenvalues --    0.17857   0.18340   0.19626   0.21211   0.23158

 Mulliken charges:
               1
     1  C   -0.244886
     2  O   -0.268699
     3  C    0.256747
     4  C    0.228902
     5  C   -0.500478
     6  O   -0.214812
     7  C    0.373320
     8  C   -0.490753
     9  C   -0.422866
    10  H    0.119113
    11  H    0.131445
    12  H    0.119123
    13  H    0.129563
    14  H    0.143209
    15  H    0.129569
    16  H    0.131502
    17  H    0.136194
    18  H    0.136189
    19  H    0.107617
 Sum of Mulliken charges =   0.00000

 Dipole moment (field-independent basis, Debye):
    X=             -0.1489    Y=             -1.4996    Z=              0.0003  Tot=              1.5069
 Quadrupole moment (field-independent basis, Debye-Ang):
   XX=            -49.2947   YY=            -48.3927   ZZ=            -54.3346
   XY=              0.8726   XZ=             -0.0002   YZ=              0.0001

  Exact polarizability: 100.116  -1.314  94.060   0.000  -0.002  51.867
 Approx polarizability: 139.499   2.650 138.547   0.002  -0.005  78.853

                      1                      2                      3
                      A                      A                      A
 Frequencies --     48.5874               109.9955               122.0096
 Red. masses --      3.1273                 1.0657                 1.0190
 Frc consts  --      0.0043                 0.0076                 0.0089
 IR Inten    --      3.8185                 0.0250                 0.0033

                      4                      5                      6
                      A                      A                      A
 Frequencies --    167.5145               185.8897               198.6639
 Red. masses --      2.1957                 2.9790                 1.5087
 Frc consts  --      0.0363                 0.0607                 0.0351
 IR Inten    --      1.7106                 0.9575                 1.1192

                      7                      8                      9
                      A                      A                      A
 Frequencies --    240.4746               243.0931               354.1855
 Red. masses --      2.4989                 2.3006                 3.0325
 Frc consts  --      0.0851                 0.0801                 0.2241
 IR Inten    --      1.4589                 1.2529                 2.0976

                     10                     11                     12
                      A                      A                      A
 Frequencies --    363.8770               530.9843               578.8550
 Red. masses --      5.7010                 3.3947                 5.1764
 Frc consts  --      0.4447                 0.5639                 1.0219
 IR Inten    --      1.2019                 2.9756                 5.3816

                     13                     14                     15
                      A                      A                      A
 Frequencies --    629.7190               630.8730               677.5418
 Red. masses --      4.7617                 5.5160                 4.2335
 Frc consts  --      1.1125                 1.2935                 1.1450
 IR Inten    --      5.7808                 0.0158                 0.0000

                     16                     17                     18
                      A                      A                      A
 Frequencies --    773.0853               798.7732               943.3730
 Red. masses --      1.3082                 3.5460                 1.9718
 Frc consts  --      0.4607                 1.3330                 1.0339
 IR Inten    --     23.4387                 2.9611                 4.0978

                     19                     20                     21
                      A                      A                      A
 Frequencies --   1015.6609              1031.7330              1058.7047
 Red. masses --      3.2230                 1.6386                 1.4264
 Frc consts  --      1.9589                 1.0277                 0.9420
 IR Inten    --      9.8678                10.3872                 0.7368

                     22                     23                     24
                      A                      A                      A
 Frequencies --   1066.9559              1073.7418              1162.4857
 Red. masses --      1.4515                 5.9248                 1.5873
 Frc consts  --      0.9736                 4.0246                 1.2638
 IR Inten    --      1.6179                21.7953                 3.2083

                     25                     26                     27
                      A                      A                      A
 Frequencies --   1179.3662              1182.4774              1221.6482
 Red. masses --      1.2690                 5.2127                 1.5378
 Frc consts  --      1.0400                 4.2943                 1.3522
 IR Inten    --      0.9681               105.7679                 2.1706

                     28                     29                     30
                      A                      A                      A
 Frequencies --   1254.4900              1320.9853              1405.1179
 Red. masses --      5.1051                 4.5027                 1.4203
 Frc consts  --      4.7336                 4.6293                 1.6522
 IR Inten    --     33.9294               123.2361                14.6541

                     31                     32                     33
                      A                      A                      A
 Frequencies --   1415.0552              1436.6561              1471.4820
 Red. masses --      1.2913                 2.0989                 1.0430
 Frc consts  --      1.5234                 2.5523                 1.3306
 IR Inten    --     13.7211                56.1794                 4.5516

                     34                     35                     36
                      A                      A                      A
 Frequencies --   1475.5373              1487.0248              1487.6815
 Red. masses --      1.0428                 1.1686                 1.0479
 Frc consts  --      1.3377                 1.5225                 1.3665
 IR Inten    --      4.9467                 3.6449                 4.7393

                     37                     38                     39
                      A                      A                      A
 Frequencies --   1494.2428              1497.9613              1508.4523
 Red. masses --      1.1110                 1.3874                 1.0516
 Frc consts  --      1.4615                 1.8342                 1.4098
 IR Inten    --      1.9625                24.8486                19.2886

                     40                     41                     42
                      A                      A                      A
 Frequencies --   1611.4262              1695.9963              2996.6855
 Red. masses --      6.3492                 7.7420                 1.0350
 Frc consts  --      9.7138                13.1206                 5.4760
 IR Inten    --      2.8804                93.3950                64.4261

                     43                     44                     45
                      A                      A                      A
 Frequencies --   3018.9326              3026.7260              3052.2575
 Red. masses --      1.0389                 1.0383                 1.1046
 Frc consts  --      5.5789                 5.6041                 6.0631
 IR Inten    --     49.8421                37.4150                43.6633

                     46                     47                     48
                      A                      A                      A
 Frequencies --   3063.5773              3075.1591              3126.9299
 Red. masses --      1.1005                 1.1002                 1.0980
 Frc consts  --      6.0853                 6.1298                 6.3252
 IR Inten    --     22.0101                17.0414                10.9418

                     49                     50                     51
                      A                      A                      A
 Frequencies --   3127.6237              3128.6080              3263.1804
 Red. masses --      1.0962                 1.0984                 1.0965
 Frc consts  --      6.3180                 6.3343                 6.8790
 IR Inten    --      8.6475                24.8995                 1.9757

 - Thermochemistry -
 -------------------
 Temperature   298.150 Kelvin.  Pressure   1.00000 Atm.
 Atom     1 has atomic number  6 and mass  12.00000

 Molecular mass:   126.06808 amu.
 Principal axes and moments of inertia in atomic units:
                           1         2         3
     Eigenvalues --   749.486541347.114282062.65737
           X            0.99995  -0.00952   0.00000
           Y            0.00952   0.99995   0.00000
           Z            0.00000   0.00000   1.00000
 This molecule is an asymmetric top.
 Rotational symmetry number  1.
 Warning -- assumption of classical behavior for rotation
           may cause significant error
 Rotational temperatures (Kelvin)      0.11556     0.06430     0.04199
 Rotational constants (GHZ):           2.40797     1.33971     0.87496
 Zero-point vibrational energy     412903.4 (Joules/Mol)
                                   98.68628 (Kcal/Mol)
 Warning -- explicit consideration of  12 degrees of freedom as
           vibrations may cause significant error
 Vibrational temperatures:     69.91   158.26   175.54   241.02   267.45
          (Kelvin)            285.83   345.99   349.76   509.59   523.54
                              763.97   832.84   906.02   907.68   974.83
                             1112.30  1149.26  1357.30  1461.31  1484.43
                             1523.24  1535.11  1544.87  1672.56  1696.84
                             1701.32  1757.68  1804.93  1900.60  2021.65
                             2035.95  2067.03  2117.13  2122.97  2139.49
                             2140.44  2149.88  2155.23  2170.32  2318.48
                             2440.16  4311.56  4343.57  4354.78  4391.51
                             4407.80  4424.46  4498.95  4499.95  4501.36
                             4694.98

 Zero-point correction=                           0.157267 (Hartree/Particle)
 Thermal correction to Energy=                    0.167109
 Thermal correction to Enthalpy=                  0.168053
 Thermal correction to Gibbs Free Energy=         0.121974
 Sum of electronic and zero-point Energies=           -423.058243
 Sum of electronic and thermal Energies=              -423.048400
 Sum of electronic and thermal Enthalpies=            -423.047456
 Sum of electronic and thermal Free Energies=         -423.093535

                     E (Thermal)             CV                S
                      KCal/Mol        Cal/Mol-Kelvin    Cal/Mol-Kelvin
 Total                  104.863             34.655             96.982
 Electronic               0.000              0.000              0.000
 Translational            0.889              2.981             40.409
 Rotational               0.889              2.981             29.123
 Vibrational            103.085             28.693             27.451
 Vibration     1          0.595              1.978              4.874
 Vibration     2          0.606              1.941              3.269
 Vibration     3          0.610              1.931              3.068
 Vibration     4          0.624              1.882              2.463
 Vibration     5          0.632              1.859              2.268
 Vibration     6          0.637              1.842              2.145
 Vibration     7          0.658              1.778              1.799
 Vibration     8          0.659              1.774              1.780
 Vibration     9          0.730              1.567              1.148
 Vibration    10          0.737              1.547              1.105
 Vibration    11          0.886              1.181              0.585
 Vibration    12          0.935              1.077              0.487

 Optimization completed.
    -- Stationary point found.
 Normal termination of Gaussian 09 at Mon Jan 27 10:53:20 2020.
