 Gaussian 09, Revision D.01,
 Gaussian 09:  ES64L-G09RevD.01 24-Apr-2013

 -----------------------------
 # b3lyp 6-31G(2df,p) opt Freq
 -----------------------------

 -----
 titel
 -----
 Symbolic Z-matrix:
 Charge =  0 Multiplicity = 1

 SCF Done:  E(RB3LYP) =  -423.178988717     A.U. after   14 cycles
 Optimization completed.
    -- Stationary point found.
 Normal termination of Gaussian 09 at Tue Jan 28 08:14:20 2020.

 ----------------------------------------------------------------------
 #N Geom=AllCheck Guess=TCheck SCRF=Check GenChk RB3LYP/6-31G(2df,p) Fr
 eq
 ----------------------------------------------------------------------

 Structure from the checkpoint file:  "/scratch/puck/g09_8de2db72-deba-4611-8f79-c55999e3af1f/Gau-25806.chk"
 -----
 titel
 -----
 Charge =  0 Multiplicity = 1

                         Standard orientation:
 ---------------------------------------------------------------------
 Center     Atomic      Atomic             Coordinates (Angstroms)
 Number     Number       Type             X           Y           Z
 ---------------------------------------------------------------------
      1          8           0       -0.252884    1.732221   -1.006213
      2          6           0       -0.009370    1.055109    0.226130
      3          6           0       -1.311203    0.677957    0.942149
      4          6           0       -2.113030   -0.351879    0.131675
      5          6           0       -1.240358   -1.460045   -0.397883
      6          6           0        0.093226   -1.392545   -0.438346
      7          6           0        0.840685   -0.189590    0.002290
      8          6           0        2.262539   -0.020744   -0.330763
      9          8           0        1.879398   -0.428141    0.981466
     10          1           0       -0.592703    1.087036   -1.635806
     11          1           0        0.566954    1.756693    0.835773
     12          1           0       -1.051279    0.252525    1.918925
     13          1           0       -1.906662    1.578276    1.118358
     14          1           0       -2.912049   -0.778497    0.749126
     15          1           0       -2.632362    0.141355   -0.703349
     16          1           0       -1.740778   -2.355803   -0.758076
     17          1           0        0.682365   -2.232086   -0.797148
     18          1           0        2.771761   -0.778523   -0.925794
     19          1           0        2.667708    0.986803   -0.415552
 ---------------------------------------------------------------------

 SCF Done:  E(RB3LYP) =  -423.178988717     A.U. after    1 cycles

 The electronic state is 1-A.
 Alpha  occ. eigenvalues --  -19.15048 -19.13706 -10.24040 -10.23283 -10.23197
 Alpha  occ. eigenvalues --  -10.19561 -10.19469 -10.18982 -10.18292  -1.06866
 Alpha  occ. eigenvalues --   -1.01820  -0.82897  -0.74859  -0.72706  -0.66072
 Alpha  occ. eigenvalues --   -0.61794  -0.60741  -0.53779  -0.51235  -0.48177
 Alpha  occ. eigenvalues --   -0.46632  -0.46247  -0.43054  -0.42044  -0.40556
 Alpha  occ. eigenvalues --   -0.39309  -0.37967  -0.35675  -0.34914  -0.31748
 Alpha  occ. eigenvalues --   -0.31464  -0.28437  -0.25849  -0.24835
 Alpha virt. eigenvalues --    0.00048   0.07084   0.10154   0.10545   0.11905
 Alpha virt. eigenvalues --    0.12984   0.13250   0.14956   0.15608   0.17506
 Alpha virt. eigenvalues --    0.17946   0.18901   0.19807   0.21096   0.22425

 Mulliken charges:
               1
     1  O   -0.439779
     2  C    0.031029
     3  C   -0.233035
     4  C   -0.279805
     5  C   -0.071445
     6  C   -0.120609
     7  C    0.397945
     8  C   -0.245263
     9  O   -0.286272
    10  H    0.285035
    11  H    0.093865
    12  H    0.114847
    13  H    0.102787
    14  H    0.113887
    15  H    0.113810
    16  H    0.095619
    17  H    0.093679
    18  H    0.111374
    19  H    0.122332
 Sum of Mulliken charges =   0.00000

 Dipole moment (field-independent basis, Debye):
    X=             -1.2599    Y=             -0.9527    Z=             -1.2388  Tot=              2.0074
 Quadrupole moment (field-independent basis, Debye-Ang):
   XX=            -50.4556   YY=            -55.6219   ZZ=            -53.6664
   XY=              1.7492   XZ=             -3.0962   YZ=              3.8054

  Exact polarizability:  98.894   3.211  72.242  -2.903   4.834  61.040
 Approx polarizability: 145.337   4.827 102.782   1.343   2.733  98.306

                      1                      2                      3
                      A                      A                      A
 Frequencies --     72.6012               173.8548               217.0433
 Red. masses --      3.6594                 3.4829                 2.8081
 Frc consts  --      0.0114                 0.0620                 0.0779
 IR Inten    --      1.6558                 3.3561                 2.7388

                      4                      5                      6
                      A                      A                      A
 Frequencies --    276.0060               300.6038               305.0621
 Red. masses --      2.3046                 1.2382                 2.8986
 Frc consts  --      0.1034                 0.0659                 0.1589
 IR Inten    --     19.5058                60.1091                 3.1768

                      7                      8                      9
                      A                      A                      A
 Frequencies --    388.7276               427.9561               440.5338
 Red. masses --      2.6731                 4.5325                 2.9115
 Frc consts  --      0.2380                 0.4891                 0.3329
 IR Inten    --      6.6851                 0.1746                 2.9846

                     10                     11                     12
                      A                      A                      A
 Frequencies --    557.1116               595.7698               676.0763
 Red. masses --      3.0988                 4.3393                 3.6049
 Frc consts  --      0.5667                 0.9075                 0.9708
 IR Inten    --     13.8191                 3.4937                 7.4261

                     13                     14                     15
                      A                      A                      A
 Frequencies --    739.1765               787.1544               851.8899
 Red. masses --      1.7439                 1.7604                 3.5090
 Frc consts  --      0.5614                 0.6427                 1.5004
 IR Inten    --     17.0436                 1.6673                12.5294

                     16                     17                     18
                      A                      A                      A
 Frequencies --    866.6575               887.9532               939.3938
 Red. masses --      3.6380                 1.9590                 1.8699
 Frc consts  --      1.6099                 0.9100                 0.9722
 IR Inten    --      9.9642                 6.1370                 3.1440

                     19                     20                     21
                      A                      A                      A
 Frequencies --    965.8602               993.6562               995.2001
 Red. masses --      2.4245                 2.9591                 2.2074
 Frc consts  --      1.3326                 1.7214                 1.2881
 IR Inten    --      9.0208                53.3886                11.6034

                     22                     23                     24
                      A                      A                      A
 Frequencies --   1008.2782              1079.8550              1089.3284
 Red. masses --      1.3961                 2.0325                 2.2700
 Frc consts  --      0.8362                 1.3964                 1.5871
 IR Inten    --      0.0506                24.5174                51.1148

                     25                     26                     27
                      A                      A                      A
 Frequencies --   1130.8972              1153.3734              1157.6990
 Red. masses --      1.2796                 1.2372                 1.3251
 Frc consts  --      0.9642                 0.9697                 1.0464
 IR Inten    --      6.6690                 6.3113                 0.9248

                     28                     29                     30
                      A                      A                      A
 Frequencies --   1189.3972              1243.2337              1267.6719
 Red. masses --      1.1404                 1.3270                 1.4582
 Frc consts  --      0.9505                 1.2084                 1.3806
 IR Inten    --      8.0856                 3.0546                10.3194

                     31                     32                     33
                      A                      A                      A
 Frequencies --   1304.2283              1319.4048              1360.1290
 Red. masses --      1.5626                 1.8056                 1.6853
 Frc consts  --      1.5660                 1.8519                 1.8369
 IR Inten    --      1.8447                10.4072                10.0217

                     34                     35                     36
                      A                      A                      A
 Frequencies --   1374.3665              1384.6186              1416.1008
 Red. masses --      1.5034                 2.0154                 1.3154
 Frc consts  --      1.6731                 2.2765                 1.5542
 IR Inten    --      1.7583                 3.6281                41.8818

                     37                     38                     39
                      A                      A                      A
 Frequencies --   1449.8452              1472.6996              1484.4804
 Red. masses --      1.7913                 1.0883                 1.1009
 Frc consts  --      2.2185                 1.3907                 1.4294
 IR Inten    --      2.7913                 6.4779                 5.3036

                     40                     41                     42
                      A                      A                      A
 Frequencies --   1525.4724              1706.4436              3002.1646
 Red. masses --      1.2943                 6.7783                 1.0710
 Frc consts  --      1.7745                11.6293                 5.6873
 IR Inten    --      1.0633                 2.1267                24.3951

                     43                     44                     45
                      A                      A                      A
 Frequencies --   3037.7713              3055.0158              3077.3278
 Red. masses --      1.0650                 1.0859                 1.0638
 Frc consts  --      5.7904                 5.9712                 5.9354
 IR Inten    --     10.6511                29.7183                25.5778

                     46                     47                     48
                      A                      A                      A
 Frequencies --   3078.2053              3093.7429              3149.8755
 Red. masses --      1.0727                 1.1018                 1.0844
 Frc consts  --      5.9884                 6.2134                 6.3392
 IR Inten    --     28.6303                26.0995                 7.2909

                     49                     50                     51
                      A                      A                      A
 Frequencies --   3165.3090              3173.6947              3807.3697
 Red. masses --      1.1189                 1.0971                 1.0659
 Frc consts  --      6.6049                 6.5110                 9.1033
 IR Inten    --     12.8992                28.7172                13.9162

 - Thermochemistry -
 -------------------
 Temperature   298.150 Kelvin.  Pressure   1.00000 Atm.
 Atom     1 has atomic number  8 and mass  15.99491

 Molecular mass:   126.06808 amu.
 Principal axes and moments of inertia in atomic units:
                           1         2         3
     Eigenvalues --   715.497631140.979051429.38410
           X            0.99939   0.01993  -0.02864
           Y           -0.01812   0.99789   0.06229
           Z            0.02982  -0.06174   0.99765
 This molecule is an asymmetric top.
 Rotational symmetry number  1.
 Warning -- assumption of classical behavior for rotation
           may cause significant error
 Rotational temperatures (Kelvin)      0.12105     0.07591     0.06060
 Rotational constants (GHZ):           2.52236     1.58175     1.26260
 Zero-point vibrational energy     419986.7 (Joules/Mol)
                                  100.37922 (Kcal/Mol)
 Warning -- explicit consideration of  11 degrees of freedom as
           vibrations may cause significant error
 Vibrational temperatures:    104.46   250.14   312.28   397.11   432.50
          (Kelvin)            438.92   559.29   615.73   633.83   801.56
                              857.18   972.72  1063.51  1132.54  1225.68
                             1246.93  1277.56  1351.58  1389.66  1429.65
                             1431.87  1450.69  1553.67  1567.30  1627.11
                             1659.44  1665.67  1711.28  1788.73  1823.89
                             1876.49  1898.33  1956.92  1977.40  1992.15
                             2037.45  2086.00  2118.88  2135.83  2194.81
                             2455.19  4319.44  4370.67  4395.48  4427.58
                             4428.85  4451.20  4531.96  4554.17  4566.23
                             5477.95

 Zero-point correction=                           0.159964 (Hartree/Particle)
 Thermal correction to Energy=                    0.168151
 Thermal correction to Enthalpy=                  0.169095
 Thermal correction to Gibbs Free Energy=         0.127360
 Sum of electronic and zero-point Energies=           -423.019024
 Sum of electronic and thermal Energies=              -423.010838
 Sum of electronic and thermal Enthalpies=            -423.009894
 Sum of electronic and thermal Free Energies=         -423.051628

                     E (Thermal)             CV                S
                      KCal/Mol        Cal/Mol-Kelvin    Cal/Mol-Kelvin
 Total                  105.516             32.017             87.838
 Electronic               0.000              0.000              0.000
 Translational            0.889              2.981             40.409
 Rotational               0.889              2.981             28.547
 Vibrational            103.739             26.055             18.882
 Vibration     1          0.599              1.967              4.082
 Vibration     2          0.627              1.875              2.393
 Vibration     3          0.646              1.815              1.984
 Vibration     4          0.678              1.718              1.558
 Vibration     5          0.693              1.673              1.414
 Vibration     6          0.696              1.664              1.389
 Vibration     7          0.757              1.494              1.005
 Vibration     8          0.789              1.409              0.865
 Vibration     9          0.800              1.382              0.825
 Vibration    10          0.913              1.124              0.530
 Vibration    11          0.954              1.041              0.457

 Optimization completed.
    -- Stationary point found.
 Normal termination of Gaussian 09 at Tue Jan 28 09:02:07 2020.
