 Gaussian 09, Revision D.01,
 Gaussian 09:  ES64L-G09RevD.01 24-Apr-2013

 -----------------------------
 # b3lyp 6-31G(2df,p) opt Freq
 -----------------------------

 -----
 titel
 -----
 Symbolic Z-matrix:
 Charge =  0 Multiplicity = 1

 SCF Done:  E(RB3LYP) =  -423.193071692     A.U. after   14 cycles
 Optimization completed.
    -- Stationary point found.
 Normal termination of Gaussian 09 at Mon Jan 27 15:50:49 2020.

 ----------------------------------------------------------------------
 #N Geom=AllCheck Guess=TCheck SCRF=Check GenChk RB3LYP/6-31G(2df,p) Fr
 eq
 ----------------------------------------------------------------------

 Structure from the checkpoint file:  "/scratch/puck/g09_bd1bc924-3804-48d2-8dd3-9801457d937d/Gau-34979.chk"
 -----
 titel
 -----
 Charge =  0 Multiplicity = 1

                         Standard orientation:
 ---------------------------------------------------------------------
 Center     Atomic      Atomic             Coordinates (Angstroms)
 Number     Number       Type             X           Y           Z
 ---------------------------------------------------------------------
      1          6           0       -1.147708    1.942916   -0.025892
      2          6           0       -1.160488    0.420255   -0.242128
      3          6           0       -2.415581   -0.179355    0.372423
      4          8           0       -3.260674   -0.783421   -0.233447
      5          6           0        0.056906   -0.245958    0.382736
      6          6           0        0.559233   -1.563105   -0.101030
      7          6           0        1.358116   -0.302955   -0.412551
      8          6           0        2.628564   -0.076729    0.311199
      9          8           0        3.592900    0.485616   -0.143262
     10          1           0       -0.228330    2.376452   -0.429256
     11          1           0       -1.999340    2.419339   -0.519778
     12          1           0       -1.193447    2.189842    1.040857
     13          1           0       -1.192775    0.190297   -1.312365
     14          1           0       -2.502957   -0.014412    1.473544
     15          1           0        0.177294   -0.050785    1.447090
     16          1           0        0.976913   -2.256285    0.621654
     17          1           0        0.057654   -2.033445   -0.939348
     18          1           0        1.341794    0.069566   -1.431139
     19          1           0        2.631134   -0.478540    1.353873
 ---------------------------------------------------------------------

 SCF Done:  E(RB3LYP) =  -423.193071692     A.U. after    1 cycles

 The electronic state is 1-A.
 Alpha  occ. eigenvalues --  -19.14878 -19.13833 -10.27889 -10.27524 -10.22722
 Alpha  occ. eigenvalues --  -10.21619 -10.21607 -10.21574 -10.19899  -1.05590
 Alpha  occ. eigenvalues --   -1.04656  -0.89700  -0.80178  -0.68857  -0.66213
 Alpha  occ. eigenvalues --   -0.61890  -0.59385  -0.57376  -0.51013  -0.49658
 Alpha  occ. eigenvalues --   -0.45947  -0.45706  -0.43908  -0.42724  -0.42148
 Alpha  occ. eigenvalues --   -0.40840  -0.39920  -0.38901  -0.37551  -0.36219
 Alpha  occ. eigenvalues --   -0.32417  -0.31237  -0.26087  -0.25125
 Alpha virt. eigenvalues --   -0.03598  -0.01768   0.07351   0.08959   0.09672
 Alpha virt. eigenvalues --    0.11345   0.12877   0.13269   0.14149   0.15652
 Alpha virt. eigenvalues --    0.16321   0.16928   0.18413   0.18962   0.22003

 Mulliken charges:
               1
     1  C   -0.414314
     2  C   -0.089526
     3  C    0.169348
     4  O   -0.244032
     5  C   -0.015953
     6  C   -0.307014
     7  C   -0.109228
     8  C    0.164197
     9  O   -0.264293
    10  H    0.137924
    11  H    0.133680
    12  H    0.124445
    13  H    0.098672
    14  H    0.071853
    15  H    0.099327
    16  H    0.128981
    17  H    0.140736
    18  H    0.111197
    19  H    0.064001
 Sum of Mulliken charges =   0.00000

 Dipole moment (field-independent basis, Debye):
    X=             -0.7376    Y=              0.1393    Z=              1.2349  Tot=              1.4452
 Quadrupole moment (field-independent basis, Debye-Ang):
   XX=            -76.6022   YY=            -52.3876   ZZ=            -50.6931
   XY=             -8.5233   XZ=             -0.0964   YZ=             -0.4796

  Exact polarizability:  98.161   5.752  71.904   0.161  -0.567  67.764
 Approx polarizability: 136.734  18.048 105.834  -0.854   0.140 107.817

                      1                      2                      3
                      A                      A                      A
 Frequencies --     41.8024                57.6105                87.9516
 Red. masses --      6.3135                 4.9187                 5.2484
 Frc consts  --      0.0065                 0.0096                 0.0239
 IR Inten    --      7.1088                 6.1715                 1.4644

                      4                      5                      6
                      A                      A                      A
 Frequencies --    158.2442               199.5714               220.2840
 Red. masses --      3.1929                 2.1456                 1.0605
 Frc consts  --      0.0471                 0.0503                 0.0303
 IR Inten    --      3.5407                 1.9793                 0.4301

                      7                      8                      9
                      A                      A                      A
 Frequencies --    274.6987               301.6373               324.7343
 Red. masses --      2.5992                 2.9469                 2.6342
 Frc consts  --      0.1156                 0.1580                 0.1637
 IR Inten    --      0.8413                 4.6043                 3.9718

                     10                     11                     12
                      A                      A                      A
 Frequencies --    389.0309               442.7005               526.0819
 Red. masses --      3.2121                 2.4892                 5.1315
 Frc consts  --      0.2864                 0.2874                 0.8368
 IR Inten    --      3.9051                 0.0355                10.8566

                     13                     14                     15
                      A                      A                      A
 Frequencies --    539.7111               804.4981               858.3876
 Red. masses --      3.6610                 2.4159                 2.3800
 Frc consts  --      0.6283                 0.9213                 1.0332
 IR Inten    --     10.2170                 1.1438                 5.0303

                     16                     17                     18
                      A                      A                      A
 Frequencies --    865.0233               897.2226               935.5199
 Red. masses --      1.2595                 1.6295                 1.7165
 Frc consts  --      0.5553                 0.7728                 0.8851
 IR Inten    --     11.5510                47.0628                11.1643

                     19                     20                     21
                      A                      A                      A
 Frequencies --    957.9336              1000.5665              1038.6242
 Red. masses --      3.0628                 1.8459                 1.8240
 Frc consts  --      1.6559                 1.0888                 1.1593
 IR Inten    --      8.2187                 1.5097                30.5696

                     22                     23                     24
                      A                      A                      A
 Frequencies --   1054.9217              1076.2590              1106.0698
 Red. masses --      1.5854                 1.4092                 2.3612
 Frc consts  --      1.0395                 0.9617                 1.7020
 IR Inten    --     28.2286                 4.8562                 6.2113

                     25                     26                     27
                      A                      A                      A
 Frequencies --   1127.1315              1155.6545              1182.9691
 Red. masses --      1.1313                 1.9150                 1.7614
 Frc consts  --      0.8468                 1.5069                 1.4523
 IR Inten    --      1.6605                11.8763                35.2003

                     28                     29                     30
                      A                      A                      A
 Frequencies --   1197.0674              1218.3056              1262.3526
 Red. masses --      2.0644                 2.0041                 1.3601
 Frc consts  --      1.7429                 1.7526                 1.2769
 IR Inten    --      1.1838                 2.9840                 4.8100

                     31                     32                     33
                      A                      A                      A
 Frequencies --   1310.9465              1329.0414              1404.7571
 Red. masses --      1.4310                 1.3790                 1.2248
 Frc consts  --      1.4490                 1.4352                 1.4241
 IR Inten    --      1.3561                 7.8421                 2.1718

                     34                     35                     36
                      A                      A                      A
 Frequencies --   1416.5979              1428.8948              1444.9870
 Red. masses --      1.3966                 1.1926                 1.3708
 Frc consts  --      1.6512                 1.4347                 1.6864
 IR Inten    --      1.2333                 2.4204                 6.4015

                     37                     38                     39
                      A                      A                      A
 Frequencies --   1486.8381              1497.4851              1498.1809
 Red. masses --      1.3445                 1.0538                 1.0599
 Frc consts  --      1.7512                 1.3923                 1.4016
 IR Inten    --      3.3255                 5.7257                 6.9467

                     40                     41                     42
                      A                      A                      A
 Frequencies --   1823.3562              1838.2575              2834.2004
 Red. masses --     10.2188                10.4024                 1.0810
 Frc consts  --     20.0167                20.7107                 5.1160
 IR Inten    --    327.6033               132.1007                83.6459

                     43                     44                     45
                      A                      A                      A
 Frequencies --   2843.4857              3036.0412              3060.2208
 Red. masses --      1.0814                 1.0359                 1.0841
 Frc consts  --      5.1515                 5.6260                 5.9819
 IR Inten    --    116.7687                16.0615                 6.8954

                     46                     47                     48
                      A                      A                      A
 Frequencies --   3105.6168              3119.8795              3124.4604
 Red. masses --      1.0995                 1.1028                 1.0862
 Frc consts  --      6.2480                 6.3242                 6.2475
 IR Inten    --     17.3080                15.2517                13.5164

                     49                     50                     51
                      A                      A                      A
 Frequencies --   3135.9492              3178.8769              3224.2697
 Red. masses --      1.0551                 1.0899                 1.1164
 Frc consts  --      6.1132                 6.4891                 6.8381
 IR Inten    --      7.1023                 2.8347                 3.2431

 - Thermochemistry -
 -------------------
 Temperature   298.150 Kelvin.  Pressure   1.00000 Atm.
 Atom     1 has atomic number  6 and mass  12.00000

 Molecular mass:   126.06808 amu.
 Principal axes and moments of inertia in atomic units:
                           1         2         3
     Eigenvalues --   498.915222257.187672603.12653
           X            0.99972  -0.02357   0.00046
           Y            0.02357   0.99971  -0.00575
           Z           -0.00032   0.00576   0.99998
 This molecule is an asymmetric top.
 Rotational symmetry number  1.
 Warning -- assumption of classical behavior for rotation
           may cause significant error
 Rotational temperatures (Kelvin)      0.17360     0.03837     0.03327
 Rotational constants (GHZ):           3.61733     0.79955     0.69330
 Zero-point vibrational energy     409391.5 (Joules/Mol)
                                   97.84691 (Kcal/Mol)
 Warning -- explicit consideration of  13 degrees of freedom as
           vibrations may cause significant error
 Vibrational temperatures:     60.14    82.89   126.54   227.68   287.14
          (Kelvin)            316.94   395.23   433.99   467.22   559.73
                              636.95   756.91   776.52  1157.49  1235.03
                             1244.57  1290.90  1346.00  1378.25  1439.59
                             1494.35  1517.80  1548.49  1591.39  1621.69
                             1662.73  1702.03  1722.31  1752.87  1816.24
                             1886.16  1912.19  2021.13  2038.17  2055.86
                             2079.01  2139.23  2154.54  2155.55  2623.40
                             2644.84  4077.78  4091.14  4368.18  4402.97
                             4468.28  4488.81  4495.40  4511.93  4573.69
                             4639.00

 Zero-point correction=                           0.155929 (Hartree/Particle)
 Thermal correction to Energy=                    0.165832
 Thermal correction to Enthalpy=                  0.166776
 Thermal correction to Gibbs Free Energy=         0.119789
 Sum of electronic and zero-point Energies=           -423.037143
 Sum of electronic and thermal Energies=              -423.027240
 Sum of electronic and thermal Enthalpies=            -423.026296
 Sum of electronic and thermal Free Energies=         -423.073283

                     E (Thermal)             CV                S
                      KCal/Mol        Cal/Mol-Kelvin    Cal/Mol-Kelvin
 Total                  104.061             34.626             98.893
 Electronic               0.000              0.000              0.000
 Translational            0.889              2.981             40.409
 Rotational               0.889              2.981             29.462
 Vibrational            102.284             28.665             29.022
 Vibration     1          0.594              1.980              5.172
 Vibration     2          0.596              1.974              4.537
 Vibration     3          0.601              1.958              3.705
 Vibration     4          0.621              1.893              2.571
 Vibration     5          0.638              1.840              2.137
 Vibration     6          0.647              1.810              1.957
 Vibration     7          0.677              1.720              1.566
 Vibration     8          0.694              1.671              1.408
 Vibration     9          0.709              1.626              1.286
 Vibration    10          0.757              1.494              1.004
 Vibration    11          0.802              1.377              0.818
 Vibration    12          0.881              1.192              0.596
 Vibration    13          0.895              1.162              0.566

 Optimization completed.
    -- Stationary point found.
 Normal termination of Gaussian 09 at Mon Jan 27 16:43:30 2020.
