 Gaussian 09, Revision D.01,
 Gaussian 09:  ES64L-G09RevD.01 24-Apr-2013

 -----------------------------
 # b3lyp 6-31G(2df,p) opt Freq
 -----------------------------

 -----
 titel
 -----
 Symbolic Z-matrix:
 Charge =  0 Multiplicity = 1

 SCF Done:  E(RB3LYP) =  -423.177950016     A.U. after   14 cycles
 Optimization completed.
    -- Stationary point found.
 Normal termination of Gaussian 09 at Tue Jan 28 14:01:03 2020.

 ----------------------------------------------------------------------
 #N Geom=AllCheck Guess=TCheck SCRF=Check GenChk RB3LYP/6-31G(2df,p) Fr
 eq
 ----------------------------------------------------------------------

 Structure from the checkpoint file:  "/scratch/puck/g09_e1d2a3ff-bcdb-4c54-b366-57e064428624/Gau-9702.chk"
 -----
 titel
 -----
 Charge =  0 Multiplicity = 1

                         Standard orientation:
 ---------------------------------------------------------------------
 Center     Atomic      Atomic             Coordinates (Angstroms)
 Number     Number       Type             X           Y           Z
 ---------------------------------------------------------------------
      1          6           0        2.935273    0.413493   -0.611767
      2          6           0        2.095405   -0.542657    0.242676
      3          6           0        0.672200   -0.689752   -0.272099
      4          6           0       -0.398153   -1.142050    0.669708
      5          6           0       -1.708714   -1.341057   -0.095969
      6          6           0       -1.680134    0.188574   -0.359713
      7          8           0       -2.554695    1.000358   -0.529323
      8          6           0       -0.304690    0.374848    0.163936
      9          8           0        0.141915    1.536358    0.732197
     10          1           0        2.974247    0.080866   -1.654947
     11          1           0        2.511944    1.421228   -0.592859
     12          1           0        3.963433    0.467068   -0.241470
     13          1           0        2.558344   -1.536999    0.257332
     14          1           0        2.074589   -0.189153    1.278752
     15          1           0        0.617130   -1.044691   -1.302714
     16          1           0       -0.193171   -1.494772    1.671745
     17          1           0       -1.657858   -2.000071   -0.967903
     18          1           0       -2.574685   -1.607754    0.514546
     19          1           0       -0.638861    2.042152    0.993883
 ---------------------------------------------------------------------

 SCF Done:  E(RB3LYP) =  -423.177950016     A.U. after    1 cycles

 The electronic state is 1-A.
 Alpha  occ. eigenvalues --  -19.16898 -19.12858 -10.26740 -10.25414 -10.21246
 Alpha  occ. eigenvalues --  -10.21085 -10.19861 -10.19191 -10.17477  -1.06209
 Alpha  occ. eigenvalues --   -1.03343  -0.90249  -0.78265  -0.71533  -0.65285
 Alpha  occ. eigenvalues --   -0.61384  -0.58036  -0.57832  -0.49866  -0.47362
 Alpha  occ. eigenvalues --   -0.45394  -0.44858  -0.43757  -0.41224  -0.40238
 Alpha  occ. eigenvalues --   -0.39215  -0.38229  -0.36270  -0.35347  -0.34775
 Alpha  occ. eigenvalues --   -0.34510  -0.30444  -0.24481  -0.24112
 Alpha virt. eigenvalues --   -0.00844   0.07038   0.09895   0.10690   0.11108
 Alpha virt. eigenvalues --    0.11806   0.13279   0.15708   0.15981   0.16550
 Alpha virt. eigenvalues --    0.18205   0.18302   0.19849   0.21738   0.22389

 Mulliken charges:
               1
     1  C   -0.381203
     2  C   -0.211560
     3  C   -0.057555
     4  C   -0.163900
     5  C   -0.363098
     6  C    0.321194
     7  O   -0.339898
     8  C    0.315644
     9  O   -0.451666
    10  H    0.112912
    11  H    0.140598
    12  H    0.112757
    13  H    0.100785
    14  H    0.111416
    15  H    0.087730
    16  H    0.113846
    17  H    0.117484
    18  H    0.130585
    19  H    0.303929
 Sum of Mulliken charges =   0.00000

 Dipole moment (field-independent basis, Debye):
    X=              1.4898    Y=             -1.8083    Z=              1.0451  Tot=              2.5655
 Quadrupole moment (field-independent basis, Debye-Ang):
   XX=            -59.1891   YY=            -52.7012   ZZ=            -51.5427
   XY=              2.3515   XZ=             -3.3647   YZ=              2.0129

  Exact polarizability:  93.692  -1.407  77.069   1.586  -0.473  62.536
 Approx polarizability: 125.310 -10.228 123.625   6.289  -3.438  98.680

                      1                      2                      3
                      A                      A                      A
 Frequencies --     79.2133                96.6300               155.9722
 Red. masses --      5.7583                 2.6104                 2.5990
 Frc consts  --      0.0213                 0.0144                 0.0373
 IR Inten    --      6.4669                 0.2765                 2.4855

                      4                      5                      6
                      A                      A                      A
 Frequencies --    202.9742               230.0664               280.3889
 Red. masses --      1.4836                 2.3957                 1.7600
 Frc consts  --      0.0360                 0.0747                 0.0815
 IR Inten    --      6.1896                20.3600                 0.5522

                      7                      8                      9
                      A                      A                      A
 Frequencies --    334.5895               369.6931               387.3671
 Red. masses --      3.2870                 1.5631                 2.7116
 Frc consts  --      0.2168                 0.1259                 0.2397
 IR Inten    --      0.4986                48.3173                19.6552

                     10                     11                     12
                      A                      A                      A
 Frequencies --    446.0105               523.2744               584.5392
 Red. masses --      2.9255                 3.3818                 3.0896
 Frc consts  --      0.3429                 0.5456                 0.6220
 IR Inten    --      1.5550                 3.3523                 4.3873

                     13                     14                     15
                      A                      A                      A
 Frequencies --    690.0285               696.2189               721.3162
 Red. masses --      4.3079                 4.4793                 2.7312
 Frc consts  --      1.2085                 1.2792                 0.8372
 IR Inten    --      1.7054                10.5166                17.7289

                     16                     17                     18
                      A                      A                      A
 Frequencies --    817.3242               873.7385               915.7110
 Red. masses --      1.4054                 2.0273                 1.5960
 Frc consts  --      0.5532                 0.9119                 0.7885
 IR Inten    --     18.0597                11.0373                 1.1023

                     19                     20                     21
                      A                      A                      A
 Frequencies --    918.2471               959.1468              1006.2738
 Red. masses --      2.1302                 2.5991                 2.4049
 Frc consts  --      1.0583                 1.4088                 1.4348
 IR Inten    --      8.3025                14.7519                 4.2599

                     22                     23                     24
                      A                      A                      A
 Frequencies --   1033.4760              1035.7273              1087.0671
 Red. masses --      2.0567                 1.9914                 1.6885
 Frc consts  --      1.2943                 1.2586                 1.1756
 IR Inten    --     42.5364                16.1085                 2.2374

                     25                     26                     27
                      A                      A                      A
 Frequencies --   1105.0391              1155.4534              1166.3124
 Red. masses --      1.5156                 1.6327                 1.8102
 Frc consts  --      1.0904                 1.2843                 1.4508
 IR Inten    --     11.6901                 1.0728                36.4314

                     28                     29                     30
                      A                      A                      A
 Frequencies --   1200.5385              1221.1653              1259.3990
 Red. masses --      1.5127                 1.8770                 1.5574
 Frc consts  --      1.2846                 1.6492                 1.4554
 IR Inten    --     24.0176                14.4894                 3.3102

                     31                     32                     33
                      A                      A                      A
 Frequencies --   1292.2255              1339.2042              1356.8235
 Red. masses --      1.2960                 1.4458                 1.6877
 Frc consts  --      1.2751                 1.5277                 1.8306
 IR Inten    --      3.9177                16.1747                95.1310

                     34                     35                     36
                      A                      A                      A
 Frequencies --   1397.0141              1412.3134              1447.9848
 Red. masses --      2.2007                 1.2433                 2.2572
 Frc consts  --      2.5306                 1.4611                 2.7884
 IR Inten    --     23.8079                 2.5569                 0.4924

                     37                     38                     39
                      A                      A                      A
 Frequencies --   1471.7759              1486.5114              1499.3070
 Red. masses --      1.2128                 1.0899                 1.0497
 Frc consts  --      1.5479                 1.4189                 1.3902
 IR Inten    --      8.0949                 1.0502                 3.4270

                     40                     41                     42
                      A                      A                      A
 Frequencies --   1510.1917              1838.3029              3031.7518
 Red. masses --      1.0617                12.5759                 1.0635
 Frc consts  --      1.4267                25.0393                 5.7593
 IR Inten    --      2.8889               383.9568                27.4461

                     43                     44                     45
                      A                      A                      A
 Frequencies --   3037.1838              3053.8934              3070.6678
 Red. masses --      1.0368                 1.0604                 1.0932
 Frc consts  --      5.6351                 5.8265                 6.0732
 IR Inten    --     25.2859                26.8945                 0.5745

                     46                     47                     48
                      A                      A                      A
 Frequencies --   3085.2004              3104.5783              3116.7950
 Red. masses --      1.0924                 1.1003                 1.1045
 Frc consts  --      6.1262                 6.2485                 6.3215
 IR Inten    --     25.3171                41.4524                10.1610

                     49                     50                     51
                      A                      A                      A
 Frequencies --   3123.8365              3211.9330              3767.4022
 Red. masses --      1.1019                 1.0930                 1.0656
 Frc consts  --      6.3356                 6.6433                 8.9110
 IR Inten    --     24.2352                 2.2165                44.5812

 - Thermochemistry -
 -------------------
 Temperature   298.150 Kelvin.  Pressure   1.00000 Atm.
 Atom     1 has atomic number  6 and mass  12.00000

 Molecular mass:   126.06808 amu.
 Principal axes and moments of inertia in atomic units:
                           1         2         3
     Eigenvalues --   575.047531528.576581831.89418
           X            0.99956   0.02542  -0.01557
           Y           -0.02539   0.99968   0.00200
           Z            0.01562  -0.00161   0.99988
 This molecule is an asymmetric top.
 Rotational symmetry number  1.
 Warning -- assumption of classical behavior for rotation
           may cause significant error
 Rotational temperatures (Kelvin)      0.15062     0.05666     0.04728
 Rotational constants (GHZ):           3.13842     1.18067     0.98518
 Zero-point vibrational energy     413954.6 (Joules/Mol)
                                   98.93751 (Kcal/Mol)
 Warning -- explicit consideration of  12 degrees of freedom as
           vibrations may cause significant error
 Vibrational temperatures:    113.97   139.03   224.41   292.03   331.01
          (Kelvin)            403.42   481.40   531.91   557.33   641.71
                              752.87   841.02   992.80  1001.70  1037.81
                             1175.95  1257.11  1317.50  1321.15  1380.00
                             1447.80  1486.94  1490.18  1564.05  1589.90
                             1662.44  1678.06  1727.30  1756.98  1811.99
                             1859.22  1926.81  1952.16  2009.99  2032.00
                             2083.32  2117.55  2138.76  2157.17  2172.83
                             2644.90  4362.01  4369.82  4393.87  4418.00
                             4438.91  4466.79  4484.37  4494.50  4621.25
                             5420.44

 Zero-point correction=                           0.157667 (Hartree/Particle)
 Thermal correction to Energy=                    0.166770
 Thermal correction to Enthalpy=                  0.167714
 Thermal correction to Gibbs Free Energy=         0.123797
 Sum of electronic and zero-point Energies=           -423.020283
 Sum of electronic and thermal Energies=              -423.011180
 Sum of electronic and thermal Enthalpies=            -423.010236
 Sum of electronic and thermal Free Energies=         -423.054153

                     E (Thermal)             CV                S
                      KCal/Mol        Cal/Mol-Kelvin    Cal/Mol-Kelvin
 Total                  104.650             34.078             92.432
 Electronic               0.000              0.000              0.000
 Translational            0.889              2.981             40.409
 Rotational               0.889              2.981             28.867
 Vibrational            102.872             28.117             23.156
 Vibration     1          0.600              1.963              3.910
 Vibration     2          0.603              1.952              3.521
 Vibration     3          0.620              1.896              2.598
 Vibration     4          0.639              1.836              2.106
 Vibration     5          0.652              1.795              1.878
 Vibration     6          0.680              1.710              1.531
 Vibration     7          0.716              1.606              1.238
 Vibration     8          0.742              1.534              1.081
 Vibration     9          0.756              1.497              1.010
 Vibration    10          0.805              1.370              0.808
 Vibration    11          0.878              1.198              0.602
 Vibration    12          0.941              1.065              0.477

 Optimization completed.
    -- Stationary point found.
 Normal termination of Gaussian 09 at Tue Jan 28 14:48:46 2020.
