 Gaussian 09, Revision D.01,
 Gaussian 09:  ES64L-G09RevD.01 24-Apr-2013

 -----------------------------
 # b3lyp 6-31G(2df,p) opt Freq
 -----------------------------

 -----
 titel
 -----
 Symbolic Z-matrix:
 Charge =  0 Multiplicity = 1

 SCF Done:  E(RB3LYP) =  -423.127641892     A.U. after   14 cycles
 Optimization completed.
    -- Stationary point found.
 Normal termination of Gaussian 09 at Mon Jan 27 12:52:05 2020.

 ----------------------------------------------------------------------
 #N Geom=AllCheck Guess=TCheck SCRF=Check GenChk RB3LYP/6-31G(2df,p) Fr
 eq
 ----------------------------------------------------------------------

 Structure from the checkpoint file:  "/scratch/puck/g09_2beeba44-3cff-4df1-9638-fc8fc8cb7182/Gau-73091.chk"
 -----
 titel
 -----
 Charge =  0 Multiplicity = 1

                         Standard orientation:
 ---------------------------------------------------------------------
 Center     Atomic      Atomic             Coordinates (Angstroms)
 Number     Number       Type             X           Y           Z
 ---------------------------------------------------------------------
      1          6           0       -0.184245   -1.372260    0.532146
      2          6           0       -1.582162   -1.183016   -0.068369
      3          8           0       -1.939280    0.074539   -0.616281
      4          6           0       -1.763526    1.217948    0.210127
      5          6           0       -0.346019    1.587792    0.233122
      6          6           0        0.844757    1.482181    0.084281
      7          6           0        2.149797    0.899467   -0.188947
      8          6           0        2.051115   -0.635150    0.073800
      9          8           0        0.852835   -1.198605   -0.421245
     10          1           0       -0.045425   -0.704492    1.388317
     11          1           0       -0.161379   -2.406035    0.919414
     12          1           0       -1.711903   -1.885936   -0.897121
     13          1           0       -2.293525   -1.467127    0.727542
     14          1           0       -2.387963    2.002229   -0.229867
     15          1           0       -2.140202    1.035752    1.229970
     16          1           0        2.420672    1.076829   -1.236581
     17          1           0        2.955640    1.319505    0.424421
     18          1           0        2.883772   -1.135136   -0.433388
     19          1           0        2.153570   -0.824831    1.150539
 ---------------------------------------------------------------------

 SCF Done:  E(RB3LYP) =  -423.127641892     A.U. after    1 cycles

 The electronic state is 1-A.
 Alpha  occ. eigenvalues --  -19.14117 -19.13838 -10.25009 -10.23803 -10.23005
 Alpha  occ. eigenvalues --  -10.22890 -10.20736 -10.17215 -10.16535  -1.03670
 Alpha  occ. eigenvalues --   -1.02395  -0.80037  -0.75535  -0.74642  -0.66787
 Alpha  occ. eigenvalues --   -0.63912  -0.59193  -0.51464  -0.50362  -0.49457
 Alpha  occ. eigenvalues --   -0.47064  -0.46269  -0.44509  -0.43384  -0.41201
 Alpha  occ. eigenvalues --   -0.40688  -0.38828  -0.36368  -0.32541  -0.30774
 Alpha  occ. eigenvalues --   -0.27350  -0.26267  -0.24690  -0.23888
 Alpha virt. eigenvalues --    0.02236   0.05558   0.09187   0.09927   0.12200
 Alpha virt. eigenvalues --    0.13394   0.14214   0.14599   0.15300   0.16454
 Alpha virt. eigenvalues --    0.17436   0.17535   0.18999   0.19583   0.22683

 Mulliken charges:
               1
     1  C   -0.085938
     2  C   -0.064323
     3  O   -0.223994
     4  C   -0.217336
     5  C    0.053930
     6  C    0.073952
     7  C   -0.347701
     8  C   -0.066768
     9  O   -0.234335
    10  H    0.105124
    11  H    0.087488
    12  H    0.121659
    13  H    0.084614
    14  H    0.135493
    15  H    0.110309
    16  H    0.137582
    17  H    0.121411
    18  H    0.108799
    19  H    0.100034
 Sum of Mulliken charges =   0.00000

 Dipole moment (field-independent basis, Debye):
    X=              0.8320    Y=             -0.5547    Z=              1.7620  Tot=              2.0260
 Quadrupole moment (field-independent basis, Debye-Ang):
   XX=            -47.6047   YY=            -53.6602   ZZ=            -54.0568
   XY=              0.1911   XZ=             -2.1932   YZ=             -1.4794

  Exact polarizability: 100.586  -0.027  75.941  -4.021  -1.001  59.451
 Approx polarizability: 151.831  -2.549 103.504  -6.795   1.168  95.405

                      1                      2                      3
                      A                      A                      A
 Frequencies --    106.3290               160.5389               195.6125
 Red. masses --      2.3896                 4.3369                 6.1071
 Frc consts  --      0.0159                 0.0659                 0.1377
 IR Inten    --      0.3602                 3.8517                 4.0375

                      4                      5                      6
                      A                      A                      A
 Frequencies --    237.6022               269.1630               330.0885
 Red. masses --      2.0494                 3.6003                 4.3998
 Frc consts  --      0.0682                 0.1537                 0.2825
 IR Inten    --      0.5310                 5.5106                 1.6492

                      7                      8                      9
                      A                      A                      A
 Frequencies --    355.4719               359.8750               403.4444
 Red. masses --      2.0241                 3.8960                 2.6607
 Frc consts  --      0.1507                 0.2973                 0.2552
 IR Inten    --      3.8038                 5.6809                 2.0797

                     10                     11                     12
                      A                      A                      A
 Frequencies --    520.8142               563.7357               626.5223
 Red. masses --      4.4926                 3.3190                 3.3600
 Frc consts  --      0.7180                 0.6215                 0.7771
 IR Inten    --      7.8921                 9.5223                31.2643

                     13                     14                     15
                      A                      A                      A
 Frequencies --    750.2243               806.9661               825.4325
 Red. masses --      3.2659                 2.8648                 2.0994
 Frc consts  --      1.0830                 1.0992                 0.8428
 IR Inten    --     18.5916                17.7299                 0.2824

                     16                     17                     18
                      A                      A                      A
 Frequencies --    870.5669               912.4204               966.0264
 Red. masses --      2.2046                 2.4199                 3.0390
 Frc consts  --      0.9844                 1.1870                 1.6710
 IR Inten    --     16.8144                 4.3162                20.7762

                     19                     20                     21
                      A                      A                      A
 Frequencies --   1021.0825              1026.9476              1071.0655
 Red. masses --      3.4254                 1.8437                 1.9249
 Frc consts  --      2.1042                 1.1456                 1.3010
 IR Inten    --     25.9823                 3.8925                 8.3230

                     22                     23                     24
                      A                      A                      A
 Frequencies --   1120.0246              1147.0676              1152.4685
 Red. masses --      3.3579                 3.8905                 3.3102
 Frc consts  --      2.4818                 3.0160                 2.5904
 IR Inten    --     47.8455               141.0196                22.6524

                     25                     26                     27
                      A                      A                      A
 Frequencies --   1160.2241              1227.7214              1264.9203
 Red. masses --      2.6444                 1.2596                 1.1626
 Frc consts  --      2.0973                 1.1186                 1.0960
 IR Inten    --     38.8666                 7.0555                28.4132

                     28                     29                     30
                      A                      A                      A
 Frequencies --   1281.8596              1298.0236              1334.5414
 Red. masses --      1.2998                 1.1452                 1.1755
 Frc consts  --      1.2584                 1.1369                 1.2335
 IR Inten    --      4.0658                11.6361                 1.5968

                     31                     32                     33
                      A                      A                      A
 Frequencies --   1345.8950              1373.7047              1393.0169
 Red. masses --      1.2072                 1.2402                 1.2137
 Frc consts  --      1.2884                 1.3789                 1.3876
 IR Inten    --     17.2276                12.0877                19.6597

                     34                     35                     36
                      A                      A                      A
 Frequencies --   1420.1233              1431.1240              1469.2747
 Red. masses --      1.2736                 1.2833                 1.0944
 Frc consts  --      1.5134                 1.5485                 1.3920
 IR Inten    --     10.9900                 9.7818                 1.5101

                     37                     38                     39
                      A                      A                      A
 Frequencies --   1477.1027              1482.0288              1493.6260
 Red. masses --      1.0827                 1.0890                 1.0783
 Frc consts  --      1.3918                 1.4093                 1.4174
 IR Inten    --      1.3288                 2.7090                 0.7844

                     40                     41                     42
                      A                      A                      A
 Frequencies --   1506.3448              2347.7755              2946.7583
 Red. masses --      1.1025                11.7614                 1.0691
 Frc consts  --      1.4739                38.1964                 5.4699
 IR Inten    --      5.2907                 7.6025                 7.3805

                     43                     44                     45
                      A                      A                      A
 Frequencies --   2963.3338              2972.8141              3009.8079
 Red. masses --      1.0731                 1.0706                 1.0621
 Frc consts  --      5.5522                 5.5746                 5.6690
 IR Inten    --    121.8716                68.5822                48.4205

                     46                     47                     48
                      A                      A                      A
 Frequencies --   3030.9988              3061.7164              3062.4366
 Red. masses --      1.0597                 1.0969                 1.0894
 Frc consts  --      5.7361                 6.0585                 6.0195
 IR Inten    --     25.9312                28.1130                 4.8952

                     49                     50                     51
                      A                      A                      A
 Frequencies --   3068.9452              3075.0899              3089.0481
 Red. masses --      1.0895                 1.1052                 1.0915
 Frc consts  --      6.0461                 6.1578                 6.1367
 IR Inten    --     23.4718                33.3757                40.3400

 - Thermochemistry -
 -------------------
 Temperature   298.150 Kelvin.  Pressure   1.00000 Atm.
 Atom     1 has atomic number  6 and mass  12.00000

 Molecular mass:   126.06808 amu.
 Principal axes and moments of inertia in atomic units:
                           1         2         3
     Eigenvalues --   701.526281160.099791697.86891
           X            0.99989   0.01057  -0.01039
           Y           -0.01078   0.99974  -0.02019
           Z            0.01018   0.02030   0.99974
 This molecule is an asymmetric top.
 Rotational symmetry number  1.
 Warning -- assumption of classical behavior for rotation
           may cause significant error
 Rotational temperatures (Kelvin)      0.12346     0.07466     0.05101
 Rotational constants (GHZ):           2.57259     1.55568     1.06294
 Zero-point vibrational energy     421012.2 (Joules/Mol)
                                  100.62433 (Kcal/Mol)
 Warning -- explicit consideration of  11 degrees of freedom as
           vibrations may cause significant error
 Vibrational temperatures:    152.98   230.98   281.44   341.86   387.26
          (Kelvin)            474.92   511.44   517.78   580.47   749.33
                              811.09   901.42  1079.40  1161.04  1187.61
                             1252.55  1312.77  1389.89  1469.11  1477.55
                             1541.02  1611.46  1650.37  1658.14  1669.30
                             1766.42  1819.94  1844.31  1867.56  1920.11
                             1936.44  1976.45  2004.24  2043.24  2059.07
                             2113.96  2125.22  2132.31  2148.99  2167.29
                             3377.92  4239.72  4263.57  4277.21  4330.44
                             4360.93  4405.12  4406.16  4415.52  4424.36
                             4444.45

 Zero-point correction=                           0.160355 (Hartree/Particle)
 Thermal correction to Energy=                    0.168699
 Thermal correction to Enthalpy=                  0.169644
 Thermal correction to Gibbs Free Energy=         0.127644
 Sum of electronic and zero-point Energies=           -422.967287
 Sum of electronic and thermal Energies=              -422.958943
 Sum of electronic and thermal Enthalpies=            -422.957998
 Sum of electronic and thermal Free Energies=         -422.999997

                     E (Thermal)             CV                S
                      KCal/Mol        Cal/Mol-Kelvin    Cal/Mol-Kelvin
 Total                  105.860             31.789             88.395
 Electronic               0.000              0.000              0.000
 Translational            0.889              2.981             40.409
 Rotational               0.889              2.981             28.715
 Vibrational            104.083             25.827             19.271
 Vibration     1          0.605              1.944              3.335
 Vibration     2          0.622              1.891              2.543
 Vibration     3          0.636              1.846              2.174
 Vibration     4          0.656              1.783              1.821
 Vibration     5          0.674              1.730              1.602
 Vibration     6          0.713              1.615              1.260
 Vibration     7          0.731              1.564              1.142
 Vibration     8          0.734              1.555              1.123
 Vibration     9          0.769              1.463              0.950
 Vibration    10          0.876              1.204              0.608
 Vibration    11          0.920              1.110              0.516

 Normal termination of Gaussian 09 at Mon Jan 27 13:34:13 2020.
