 Gaussian 09, Revision D.01,
 Gaussian 09:  ES64L-G09RevD.01 24-Apr-2013

 -----------------------------
 # b3lyp 6-31G(2df,p) opt Freq
 -----------------------------

 -----
 titel
 -----
 Symbolic Z-matrix:
 Charge =  0 Multiplicity = 1

 SCF Done:  E(RB3LYP) =  -423.179163562     A.U. after   14 cycles
 Optimization completed.
    -- Stationary point found.
 Normal termination of Gaussian 09 at Tue Jan 28 09:16:25 2020.

 ----------------------------------------------------------------------
 #N Geom=AllCheck Guess=TCheck SCRF=Check GenChk RB3LYP/6-31G(2df,p) Fr
 eq
 ----------------------------------------------------------------------

 Structure from the checkpoint file:  "/scratch/puck/g09_d940bac1-9b5d-43f8-a855-984acb31fa0f/Gau-82375.chk"
 -----
 titel
 -----
 Charge =  0 Multiplicity = 1

                         Standard orientation:
 ---------------------------------------------------------------------
 Center     Atomic      Atomic             Coordinates (Angstroms)
 Number     Number       Type             X           Y           Z
 ---------------------------------------------------------------------
      1          6           0       -2.318928   -0.978326   -0.690431
      2          6           0       -1.337710   -0.158651    0.095962
      3          6           0       -0.646205   -0.620576    1.331563
      4          6           0        0.227836   -0.270289    0.132327
      5          6           0        1.269964   -1.165261   -0.486485
      6          8           0        2.545505   -0.906633    0.078000
      7          6           0        0.285108    1.210465   -0.004495
      8          8           0        1.195577    1.947253   -0.288430
      9          6           0       -1.251251    1.382703    0.045698
     10          1           0       -2.067211   -2.042801   -0.655525
     11          1           0       -3.330989   -0.865073   -0.284247
     12          1           0       -2.348015   -0.669770   -1.740990
     13          1           0       -0.629526   -0.007389    2.229241
     14          1           0       -0.683030   -1.688642    1.528659
     15          1           0        1.048991   -2.221610   -0.301616
     16          1           0        1.284674   -1.017029   -1.578070
     17          1           0        2.717609    0.033866   -0.059439
     18          1           0       -1.682090    1.929928    0.889790
     19          1           0       -1.611945    1.823174   -0.889206
 ---------------------------------------------------------------------

 SCF Done:  E(RB3LYP) =  -423.179163562     A.U. after    1 cycles

 The electronic state is 1-A.
 Alpha  occ. eigenvalues --  -19.13632 -19.12945 -10.27174 -10.23534 -10.22585
 Alpha  occ. eigenvalues --  -10.20804 -10.20655 -10.20008 -10.19781  -1.04547
 Alpha  occ. eigenvalues --   -1.01172  -0.91570  -0.74379  -0.73849  -0.69991
 Alpha  occ. eigenvalues --   -0.62625  -0.56533  -0.52347  -0.49445  -0.48426
 Alpha  occ. eigenvalues --   -0.47230  -0.45964  -0.43220  -0.42098  -0.41418
 Alpha  occ. eigenvalues --   -0.40709  -0.39809  -0.37874  -0.36169  -0.33802
 Alpha  occ. eigenvalues --   -0.31286  -0.27533  -0.26238  -0.24489
 Alpha virt. eigenvalues --   -0.01396   0.07104   0.08405   0.10347   0.11966
 Alpha virt. eigenvalues --    0.12566   0.13168   0.14106   0.15247   0.15700
 Alpha virt. eigenvalues --    0.16309   0.17412   0.19011   0.20372   0.21479

 Mulliken charges:
               1
     1  C   -0.492061
     2  C    0.274447
     3  C   -0.366010
     4  C    0.172738
     5  C   -0.183052
     6  O   -0.416163
     7  C    0.385160
     8  O   -0.344631
     9  C   -0.412112
    10  H    0.126239
    11  H    0.131737
    12  H    0.126536
    13  H    0.120106
    14  H    0.124791
    15  H    0.107657
    16  H    0.095229
    17  H    0.297849
    18  H    0.120867
    19  H    0.130672
 Sum of Mulliken charges =   0.00000

 Dipole moment (field-independent basis, Debye):
    X=             -3.4954    Y=             -1.1500    Z=             -0.0822  Tot=              3.6806
 Quadrupole moment (field-independent basis, Debye-Ang):
   XX=            -57.2923   YY=            -56.5049   ZZ=            -51.5539
   XY=              0.1366   XZ=             -0.4887   YZ=              1.4000

  Exact polarizability:  86.321   2.577  78.930  -0.735  -1.840  65.773
 Approx polarizability: 126.162   9.146 117.489  -2.581  -6.384  99.948

                      1                      2                      3
                      A                      A                      A
 Frequencies --     58.9668               109.2976               125.1095
 Red. masses --      4.0628                 4.3023                 3.6924
 Frc consts  --      0.0083                 0.0303                 0.0341
 IR Inten    --      5.6283                 1.6938                 0.8400

                      4                      5                      6
                      A                      A                      A
 Frequencies --    218.8367               232.1455               268.8050
 Red. masses --      1.0760                 2.7199                 2.9479
 Frc consts  --      0.0304                 0.0864                 0.1255
 IR Inten    --      0.0262                 3.4610                 1.7503

                      7                      8                      9
                      A                      A                      A
 Frequencies --    337.4018               393.2855               461.7330
 Red. masses --      2.2798                 2.4835                 2.1824
 Frc consts  --      0.1529                 0.2263                 0.2741
 IR Inten    --      0.2394                 0.6888                17.5614

                     10                     11                     12
                      A                      A                      A
 Frequencies --    480.2621               490.4256               561.3151
 Red. masses --      1.6813                 2.0666                 3.2584
 Frc consts  --      0.2285                 0.2928                 0.6049
 IR Inten    --     56.2530                61.0891                 1.6011

                     13                     14                     15
                      A                      A                      A
 Frequencies --    612.1060               668.8425               765.4073
 Red. masses --      2.9011                 3.5841                 3.5044
 Frc consts  --      0.6404                 0.9447                 1.2096
 IR Inten    --      3.4934                 2.4376                 7.0518

                     16                     17                     18
                      A                      A                      A
 Frequencies --    805.6438               872.1812               938.9746
 Red. masses --      5.1718                 2.6185                 1.4312
 Frc consts  --      1.9778                 1.1736                 0.7434
 IR Inten    --     19.8160                 4.0175                 0.6458

                     19                     20                     21
                      A                      A                      A
 Frequencies --    975.6554               988.0347               994.0469
 Red. masses --      1.3324                 1.6840                 1.8123
 Frc consts  --      0.7473                 0.9686                 1.0551
 IR Inten    --      2.5392                 4.9067                 2.5558

                     22                     23                     24
                      A                      A                      A
 Frequencies --   1032.4760              1054.9523              1075.9465
 Red. masses --      2.6132                 2.5433                 1.8526
 Frc consts  --      1.6413                 1.6677                 1.2636
 IR Inten    --     90.7416                61.0533                 9.5030

                     25                     26                     27
                      A                      A                      A
 Frequencies --   1096.4564              1121.4411              1143.1614
 Red. masses --      1.4372                 1.6820                 1.7430
 Frc consts  --      1.0180                 1.2463                 1.3420
 IR Inten    --      0.6692                 3.0427                26.7247

                     28                     29                     30
                      A                      A                      A
 Frequencies --   1207.4875              1237.7326              1268.3433
 Red. masses --      1.4764                 2.0081                 2.1517
 Frc consts  --      1.2683                 1.8125                 2.0394
 IR Inten    --      5.6837                 2.9509                11.2430

                     31                     32                     33
                      A                      A                      A
 Frequencies --   1354.1239              1373.8909              1391.4785
 Red. masses --      3.8192                 1.3948                 1.7237
 Frc consts  --      4.1261                 1.5512                 1.9663
 IR Inten    --     21.5288                 1.8703                 1.2897

                     34                     35                     36
                      A                      A                      A
 Frequencies --   1423.1908              1441.5112              1457.4833
 Red. masses --      1.4364                 1.3024                 1.1091
 Frc consts  --      1.7141                 1.5945                 1.3881
 IR Inten    --     10.8566                90.7623                 2.1990

                     37                     38                     39
                      A                      A                      A
 Frequencies --   1485.5385              1497.4332              1503.6812
 Red. masses --      1.0474                 1.0652                 1.1840
 Frc consts  --      1.3618                 1.4073                 1.5774
 IR Inten    --      3.2564                 4.6776                 4.1206

                     40                     41                     42
                      A                      A                      A
 Frequencies --   1510.4599              1848.6248              2975.2584
 Red. masses --      1.2197                12.3462                 1.0698
 Frc consts  --      1.6396                24.8588                 5.5797
 IR Inten    --      0.7220               330.5211                55.0180

                     43                     44                     45
                      A                      A                      A
 Frequencies --   3026.7172              3049.9230              3069.0636
 Red. masses --      1.0359                 1.0580                 1.0927
 Frc consts  --      5.5916                 5.7987                 6.0638
 IR Inten    --     30.5198                19.8205                24.7560

                     46                     47                     48
                      A                      A                      A
 Frequencies --   3086.7478              3103.4890              3104.4717
 Red. masses --      1.1002                 1.1032                 1.1010
 Frc consts  --      6.1762                 6.2603                 6.2521
 IR Inten    --     17.2553                12.2221                10.2999

                     49                     50                     51
                      A                      A                      A
 Frequencies --   3106.7558              3191.3254              3772.9369
 Red. masses --      1.0581                 1.1154                 1.0663
 Frc consts  --      6.0173                 6.6932                 8.9431
 IR Inten    --     24.1352                 7.9826                37.9472

 - Thermochemistry -
 -------------------
 Temperature   298.150 Kelvin.  Pressure   1.00000 Atm.
 Atom     1 has atomic number  6 and mass  12.00000

 Molecular mass:   126.06808 amu.
 Principal axes and moments of inertia in atomic units:
                           1         2         3
     Eigenvalues --   770.863461218.197741655.68583
           X            0.99998   0.00274   0.00573
           Y           -0.00286   0.99978   0.02068
           Z           -0.00567  -0.02070   0.99977
 This molecule is an asymmetric top.
 Rotational symmetry number  1.
 Warning -- assumption of classical behavior for rotation
           may cause significant error
 Rotational temperatures (Kelvin)      0.11236     0.07110     0.05231
 Rotational constants (GHZ):           2.34119     1.48148     1.09003
 Zero-point vibrational energy     414928.2 (Joules/Mol)
                                   99.17022 (Kcal/Mol)
 Warning -- explicit consideration of  13 degrees of freedom as
           vibrations may cause significant error
 Vibrational temperatures:     84.84   157.25   180.00   314.86   334.01
          (Kelvin)            386.75   485.45   565.85   664.33   690.99
                              705.61   807.61   880.68   962.31  1101.25
                             1159.14  1254.87  1350.97  1403.75  1421.56
                             1430.21  1485.50  1517.84  1548.05  1577.55
                             1613.50  1644.75  1737.30  1780.82  1824.86
                             1948.28  1976.72  2002.02  2047.65  2074.01
                             2096.99  2137.36  2154.47  2163.46  2173.21
                             2659.76  4280.73  4354.77  4388.15  4415.69
                             4441.14  4465.22  4466.64  4469.92  4591.60
                             5428.41

 Zero-point correction=                           0.158038 (Hartree/Particle)
 Thermal correction to Energy=                    0.167129
 Thermal correction to Enthalpy=                  0.168074
 Thermal correction to Gibbs Free Energy=         0.123980
 Sum of electronic and zero-point Energies=           -423.021126
 Sum of electronic and thermal Energies=              -423.012034
 Sum of electronic and thermal Enthalpies=            -423.011090
 Sum of electronic and thermal Free Energies=         -423.055184

                     E (Thermal)             CV                S
                      KCal/Mol        Cal/Mol-Kelvin    Cal/Mol-Kelvin
 Total                  104.875             33.903             92.803
 Electronic               0.000              0.000              0.000
 Translational            0.889              2.981             40.409
 Rotational               0.889              2.981             28.832
 Vibrational            103.098             27.941             23.562
 Vibration     1          0.596              1.974              4.491
 Vibration     2          0.606              1.942              3.281
 Vibration     3          0.610              1.928              3.020
 Vibration     4          0.647              1.812              1.969
 Vibration     5          0.653              1.792              1.862
 Vibration     6          0.673              1.731              1.604
 Vibration     7          0.718              1.601              1.224
 Vibration     8          0.760              1.485              0.988
 Vibration     9          0.819              1.335              0.761
 Vibration    10          0.837              1.294              0.709
 Vibration    11          0.846              1.271              0.683
 Vibration    12          0.917              1.115              0.521
 Vibration    13          0.971              1.006              0.429

 Normal termination of Gaussian 09 at Tue Jan 28 10:08:16 2020.
