 Gaussian 09, Revision D.01,
 Gaussian 09:  ES64L-G09RevD.01 24-Apr-2013

 -----------------------------
 # b3lyp 6-31G(2df,p) opt Freq
 -----------------------------

 -----
 titel
 -----
 Symbolic Z-matrix:
 Charge =  0 Multiplicity = 1

 SCF Done:  E(RB3LYP) =  -423.168510846     A.U. after   14 cycles
 Optimization completed.
    -- Stationary point found.
 Normal termination of Gaussian 09 at Tue Jan 28 03:47:41 2020.

 ----------------------------------------------------------------------
 #N Geom=AllCheck Guess=TCheck SCRF=Check GenChk RB3LYP/6-31G(2df,p) Fr
 eq
 ----------------------------------------------------------------------

 Structure from the checkpoint file:  "/scratch/puck/g09_b12cfc09-145c-4327-9e44-fe756dbe31b2/Gau-2773.chk"
 -----
 titel
 -----
 Charge =  0 Multiplicity = 1

                         Standard orientation:
 ---------------------------------------------------------------------
 Center     Atomic      Atomic             Coordinates (Angstroms)
 Number     Number       Type             X           Y           Z
 ---------------------------------------------------------------------
      1          6           0        2.853013   -0.550540    0.091229
      2          6           0        1.468522   -0.229630   -0.439281
      3          8           0        1.147472    1.179900   -0.321946
      4          6           0        0.058503    0.921935    0.597068
      5          6           0       -1.311266    1.313854    0.009275
      6          6           0       -1.871076    0.021334   -0.559455
      7          8           0       -2.161813   -0.946245    0.462057
      8          6           0       -0.958116   -1.102777   -0.295272
      9          6           0        0.261320   -0.611699    0.446780
     10          1           0        3.612164   -0.009537   -0.481870
     11          1           0        2.947110   -0.261362    1.142709
     12          1           0        3.058114   -1.623537    0.005473
     13          1           0        1.379628   -0.557115   -1.485076
     14          1           0        0.256023    1.370015    1.575788
     15          1           0       -1.987524    1.720700    0.767961
     16          1           0       -1.168086    2.072753   -0.765905
     17          1           0       -2.564547    0.028589   -1.396717
     18          1           0       -0.908151   -1.988134   -0.926569
     19          1           0        0.484610   -1.196477    1.341254
 ---------------------------------------------------------------------

 SCF Done:  E(RB3LYP) =  -423.168510846     A.U. after    1 cycles

 The electronic state is 1-A.
 Alpha  occ. eigenvalues --  -19.14985 -19.13063 -10.23740 -10.23729 -10.23696
 Alpha  occ. eigenvalues --  -10.23539 -10.19363 -10.18558 -10.17943  -1.07317
 Alpha  occ. eigenvalues --   -1.03571  -0.78868  -0.76812  -0.71865  -0.65977
 Alpha  occ. eigenvalues --   -0.61674  -0.58244  -0.53845  -0.52785  -0.48820
 Alpha  occ. eigenvalues --   -0.47104  -0.45064  -0.43020  -0.41309  -0.39702
 Alpha  occ. eigenvalues --   -0.39199  -0.38342  -0.36154  -0.35859  -0.31806
 Alpha  occ. eigenvalues --   -0.30931  -0.28671  -0.26769  -0.24701
 Alpha virt. eigenvalues --    0.08137   0.09437   0.10042   0.11278   0.12079
 Alpha virt. eigenvalues --    0.12233   0.14176   0.14783   0.15535   0.16201
 Alpha virt. eigenvalues --    0.16803   0.17606   0.17783   0.20270   0.21358

 Mulliken charges:
               1
     1  C   -0.403689
     2  C    0.142702
     3  O   -0.312072
     4  C    0.132994
     5  C   -0.264786
     6  C    0.047663
     7  O   -0.264115
     8  C    0.024896
     9  C   -0.126694
    10  H    0.127807
    11  H    0.120846
    12  H    0.115263
    13  H    0.073324
    14  H    0.078596
    15  H    0.112001
    16  H    0.117856
    17  H    0.096089
    18  H    0.095906
    19  H    0.085412
 Sum of Mulliken charges =   0.00000

 Dipole moment (field-independent basis, Debye):
    X=              0.6469    Y=             -0.5814    Z=             -0.5461  Tot=              1.0270
 Quadrupole moment (field-independent basis, Debye-Ang):
   XX=            -55.6037   YY=            -53.8082   ZZ=            -51.7937
   XY=             -5.7317   XZ=              3.3622   YZ=              2.5265

  Exact polarizability:  85.313  -6.143  72.607   1.365   2.174  64.582
 Approx polarizability: 110.570  -5.640 109.634  -2.978  -0.541 101.553

                      1                      2                      3
                      A                      A                      A
 Frequencies --     82.6692               161.1246               220.8408
 Red. masses --      3.3937                 3.0914                 1.5831
 Frc consts  --      0.0137                 0.0473                 0.0455
 IR Inten    --      2.8614                 3.8361                 0.2597

                      4                      5                      6
                      A                      A                      A
 Frequencies --    256.8910               330.2687               388.7536
 Red. masses --      1.5372                 3.1815                 4.4556
 Frc consts  --      0.0598                 0.2045                 0.3967
 IR Inten    --      0.6479                 2.8522                 0.5130

                      7                      8                      9
                      A                      A                      A
 Frequencies --    403.9280               484.6484               667.3427
 Red. masses --      2.8766                 2.9652                 3.4748
 Frc consts  --      0.2765                 0.4104                 0.9117
 IR Inten    --      4.4485                11.0102                 1.8758

                     10                     11                     12
                      A                      A                      A
 Frequencies --    717.8361               796.6510               837.3825
 Red. masses --      5.6734                 4.1540                 3.2994
 Frc consts  --      1.7224                 1.5533                 1.3631
 IR Inten    --      2.7219                 0.8598                 3.5219

                     13                     14                     15
                      A                      A                      A
 Frequencies --    850.9388               860.9315               867.1344
 Red. masses --      2.1644                 2.8335                 2.1448
 Frc consts  --      0.9234                 1.2374                 0.9502
 IR Inten    --     24.1770                27.3118                 2.4306

                     16                     17                     18
                      A                      A                      A
 Frequencies --    909.8369               932.5909               952.7354
 Red. masses --      3.0486                 1.9661                 2.7173
 Frc consts  --      1.4869                 1.0075                 1.4532
 IR Inten    --      5.0938                19.2272                10.1424

                     19                     20                     21
                      A                      A                      A
 Frequencies --   1002.5459              1030.5471              1048.0448
 Red. masses --      2.2640                 1.6863                 1.7435
 Frc consts  --      1.3407                 1.0552                 1.1283
 IR Inten    --     14.3974                15.3554                21.2819

                     22                     23                     24
                      A                      A                      A
 Frequencies --   1056.7248              1088.5822              1106.0537
 Red. masses --      2.5940                 1.6988                 1.8098
 Frc consts  --      1.7067                 1.1861                 1.3044
 IR Inten    --     53.5877                12.7138                12.7695

                     25                     26                     27
                      A                      A                      A
 Frequencies --   1116.8446              1146.3613              1203.7940
 Red. masses --      1.8179                 1.9865                 1.3111
 Frc consts  --      1.3360                 1.5381                 1.1194
 IR Inten    --      3.4133                 3.6923                 1.9812

                     28                     29                     30
                      A                      A                      A
 Frequencies --   1211.3320              1243.7844              1253.5025
 Red. masses --      1.9096                 1.4056                 1.4188
 Frc consts  --      1.6509                 1.2812                 1.3135
 IR Inten    --      7.6837                 1.3660                 1.2506

                     31                     32                     33
                      A                      A                      A
 Frequencies --   1286.0857              1303.0753              1325.5854
 Red. masses --      1.4019                 1.4064                 1.3872
 Frc consts  --      1.3662                 1.4070                 1.4362
 IR Inten    --      2.6896                 8.0269                 1.2589

                     34                     35                     36
                      A                      A                      A
 Frequencies --   1344.2478              1371.4585              1395.2839
 Red. masses --      1.5780                 1.5163                 1.3772
 Frc consts  --      1.6800                 1.6804                 1.5797
 IR Inten    --     11.3177                11.9130                 5.5147

                     37                     38                     39
                      A                      A                      A
 Frequencies --   1407.7468              1431.3183              1464.6999
 Red. masses --      1.4104                 3.1216                 1.1044
 Frc consts  --      1.6468                 3.7679                 1.3960
 IR Inten    --     16.0583                14.6459                 4.1140

                     40                     41                     42
                      A                      A                      A
 Frequencies --   1484.1182              1493.7657              2996.9696
 Red. masses --      1.0566                 1.0496                 1.0846
 Frc consts  --      1.3712                 1.3799                 5.7397
 IR Inten    --      3.2161                 2.8797                46.7451

                     43                     44                     45
                      A                      A                      A
 Frequencies --   3032.4635              3047.3620              3059.3085
 Red. masses --      1.0353                 1.0705                 1.0764
 Frc consts  --      5.6090                 5.8572                 5.9355
 IR Inten    --     16.1471                13.9504                49.7926

                     46                     47                     48
                      A                      A                      A
 Frequencies --   3093.5320              3100.9579              3104.3923
 Red. masses --      1.0873                 1.1038                 1.1007
 Frc consts  --      6.1308                 6.2536                 6.2499
 IR Inten    --     19.1885                15.1441                21.5478

                     49                     50                     51
                      A                      A                      A
 Frequencies --   3113.2552              3128.0442              3148.9122
 Red. masses --      1.1022                 1.0882                 1.0939
 Frc consts  --      6.2940                 6.2732                 6.3909
 IR Inten    --     26.0468                22.5525                34.0749

 - Thermochemistry -
 -------------------
 Temperature   298.150 Kelvin.  Pressure   1.00000 Atm.
 Atom     1 has atomic number  6 and mass  12.00000

 Molecular mass:   126.06808 amu.
 Principal axes and moments of inertia in atomic units:
                           1         2         3
     Eigenvalues --   496.497321326.816651602.40671
           X            0.99881  -0.04704   0.01309
           Y            0.04661   0.99842   0.03155
           Z           -0.01455  -0.03090   0.99942
 This molecule is an asymmetric top.
 Rotational symmetry number  1.
 Warning -- assumption of classical behavior for rotation
           may cause significant error
 Rotational temperatures (Kelvin)      0.17445     0.06528     0.05405
 Rotational constants (GHZ):           3.63495     1.36020     1.12627
 Zero-point vibrational energy     420865.4 (Joules/Mol)
                                  100.58925 (Kcal/Mol)
 Warning -- explicit consideration of   8 degrees of freedom as
           vibrations may cause significant error
 Vibrational temperatures:    118.94   231.82   317.74   369.61   475.18
          (Kelvin)            559.33   581.16   697.30   960.16  1032.80
                             1146.20  1204.81  1224.31  1238.69  1247.61
                             1309.05  1341.79  1370.77  1442.44  1482.73
                             1507.90  1520.39  1566.23  1591.36  1606.89
                             1649.36  1731.99  1742.83  1789.53  1803.51
                             1850.39  1874.83  1907.22  1934.07  1973.22
                             2007.50  2025.43  2059.35  2107.37  2135.31
                             2149.19  4311.97  4363.03  4384.47  4401.66
                             4450.90  4461.58  4466.52  4479.27  4500.55
                             4530.58

 Zero-point correction=                           0.160299 (Hartree/Particle)
 Thermal correction to Energy=                    0.167860
 Thermal correction to Enthalpy=                  0.168804
 Thermal correction to Gibbs Free Energy=         0.128146
 Sum of electronic and zero-point Energies=           -423.008212
 Sum of electronic and thermal Energies=              -423.000651
 Sum of electronic and thermal Enthalpies=            -422.999707
 Sum of electronic and thermal Free Energies=         -423.040365

                     E (Thermal)             CV                S
                      KCal/Mol        Cal/Mol-Kelvin    Cal/Mol-Kelvin
 Total                  105.333             29.631             85.571
 Electronic               0.000              0.000              0.000
 Translational            0.889              2.981             40.409
 Rotational               0.889              2.981             28.447
 Vibrational            103.556             23.670             16.715
 Vibration     1          0.600              1.961              3.826
 Vibration     2          0.622              1.890              2.537
 Vibration     3          0.648              1.809              1.952
 Vibration     4          0.666              1.751              1.683
 Vibration     5          0.713              1.615              1.259
 Vibration     6          0.757              1.494              1.005
 Vibration     7          0.769              1.462              0.948
 Vibration     8          0.841              1.284              0.698

 Normal termination of Gaussian 09 at Tue Jan 28 04:30:25 2020.
