 Gaussian 09, Revision D.01,
 Gaussian 09:  ES64L-G09RevD.01 24-Apr-2013

 -----------------------------
 # b3lyp 6-31G(2df,p) opt Freq
 -----------------------------

 -----
 titel
 -----
 Symbolic Z-matrix:
 Charge =  0 Multiplicity = 1

 SCF Done:  E(RB3LYP) =  -423.115987040     A.U. after   13 cycles
 SCF Done:  E(RB3LYP) =  -423.115987075     A.U. after    7 cycles
 SCF Done:  E(RB3LYP) =  -423.115987086     A.U. after    7 cycles
 SCF Done:  E(RB3LYP) =  -423.115987153     A.U. after    7 cycles
 SCF Done:  E(RB3LYP) =  -423.115987249     A.U. after    6 cycles
 Optimization completed.
    -- Stationary point found.
 Normal termination of Gaussian 09 at Tue Jan 28 14:41:42 2020.

 ----------------------------------------------------------------------
 #N Geom=AllCheck Guess=TCheck SCRF=Check GenChk RB3LYP/6-31G(2df,p) Fr
 eq
 ----------------------------------------------------------------------

 Structure from the checkpoint file:  "/scratch/puck/g09_1d04ea52-b172-4461-979c-841ae5359620/Gau-163693.chk"
 -----
 titel
 -----
 Charge =  0 Multiplicity = 1

                         Standard orientation:
 ---------------------------------------------------------------------
 Center     Atomic      Atomic             Coordinates (Angstroms)
 Number     Number       Type             X           Y           Z
 ---------------------------------------------------------------------
      1          6           0        3.142401   -0.775943   -0.058338
      2          8           0        1.760031   -0.613361   -0.289254
      3          6           0        1.368501    0.754016   -0.349860
      4          6           0       -0.099458    0.806476   -0.686106
      5          6           0       -1.039835    1.674199    0.115132
      6          6           0       -1.054395    0.177109    0.320800
      7          8           0       -0.489304   -0.274499    1.520478
      8          6           0       -2.168518   -0.592380   -0.173766
      9          6           0       -3.092213   -1.243957   -0.584694
     10          1           0        3.454640   -0.319184    0.893602
     11          1           0        3.343735   -1.848974   -0.020753
     12          1           0        3.741010   -0.329048   -0.866635
     13          1           0        1.565805    1.239241    0.616972
     14          1           0        1.960588    1.282634   -1.113728
     15          1           0       -0.344731    0.643444   -1.729923
     16          1           0       -0.621297    2.249607    0.933535
     17          1           0       -1.882507    2.127503   -0.392135
     18          1           0        0.187654   -0.918715    1.270426
     19          1           0       -3.909607   -1.820758   -0.940161
 ---------------------------------------------------------------------

 SCF Done:  E(RB3LYP) =  -423.115987249     A.U. after    1 cycles

 The electronic state is 1-A.
 Alpha  occ. eigenvalues --  -19.15342 -19.13904 -10.25878 -10.23828 -10.23257
 Alpha  occ. eigenvalues --  -10.19962 -10.19449 -10.17621 -10.16927  -1.04478
 Alpha  occ. eigenvalues --   -1.02679  -0.86122  -0.74996  -0.72846  -0.65904
 Alpha  occ. eigenvalues --   -0.62259  -0.59106  -0.54402  -0.51048  -0.50247
 Alpha  occ. eigenvalues --   -0.48889  -0.47624  -0.45478  -0.42314  -0.39937
 Alpha  occ. eigenvalues --   -0.39528  -0.36749  -0.34436  -0.33277  -0.31275
 Alpha  occ. eigenvalues --   -0.27643  -0.26885  -0.26551  -0.23899
 Alpha virt. eigenvalues --    0.04052   0.05095   0.08363   0.10461   0.11633
 Alpha virt. eigenvalues --    0.12440   0.13241   0.13549   0.15696   0.16112
 Alpha virt. eigenvalues --    0.16187   0.16971   0.18483   0.20490   0.20992

 Mulliken charges:
               1
     1  C   -0.230485
     2  O   -0.244965
     3  C   -0.091092
     4  C   -0.100949
     5  C   -0.337523
     6  C    0.221621
     7  O   -0.458826
     8  C    0.302424
     9  C   -0.459999
    10  H    0.109993
    11  H    0.131810
    12  H    0.110408
    13  H    0.102113
    14  H    0.096608
    15  H    0.108371
    16  H    0.128230
    17  H    0.127864
    18  H    0.291937
    19  H    0.192461
 Sum of Mulliken charges =   0.00000

 Dipole moment (field-independent basis, Debye):
    X=              1.9870    Y=              0.7072    Z=             -1.1735  Tot=              2.4136
 Quadrupole moment (field-independent basis, Debye-Ang):
   XX=            -46.2466   YY=            -50.4930   ZZ=            -55.7558
   XY=              0.3632   XZ=              3.5327   YZ=             -0.1339

  Exact polarizability: 100.341   8.715  76.144   5.783   2.803  63.085
 Approx polarizability: 130.558  19.419 113.536  11.061   7.106  98.286

                      1                      2                      3
                      A                      A                      A
 Frequencies --     77.5969                90.7460               115.9582
 Red. masses --      3.8316                 3.7944                 1.9855
 Frc consts  --      0.0136                 0.0184                 0.0157
 IR Inten    --      1.0014                 0.4974                12.1786

                      4                      5                      6
                      A                      A                      A
 Frequencies --    161.4449               206.0960               238.0475
 Red. masses --      3.8274                 2.3171                 1.5227
 Frc consts  --      0.0588                 0.0580                 0.0508
 IR Inten    --      0.7936                 2.2537                 5.1769

                      7                      8                      9
                      A                      A                      A
 Frequencies --    285.4188               344.1223               363.3002
 Red. masses --      3.0885                 3.9191                 4.0642
 Frc consts  --      0.1482                 0.2734                 0.3161
 IR Inten    --      1.3653                 7.1362                 1.8038

                     10                     11                     12
                      A                      A                      A
 Frequencies --    431.3180               474.2913               526.8369
 Red. masses --      2.1258                 1.3670                 3.6747
 Frc consts  --      0.2330                 0.1812                 0.6009
 IR Inten    --     54.4241                83.8861                 3.5895

                     13                     14                     15
                      A                      A                      A
 Frequencies --    556.3234               577.8570               598.9662
 Red. masses --      5.4914                 1.4407                 2.3199
 Frc consts  --      1.0014                 0.2834                 0.4904
 IR Inten    --      8.7875                36.1532                21.4623

                     16                     17                     18
                      A                      A                      A
 Frequencies --    672.8717               710.5968               823.5021
 Red. masses --      1.2666                 4.5581                 2.0755
 Frc consts  --      0.3379                 1.3561                 0.8293
 IR Inten    --     35.1037                 3.3037                 3.3376

                     19                     20                     21
                      A                      A                      A
 Frequencies --    883.0545               923.6145               952.5597
 Red. masses --      2.2827                 1.6622                 2.3460
 Frc consts  --      1.0488                 0.8354                 1.2542
 IR Inten    --     15.9332                 8.1644                14.0943

                     22                     23                     24
                      A                      A                      A
 Frequencies --    989.9925              1052.5990              1063.3245
 Red. masses --      2.1646                 2.4268                 1.3725
 Frc consts  --      1.2499                 1.5842                 0.9143
 IR Inten    --      6.4073                28.1035                 6.0998

                     25                     26                     27
                      A                      A                      A
 Frequencies --   1082.6159              1139.5609              1165.9387
 Red. masses --      2.0418                 6.5627                 1.4817
 Frc consts  --      1.4100                 5.0212                 1.1868
 IR Inten    --      4.7645               165.2335                10.9420

                     28                     29                     30
                      A                      A                      A
 Frequencies --   1190.8996              1223.2203              1244.4942
 Red. masses --      1.4450                 1.5629                 2.0495
 Frc consts  --      1.2074                 1.3778                 1.8702
 IR Inten    --      4.2934                18.1720                20.3474

                     31                     32                     33
                      A                      A                      A
 Frequencies --   1263.8694              1281.1459              1375.1861
 Red. masses --      2.1236                 1.3459                 1.3619
 Frc consts  --      1.9986                 1.3016                 1.5174
 IR Inten    --     75.1557                24.2390                16.1757

                     34                     35                     36
                      A                      A                      A
 Frequencies --   1391.8472              1431.6592              1473.2861
 Red. masses --      1.3606                 1.5473                 1.3917
 Frc consts  --      1.5530                 1.8685                 1.7798
 IR Inten    --     27.8198                36.7855                 5.7088

                     37                     38                     39
                      A                      A                      A
 Frequencies --   1479.8010              1486.1697              1500.6575
 Red. masses --      1.1634                 1.0483                 1.0680
 Frc consts  --      1.5010                 1.3642                 1.4170
 IR Inten    --      0.3121                 5.8072                 6.6742

                     40                     41                     42
                      A                      A                      A
 Frequencies --   1521.1467              2233.1637              2972.1733
 Red. masses --      1.0819                 6.0034                 1.0467
 Frc consts  --      1.4749                17.6397                 5.4475
 IR Inten    --      3.1137                 4.3395                27.9630

                     43                     44                     45
                      A                      A                      A
 Frequencies --   2982.2374              3016.8237              3025.2885
 Red. masses --      1.0489                 1.1013                 1.1036
 Frc consts  --      5.4963                 5.9054                 5.9512
 IR Inten    --     87.1144                51.9951                34.5091

                     46                     47                     48
                      A                      A                      A
 Frequencies --   3119.0314              3142.9662              3171.5001
 Red. masses --      1.0968                 1.0541                 1.0894
 Frc consts  --      6.2865                 6.1350                 6.4562
 IR Inten    --     23.8518                 6.6121                 6.5215

                     49                     50                     51
                      A                      A                      A
 Frequencies --   3238.7421              3503.7299              3748.7474
 Red. masses --      1.1176                 1.1605                 1.0657
 Frc consts  --      6.9073                 8.3938                 8.8238
 IR Inten    --      3.6857                74.8742                79.7030

 - Thermochemistry -
 -------------------
 Temperature   298.150 Kelvin.  Pressure   1.00000 Atm.
 Atom     1 has atomic number  6 and mass  12.00000

 Molecular mass:   126.06808 amu.
 Principal axes and moments of inertia in atomic units:
                           1         2         3
     Eigenvalues --   599.930711842.242582006.09380
           X            0.99994  -0.00744   0.00791
           Y            0.00744   0.99997   0.00055
           Z           -0.00792  -0.00049   0.99997
 This molecule is an asymmetric top.
 Rotational symmetry number  1.
 Warning -- assumption of classical behavior for rotation
           may cause significant error
 Rotational temperatures (Kelvin)      0.14437     0.04702     0.04318
 Rotational constants (GHZ):           3.00825     0.97964     0.89963
 Zero-point vibrational energy     409878.5 (Joules/Mol)
                                   97.96332 (Kcal/Mol)
 Warning -- explicit consideration of  15 degrees of freedom as
           vibrations may cause significant error
 Vibrational temperatures:    111.64   130.56   166.84   232.28   296.53
          (Kelvin)            342.50   410.65   495.11   522.71   620.57
                              682.40   758.00   800.42   831.41   861.78
                              968.11  1022.39  1184.83  1270.52  1328.87
                             1370.52  1424.38  1514.45  1529.88  1557.64
                             1639.57  1677.52  1713.44  1759.94  1790.55
                             1818.42  1843.28  1978.58  2002.56  2059.84
                             2119.73  2129.10  2138.26  2159.11  2188.59
                             3213.02  4276.29  4290.77  4340.53  4352.71
                             4487.58  4522.02  4563.08  4659.82  5041.08
                             5393.60

 Zero-point correction=                           0.156114 (Hartree/Particle)
 Thermal correction to Energy=                    0.166002
 Thermal correction to Enthalpy=                  0.166946
 Thermal correction to Gibbs Free Energy=         0.121263
 Sum of electronic and zero-point Energies=           -422.959873
 Sum of electronic and thermal Energies=              -422.949986
 Sum of electronic and thermal Enthalpies=            -422.949041
 Sum of electronic and thermal Free Energies=         -422.994725

                     E (Thermal)             CV                S
                      KCal/Mol        Cal/Mol-Kelvin    Cal/Mol-Kelvin
 Total                  104.168             36.433             96.148
 Electronic               0.000              0.000              0.000
 Translational            0.889              2.981             40.409
 Rotational               0.889              2.981             29.185
 Vibrational            102.390             30.471             26.555
 Vibration     1          0.599              1.964              3.951
 Vibration     2          0.602              1.956              3.644
 Vibration     3          0.608              1.936              3.167
 Vibration     4          0.622              1.890              2.533
 Vibration     5          0.641              1.831              2.078
 Vibration     6          0.656              1.782              1.817
 Vibration     7          0.683              1.701              1.501
 Vibration     8          0.723              1.587              1.193
 Vibration     9          0.737              1.548              1.108
 Vibration    10          0.792              1.402              0.854
 Vibration    11          0.831              1.307              0.726
 Vibration    12          0.882              1.191              0.594
 Vibration    13          0.912              1.126              0.531
 Vibration    14          0.934              1.079              0.489
 Vibration    15          0.957              1.034              0.451

 Optimization completed.
    -- Stationary point found.
 Normal termination of Gaussian 09 at Tue Jan 28 15:22:05 2020.
