 Gaussian 09, Revision D.01,
 Gaussian 09:  ES64L-G09RevD.01 24-Apr-2013

 -----------------------------
 # b3lyp 6-31G(2df,p) opt Freq
 -----------------------------

 -----
 titel
 -----
 Symbolic Z-matrix:
 Charge =  0 Multiplicity = 1

 SCF Done:  E(RB3LYP) =  -423.160626763     A.U. after   14 cycles
 Optimization completed.
    -- Stationary point found.
 Normal termination of Gaussian 09 at Tue Jan 28 14:14:31 2020.

 ----------------------------------------------------------------------
 #N Geom=AllCheck Guess=TCheck SCRF=Check GenChk RB3LYP/6-31G(2df,p) Fr
 eq
 ----------------------------------------------------------------------

 Structure from the checkpoint file:  "/scratch/puck/g09_40336a8d-1590-45b3-92ca-53077a8e892e/Gau-98578.chk"
 -----
 titel
 -----
 Charge =  0 Multiplicity = 1

                         Standard orientation:
 ---------------------------------------------------------------------
 Center     Atomic      Atomic             Coordinates (Angstroms)
 Number     Number       Type             X           Y           Z
 ---------------------------------------------------------------------
      1          6           0        3.430486   -0.119313    0.225774
      2          8           0        2.156434   -0.482931   -0.252317
      3          6           0        1.174733    0.497533    0.008775
      4          6           0       -0.152634    0.002167   -0.539766
      5          6           0       -0.816963   -1.148866    0.235959
      6          6           0       -2.160307   -1.416336   -0.329892
      7          6           0       -2.018832   -0.241944    0.634937
      8          6           0       -1.332116    0.895161   -0.049388
      9          8           0       -1.480564    2.085708   -0.036415
     10          1           0        3.430681    0.028549    1.317444
     11          1           0        4.116592   -0.933172   -0.020649
     12          1           0        3.794111    0.807851   -0.244401
     13          1           0        1.096647    0.685069    1.093955
     14          1           0        1.435364    1.456235   -0.466841
     15          1           0       -0.067737   -0.159732   -1.619363
     16          1           0       -0.287523   -1.838073    0.879224
     17          1           0       -2.359953   -1.235267   -1.382697
     18          1           0       -2.710230   -2.253142    0.088337
     19          1           0       -2.601122   -0.190946    1.546444
 ---------------------------------------------------------------------

 SCF Done:  E(RB3LYP) =  -423.160626763     A.U. after    1 cycles

 The electronic state is 1-A.
 Alpha  occ. eigenvalues --  -19.14413 -19.12996 -10.26846 -10.23421 -10.22691
 Alpha  occ. eigenvalues --  -10.21312 -10.20969 -10.20660 -10.19826  -1.04108
 Alpha  occ. eigenvalues --   -1.03639  -0.90958  -0.76956  -0.69553  -0.65149
 Alpha  occ. eigenvalues --   -0.62437  -0.59164  -0.52920  -0.50154  -0.49324
 Alpha  occ. eigenvalues --   -0.47501  -0.45682  -0.45065  -0.43737  -0.40519
 Alpha  occ. eigenvalues --   -0.39446  -0.38997  -0.36910  -0.34788  -0.32577
 Alpha  occ. eigenvalues --   -0.31046  -0.28437  -0.25967  -0.24118
 Alpha virt. eigenvalues --   -0.01006   0.08684   0.09507   0.10345   0.11141
 Alpha virt. eigenvalues --    0.13299   0.13330   0.15090   0.15853   0.16090
 Alpha virt. eigenvalues --    0.16874   0.17243   0.18576   0.19676   0.21082

 Mulliken charges:
               1
     1  C   -0.228832
     2  O   -0.240410
     3  C   -0.071654
     4  C   -0.154912
     5  C   -0.032615
     6  C   -0.292773
     7  C   -0.169287
     8  C    0.407907
     9  O   -0.328227
    10  H    0.104830
    11  H    0.128013
    12  H    0.107446
    13  H    0.088808
    14  H    0.107013
    15  H    0.098514
    16  H    0.114222
    17  H    0.124217
    18  H    0.127806
    19  H    0.109933
 Sum of Mulliken charges =   0.00000

 Dipole moment (field-independent basis, Debye):
    X=              0.7393    Y=             -2.3004    Z=              0.7279  Tot=              2.5236
 Quadrupole moment (field-independent basis, Debye-Ang):
   XX=            -48.8572   YY=            -59.1865   ZZ=            -51.3633
   XY=              7.3551   XZ=              0.7646   YZ=             -0.9919

  Exact polarizability:  90.582   2.516  78.714  -1.879  -0.278  63.291
 Approx polarizability: 111.964  -2.344 127.186  -3.498   0.979  97.772

                      1                      2                      3
                      A                      A                      A
 Frequencies --     69.9433                97.7452               112.6656
 Red. masses --      3.1976                 2.2222                 3.7909
 Frc consts  --      0.0092                 0.0125                 0.0284
 IR Inten    --      1.3372                 6.1600                 3.4560

                      4                      5                      6
                      A                      A                      A
 Frequencies --    136.9370               226.8988               258.0968
 Red. masses --      3.4312                 1.5051                 2.2518
 Frc consts  --      0.0379                 0.0457                 0.0884
 IR Inten    --      2.5240                 2.3146                 1.8388

                      7                      8                      9
                      A                      A                      A
 Frequencies --    305.0471               336.9241               485.2499
 Red. masses --      3.4797                 3.2179                 3.4661
 Frc consts  --      0.1908                 0.2152                 0.4809
 IR Inten    --      0.1517                 0.6117                 0.7752

                     10                     11                     12
                      A                      A                      A
 Frequencies --    532.6973               615.6314               696.0828
 Red. masses --      3.3168                 4.7280                 2.7378
 Frc consts  --      0.5545                 1.0558                 0.7816
 IR Inten    --      6.2501                 2.7205                 6.6974

                     13                     14                     15
                      A                      A                      A
 Frequencies --    769.7681               826.2762               888.7770
 Red. masses --      2.5201                 2.3059                 2.5485
 Frc consts  --      0.8798                 0.9276                 1.1861
 IR Inten    --     12.2404                 9.3146                 2.1218

                     16                     17                     18
                      A                      A                      A
 Frequencies --    902.2632               932.9860               944.2404
 Red. masses --      1.6939                 2.3449                 1.8645
 Frc consts  --      0.8125                 1.2026                 0.9795
 IR Inten    --      9.3018                18.1174                24.7458

                     19                     20                     21
                      A                      A                      A
 Frequencies --    992.8315              1004.6911              1044.6112
 Red. masses --      2.3712                 1.7296                 1.2084
 Frc consts  --      1.3771                 1.0287                 0.7769
 IR Inten    --     12.6769                15.2429                 4.7370

                     22                     23                     24
                      A                      A                      A
 Frequencies --   1081.3064              1101.6600              1117.0899
 Red. masses --      1.4005                 1.7076                 1.7074
 Frc consts  --      0.9648                 1.2211                 1.2553
 IR Inten    --      7.5783                12.5476                20.0790

                     25                     26                     27
                      A                      A                      A
 Frequencies --   1131.6127              1158.0619              1184.0984
 Red. masses --      2.6826                 3.1052                 1.3781
 Frc consts  --      2.0240                 2.4536                 1.1384
 IR Inten    --     28.8334               144.2007                 5.3814

                     28                     29                     30
                      A                      A                      A
 Frequencies --   1189.6416              1201.6732              1231.2480
 Red. masses --      2.0459                 1.7142                 1.6475
 Frc consts  --      1.7060                 1.4584                 1.4716
 IR Inten    --      2.4007                 4.1313                33.7244

                     31                     32                     33
                      A                      A                      A
 Frequencies --   1251.1299              1283.8820              1316.6801
 Red. masses --      1.2571                 1.6674                 2.2633
 Frc consts  --      1.1594                 1.6193                 2.3118
 IR Inten    --      8.5557                12.4611                 1.1197

                     34                     35                     36
                      A                      A                      A
 Frequencies --   1350.7109              1418.2461              1480.3380
 Red. masses --      1.6215                 1.3725                 1.1581
 Frc consts  --      1.7430                 1.6265                 1.4953
 IR Inten    --      1.5600                42.7479                 0.5386

                     37                     38                     39
                      A                      A                      A
 Frequencies --   1485.7506              1496.1132              1502.7102
 Red. masses --      1.0489                 1.1793                 1.0630
 Frc consts  --      1.3642                 1.5553                 1.4143
 IR Inten    --      5.0608                 1.5255                 9.0403

                     40                     41                     42
                      A                      A                      A
 Frequencies --   1524.3017              1870.9435              2952.3532
 Red. masses --      1.0887                12.4460                 1.0591
 Frc consts  --      1.4904                25.6686                 5.4392
 IR Inten    --      1.5975               316.4805                28.1224

                     43                     44                     45
                      A                      A                      A
 Frequencies --   2972.4578              2997.8821              3016.2250
 Red. masses --      1.0401                 1.0960                 1.1032
 Frc consts  --      5.4142                 5.8034                 5.9134
 IR Inten    --     71.3610                45.7041                50.6828

                     46                     47                     48
                      A                      A                      A
 Frequencies --   3059.2775              3115.4084              3117.6601
 Red. masses --      1.0847                 1.0960                 1.0561
 Frc consts  --      5.9814                 6.2676                 6.0478
 IR Inten    --     23.7865                28.4196                18.5299

                     49                     50                     51
                      A                      A                      A
 Frequencies --   3196.1850              3205.1073              3220.1384
 Red. masses --      1.0957                 1.1096                 1.0969
 Frc consts  --      6.5947                 6.7158                 6.7015
 IR Inten    --      5.1941                 5.2407                 4.8941

 - Thermochemistry -
 -------------------
 Temperature   298.150 Kelvin.  Pressure   1.00000 Atm.
 Atom     1 has atomic number  6 and mass  12.00000

 Molecular mass:   126.06808 amu.
 Principal axes and moments of inertia in atomic units:
                           1         2         3
     Eigenvalues --   583.416951755.258502174.68301
           X            0.99932   0.03642   0.00653
           Y           -0.03641   0.99934  -0.00143
           Z           -0.00658   0.00119   0.99998
 This molecule is an asymmetric top.
 Rotational symmetry number  1.
 Warning -- assumption of classical behavior for rotation
           may cause significant error
 Rotational temperatures (Kelvin)      0.14846     0.04935     0.03983
 Rotational constants (GHZ):           3.09340     1.02819     0.82989
 Zero-point vibrational energy     415165.5 (Joules/Mol)
                                   99.22694 (Kcal/Mol)
 Warning -- explicit consideration of  11 degrees of freedom as
           vibrations may cause significant error
 Vibrational temperatures:    100.63   140.63   162.10   197.02   326.46
          (Kelvin)            371.34   438.89   484.76   698.17   766.43
                              885.76  1001.51  1107.52  1188.83  1278.75
                             1298.15  1342.36  1358.55  1428.46  1445.52
                             1502.96  1555.76  1585.04  1607.24  1628.14
                             1666.19  1703.65  1711.63  1728.94  1771.49
                             1800.09  1847.22  1894.41  1943.37  2040.54
                             2129.87  2137.66  2152.57  2162.06  2193.13
                             2691.87  4247.77  4276.70  4313.28  4339.67
                             4401.61  4482.37  4485.61  4598.59  4611.43
                             4633.06

 Zero-point correction=                           0.158128 (Hartree/Particle)
 Thermal correction to Energy=                    0.167086
 Thermal correction to Enthalpy=                  0.168030
 Thermal correction to Gibbs Free Energy=         0.123662
 Sum of electronic and zero-point Energies=           -423.002499
 Sum of electronic and thermal Energies=              -422.993541
 Sum of electronic and thermal Enthalpies=            -422.992597
 Sum of electronic and thermal Free Energies=         -423.036965

                     E (Thermal)             CV                S
                      KCal/Mol        Cal/Mol-Kelvin    Cal/Mol-Kelvin
 Total                  104.848             32.395             93.381
 Electronic               0.000              0.000              0.000
 Translational            0.889              2.981             40.409
 Rotational               0.889              2.981             29.189
 Vibrational            103.070             26.434             23.783
 Vibration     1          0.598              1.968              4.155
 Vibration     2          0.603              1.951              3.499
 Vibration     3          0.607              1.939              3.222
 Vibration     4          0.614              1.916              2.846
 Vibration     5          0.651              1.800              1.903
 Vibration     6          0.667              1.749              1.675
 Vibration     7          0.696              1.664              1.389
 Vibration     8          0.718              1.602              1.227
 Vibration     9          0.841              1.283              0.696
 Vibration    10          0.888              1.178              0.581
 Vibration    11          0.975              0.999              0.424

 Optimization completed.
    -- Stationary point found.
 Normal termination of Gaussian 09 at Tue Jan 28 14:57:24 2020.
