 Gaussian 09, Revision D.01,
 Gaussian 09:  ES64L-G09RevD.01 24-Apr-2013

 -----------------------------
 # b3lyp 6-31G(2df,p) opt Freq
 -----------------------------

 -----
 titel
 -----
 Symbolic Z-matrix:
 Charge =  0 Multiplicity = 1

 SCF Done:  E(RB3LYP) =  -423.187336658     A.U. after   14 cycles
 Optimization completed.
    -- Stationary point found.
 Normal termination of Gaussian 09 at Tue Jan 28 08:14:14 2020.

 ----------------------------------------------------------------------
 #N Geom=AllCheck Guess=TCheck SCRF=Check GenChk RB3LYP/6-31G(2df,p) Fr
 eq
 ----------------------------------------------------------------------

 Structure from the checkpoint file:  "/scratch/puck/g09_dca14338-b1c7-4a3e-831a-c6f8cd822440/Gau-17740.chk"
 -----
 titel
 -----
 Charge =  0 Multiplicity = 1

                         Standard orientation:
 ---------------------------------------------------------------------
 Center     Atomic      Atomic             Coordinates (Angstroms)
 Number     Number       Type             X           Y           Z
 ---------------------------------------------------------------------
      1          6           0       -1.126920    1.991899   -0.220145
      2          6           0       -0.878710    0.717149    0.599690
      3          6           0       -1.896833   -0.398025    0.234907
      4          8           0       -1.295323   -1.183619   -0.796212
      5          6           0        0.080824   -1.167493   -0.596131
      6          6           0        0.640341   -1.399007    0.759124
      7          6           0        0.459314    0.045077    0.281671
      8          6           0        1.692186    0.788925   -0.046386
      9          8           0        2.771895    0.266407   -0.219980
     10          1           0       -0.422538    2.790223    0.028083
     11          1           0       -1.048613    1.788823   -1.293377
     12          1           0       -2.133464    2.373708   -0.022911
     13          1           0       -0.966126    0.951268    1.666584
     14          1           0       -2.126538   -1.025093    1.106068
     15          1           0       -2.838346   -0.005828   -0.157953
     16          1           0        0.643702   -1.419359   -1.486643
     17          1           0        0.001013   -1.762061    1.555511
     18          1           0        1.676984   -1.713726    0.803230
     19          1           0        1.580138    1.888586   -0.145440
 ---------------------------------------------------------------------

 SCF Done:  E(RB3LYP) =  -423.187336658     A.U. after    1 cycles

 The electronic state is 1-A.
 Alpha  occ. eigenvalues --  -19.15845 -19.12968 -10.26647 -10.25369 -10.23992
 Alpha  occ. eigenvalues --  -10.21012 -10.20658 -10.19719 -10.18871  -1.06216
 Alpha  occ. eigenvalues --   -1.03683  -0.86533  -0.79620  -0.70161  -0.67093
 Alpha  occ. eigenvalues --   -0.62695  -0.58308  -0.55478  -0.52256  -0.48766
 Alpha  occ. eigenvalues --   -0.46745  -0.45811  -0.43081  -0.41666  -0.40603
 Alpha  occ. eigenvalues --   -0.40226  -0.39856  -0.38322  -0.36055  -0.34003
 Alpha  occ. eigenvalues --   -0.33288  -0.29168  -0.25259  -0.24218
 Alpha virt. eigenvalues --   -0.02209   0.07751   0.10187   0.10445   0.11291
 Alpha virt. eigenvalues --    0.11803   0.13610   0.15027   0.16319   0.16621
 Alpha virt. eigenvalues --    0.17019   0.18388   0.19522   0.21689   0.21744

 Mulliken charges:
               1
     1  C   -0.409607
     2  C   -0.110432
     3  C   -0.104475
     4  O   -0.249113
     5  C    0.106927
     6  C   -0.374875
     7  C    0.213130
     8  C    0.059224
     9  O   -0.284231
    10  H    0.124986
    11  H    0.132858
    12  H    0.119361
    13  H    0.086540
    14  H    0.104058
    15  H    0.115827
    16  H    0.126143
    17  H    0.122127
    18  H    0.148617
    19  H    0.072936
 Sum of Mulliken charges =   0.00000

 Dipole moment (field-independent basis, Debye):
    X=             -2.4966    Y=              0.9927    Z=              1.2880  Tot=              2.9795
 Quadrupole moment (field-independent basis, Debye-Ang):
   XX=            -61.5774   YY=            -52.1343   ZZ=            -52.4757
   XY=             -2.3565   XZ=             -1.4388   YZ=             -1.1972

  Exact polarizability:  87.439  -1.014  78.966  -2.186  -2.364  61.350
 Approx polarizability: 130.173   0.834 113.936  -1.520   0.917  98.001

                      1                      2                      3
                      A                      A                      A
 Frequencies --    102.9299               119.6757               193.8242
 Red. masses --      3.9420                 2.4829                 2.7179
 Frc consts  --      0.0246                 0.0210                 0.0602
 IR Inten    --      4.5403                 5.4923                 0.4486

                      4                      5                      6
                      A                      A                      A
 Frequencies --    226.1759               255.1271               295.7072
 Red. masses --      1.8127                 2.3234                 2.1800
 Frc consts  --      0.0546                 0.0891                 0.1123
 IR Inten    --      1.2686                 8.8068                 5.4223

                      7                      8                      9
                      A                      A                      A
 Frequencies --    370.5776               415.8122               463.7741
 Red. masses --      2.1809                 3.0346                 2.7065
 Frc consts  --      0.1765                 0.3091                 0.3430
 IR Inten    --      1.1628                 3.5216                 1.9319

                     10                     11                     12
                      A                      A                      A
 Frequencies --    499.5931               673.2488               717.1272
 Red. masses --      3.2930                 5.0490                 3.1687
 Frc consts  --      0.4843                 1.3484                 0.9601
 IR Inten    --      2.7522                 0.1609                17.0630

                     13                     14                     15
                      A                      A                      A
 Frequencies --    732.3697               790.3672               850.9088
 Red. masses --      3.1010                 3.5940                 2.8369
 Frc consts  --      0.9800                 1.3228                 1.2102
 IR Inten    --      9.5626                37.1298                 0.5329

                     16                     17                     18
                      A                      A                      A
 Frequencies --    876.5495               930.6241               948.9320
 Red. masses --      2.4597                 1.5503                 1.5248
 Frc consts  --      1.1135                 0.7910                 0.8089
 IR Inten    --     53.8849                16.0848                11.1469

                     19                     20                     21
                      A                      A                      A
 Frequencies --    976.6486              1000.3396              1048.2638
 Red. masses --      2.0164                 2.1644                 1.3341
 Frc consts  --      1.1332                 1.2761                 0.8637
 IR Inten    --     51.3796                15.9801                 5.3511

                     22                     23                     24
                      A                      A                      A
 Frequencies --   1054.7055              1072.9404              1092.5906
 Red. masses --      1.5487                 2.0005                 1.7843
 Frc consts  --      1.0150                 1.3569                 1.2550
 IR Inten    --      5.6065                14.4416                 3.7689

                     25                     26                     27
                      A                      A                      A
 Frequencies --   1095.0743              1153.6438              1183.6324
 Red. masses --      1.9301                 2.0580                 2.9477
 Frc consts  --      1.3637                 1.6138                 2.4331
 IR Inten    --     13.1491                 5.7921                70.8744

                     28                     29                     30
                      A                      A                      A
 Frequencies --   1241.3434              1247.7484              1271.3826
 Red. masses --      1.2666                 1.7370                 1.7120
 Frc consts  --      1.1500                 1.5933                 1.6304
 IR Inten    --     12.4729                 3.7424                29.8744

                     31                     32                     33
                      A                      A                      A
 Frequencies --   1298.1181              1348.4872              1367.0083
 Red. masses --      2.2332                 1.3496                 1.5922
 Frc consts  --      2.2172                 1.4460                 1.7530
 IR Inten    --      5.8221                24.9197                12.0174

                     34                     35                     36
                      A                      A                      A
 Frequencies --   1397.1487              1416.6157              1441.0534
 Red. masses --      1.3595                 1.3158                 1.3088
 Frc consts  --      1.5636                 1.5558                 1.6013
 IR Inten    --     19.0806                10.0563                10.0053

                     37                     38                     39
                      A                      A                      A
 Frequencies --   1459.4935              1497.8312              1505.0140
 Red. masses --      1.3272                 1.0547                 1.0475
 Frc consts  --      1.6657                 1.3941                 1.3980
 IR Inten    --     36.9941                 1.9572                 5.2723

                     40                     41                     42
                      A                      A                      A
 Frequencies --   1526.1301              1786.4037              2910.9273
 Red. masses --      1.0865                 9.9065                 1.0820
 Frc consts  --      1.4910                18.6265                 5.4018
 IR Inten    --      1.5813               189.1868               103.0777

                     43                     44                     45
                      A                      A                      A
 Frequencies --   3013.8182              3038.6787              3044.7077
 Red. masses --      1.0695                 1.0359                 1.0832
 Frc consts  --      5.7238                 5.6356                 5.9164
 IR Inten    --     39.2038                16.9843                33.7348

                     46                     47                     48
                      A                      A                      A
 Frequencies --   3095.1440              3107.1824              3115.3292
 Red. masses --      1.0972                 1.1012                 1.1013
 Frc consts  --      6.1929                 6.2639                 6.2972
 IR Inten    --     21.7077                31.2564                23.8086

                     49                     50                     51
                      A                      A                      A
 Frequencies --   3140.4778              3197.0361              3235.8773
 Red. masses --      1.0535                 1.0925                 1.1172
 Frc consts  --      6.1215                 6.5791                 6.8925
 IR Inten    --      7.4286                 5.7728                 0.9335

 - Thermochemistry -
 -------------------
 Temperature   298.150 Kelvin.  Pressure   1.00000 Atm.
 Atom     1 has atomic number  6 and mass  12.00000

 Molecular mass:   126.06808 amu.
 Principal axes and moments of inertia in atomic units:
                           1         2         3
     Eigenvalues --   700.189101158.236791576.09962
           X            0.99811  -0.06100  -0.00723
           Y            0.06072   0.99758  -0.03376
           Z            0.00927   0.03326   0.99940
 This molecule is an asymmetric top.
 Rotational symmetry number  1.
 Warning -- assumption of classical behavior for rotation
           may cause significant error
 Rotational temperatures (Kelvin)      0.12370     0.07478     0.05495
 Rotational constants (GHZ):           2.57751     1.55818     1.14507
 Zero-point vibrational energy     417760.6 (Joules/Mol)
                                   99.84718 (Kcal/Mol)
 Warning -- explicit consideration of  10 degrees of freedom as
           vibrations may cause significant error
 Vibrational temperatures:    148.09   172.19   278.87   325.42   367.07
          (Kelvin)            425.46   533.18   598.26   667.27   718.80
                              968.65  1031.78  1053.72  1137.16  1224.27
                             1261.16  1338.96  1365.30  1405.18  1439.26
                             1508.22  1517.48  1543.72  1571.99  1575.57
                             1659.83  1702.98  1786.01  1795.23  1829.23
                             1867.70  1940.17  1966.82  2010.18  2038.19
                             2073.35  2099.88  2155.04  2165.38  2195.76
                             2570.23  4188.17  4336.21  4371.98  4380.65
                             4453.22  4470.54  4482.26  4518.44  4599.82
                             4655.70

 Zero-point correction=                           0.159117 (Hartree/Particle)
 Thermal correction to Energy=                    0.167476
 Thermal correction to Enthalpy=                  0.168421
 Thermal correction to Gibbs Free Energy=         0.126244
 Sum of electronic and zero-point Energies=           -423.028220
 Sum of electronic and thermal Energies=              -423.019860
 Sum of electronic and thermal Enthalpies=            -423.018916
 Sum of electronic and thermal Free Energies=         -423.061092

                     E (Thermal)             CV                S
                      KCal/Mol        Cal/Mol-Kelvin    Cal/Mol-Kelvin
 Total                  105.093             31.887             88.768
 Electronic               0.000              0.000              0.000
 Translational            0.889              2.981             40.409
 Rotational               0.889              2.981             28.637
 Vibrational            103.316             25.926             19.722
 Vibration     1          0.605              1.947              3.398
 Vibration     2          0.609              1.933              3.106
 Vibration     3          0.635              1.848              2.191
 Vibration     4          0.650              1.801              1.909
 Vibration     5          0.665              1.754              1.695
 Vibration     6          0.690              1.682              1.441
 Vibration     7          0.743              1.533              1.077
 Vibration     8          0.779              1.436              0.906
 Vibration     9          0.821              1.330              0.755
 Vibration    10          0.855              1.251              0.659

 Optimization completed.
    -- Stationary point found.
 Normal termination of Gaussian 09 at Tue Jan 28 09:00:10 2020.
