 Gaussian 09, Revision D.01,
 Gaussian 09:  ES64L-G09RevD.01 24-Apr-2013

 -----------------------------
 # b3lyp 6-31G(2df,p) opt Freq
 -----------------------------

 -----
 titel
 -----
 Symbolic Z-matrix:
 Charge =  0 Multiplicity = 1

 SCF Done:  E(RB3LYP) =  -423.170780167     A.U. after   14 cycles
 Optimization completed.
    -- Stationary point found.
 Normal termination of Gaussian 09 at Tue Jan 28 00:01:29 2020.

 ----------------------------------------------------------------------
 #N Geom=AllCheck Guess=TCheck SCRF=Check GenChk RB3LYP/6-31G(2df,p) Fr
 eq
 ----------------------------------------------------------------------

 Structure from the checkpoint file:  "/scratch/puck/g09_2c5fe9f4-df94-4e74-9954-8d14108078a3/Gau-131053.chk"
 -----
 titel
 -----
 Charge =  0 Multiplicity = 1

                         Standard orientation:
 ---------------------------------------------------------------------
 Center     Atomic      Atomic             Coordinates (Angstroms)
 Number     Number       Type             X           Y           Z
 ---------------------------------------------------------------------
      1          6           0       -2.769826   -0.465569    0.025486
      2          6           0       -1.299455   -0.846313    0.045485
      3          6           0       -0.274296   -0.166047    1.024162
      4          6           0       -0.456598    1.305070    0.645486
      5          8           0       -0.468160    1.192242   -0.798264
      6          6           0       -0.321708   -0.227361   -0.987593
      7          6           0        0.832519   -0.609770   -0.013600
      8          6           0        2.147204    0.107751   -0.110528
      9          8           0        3.211250   -0.420440    0.107426
     10          1           0       -3.303224   -1.051225   -0.730487
     11          1           0       -3.244360   -0.667220    0.992047
     12          1           0       -2.912053    0.590063   -0.217247
     13          1           0       -1.175575   -1.931269    0.088499
     14          1           0       -0.202437   -0.422075    2.080280
     15          1           0       -1.401397    1.729399    1.000875
     16          1           0        0.361706    1.957198    0.966992
     17          1           0       -0.317495   -0.454256   -2.052603
     18          1           0        1.011694   -1.684078    0.044584
     19          1           0        2.091377    1.172487   -0.419636
 ---------------------------------------------------------------------

 SCF Done:  E(RB3LYP) =  -423.170780167     A.U. after    1 cycles

 The electronic state is 1-A.
 Alpha  occ. eigenvalues --  -19.14883 -19.13596 -10.26595 -10.24907 -10.23697
 Alpha  occ. eigenvalues --  -10.21566 -10.20424 -10.20196 -10.18329  -1.05336
 Alpha  occ. eigenvalues --   -1.04064  -0.85311  -0.74984  -0.73731  -0.67383
 Alpha  occ. eigenvalues --   -0.58827  -0.57441  -0.56532  -0.53377  -0.49777
 Alpha  occ. eigenvalues --   -0.46733  -0.43803  -0.42868  -0.41622  -0.40634
 Alpha  occ. eigenvalues --   -0.39636  -0.38444  -0.35881  -0.35441  -0.34963
 Alpha  occ. eigenvalues --   -0.33234  -0.31398  -0.26098  -0.24024
 Alpha virt. eigenvalues --   -0.02920   0.07804   0.10601   0.11117   0.11909
 Alpha virt. eigenvalues --    0.12871   0.13926   0.14461   0.15766   0.16237
 Alpha virt. eigenvalues --    0.16864   0.18559   0.18828   0.19371   0.21072

 Mulliken charges:
               1
     1  C   -0.444630
     2  C    0.034281
     3  C   -0.103774
     4  C   -0.099228
     5  O   -0.275486
     6  C    0.066562
     7  C   -0.089479
     8  C    0.126521
     9  O   -0.260487
    10  H    0.121921
    11  H    0.119488
    12  H    0.137573
    13  H    0.084319
    14  H    0.084074
    15  H    0.109043
    16  H    0.109668
    17  H    0.088405
    18  H    0.097657
    19  H    0.093573
 Sum of Mulliken charges =   0.00000

 Dipole moment (field-independent basis, Debye):
    X=             -2.9192    Y=             -0.4240    Z=              0.7493  Tot=              3.0435
 Quadrupole moment (field-independent basis, Debye-Ang):
   XX=            -64.1559   YY=            -52.9838   ZZ=            -51.5492
   XY=              3.5832   XZ=             -1.6734   YZ=              2.8996

  Exact polarizability:  92.507  -0.018  70.791  -0.115   1.946  64.572
 Approx polarizability: 125.339  -5.510 109.572   1.569   0.132 101.867

                      1                      2                      3
                      A                      A                      A
 Frequencies --     69.6559               153.6100               172.3529
 Red. masses --      4.4183                 3.7263                 1.1704
 Frc consts  --      0.0126                 0.0518                 0.0205
 IR Inten    --      7.1080                 2.3488                 0.6476

                      4                      5                      6
                      A                      A                      A
 Frequencies --    231.2352               264.9467               321.9227
 Red. masses --      2.2837                 3.4464                 2.2948
 Frc consts  --      0.0719                 0.1425                 0.1401
 IR Inten    --      1.9673                 4.9907                 1.9581

                      7                      8                      9
                      A                      A                      A
 Frequencies --    407.4363               435.1032               512.8321
 Red. masses --      6.1157                 2.3357                 3.9586
 Frc consts  --      0.5982                 0.2605                 0.6134
 IR Inten    --      1.4984                10.2407                12.0428

                     10                     11                     12
                      A                      A                      A
 Frequencies --    631.8194               700.5983               752.6861
 Red. masses --      3.0330                 4.6225                 2.4819
 Frc consts  --      0.7134                 1.3368                 0.8284
 IR Inten    --      1.5048                 0.2388                 0.1760

                     13                     14                     15
                      A                      A                      A
 Frequencies --    788.8651               855.0148               880.2882
 Red. masses --      2.8556                 2.4358                 3.6605
 Frc consts  --      1.0470                 1.0492                 1.6712
 IR Inten    --      3.4913                 5.3703                 2.3893

                     16                     17                     18
                      A                      A                      A
 Frequencies --    920.9837               947.4220               971.5089
 Red. masses --      3.7162                 1.8289                 2.6547
 Frc consts  --      1.8572                 0.9672                 1.4763
 IR Inten    --     29.4744                 6.9766                32.4114

                     19                     20                     21
                      A                      A                      A
 Frequencies --    990.3692              1032.5115              1044.1417
 Red. masses --      1.2636                 4.4623                 1.5602
 Frc consts  --      0.7302                 2.8028                 1.0022
 IR Inten    --      4.7696                14.5260                 5.3087

                     22                     23                     24
                      A                      A                      A
 Frequencies --   1069.7560              1083.7185              1107.5894
 Red. masses --      2.0020                 1.4661                 2.1181
 Frc consts  --      1.3499                 1.0145                 1.5309
 IR Inten    --     13.4761                10.2039                22.8434

                     25                     26                     27
                      A                      A                      A
 Frequencies --   1124.5104              1166.0995              1183.5306
 Red. masses --      1.5895                 1.9240                 1.8160
 Frc consts  --      1.1843                 1.5414                 1.4987
 IR Inten    --      1.9219                30.4345                15.5647

                     28                     29                     30
                      A                      A                      A
 Frequencies --   1196.8649              1199.3452              1237.3743
 Red. masses --      1.2497                 1.7743                 1.4528
 Frc consts  --      1.0547                 1.5037                 1.3105
 IR Inten    --      2.1053                 4.7724                 2.5331

                     31                     32                     33
                      A                      A                      A
 Frequencies --   1283.7707              1293.8973              1323.1971
 Red. masses --      1.2861                 1.6562                 1.5377
 Frc consts  --      1.2488                 1.6337                 1.5862
 IR Inten    --      2.4971                 4.8793                 0.4126

                     34                     35                     36
                      A                      A                      A
 Frequencies --   1367.7348              1398.4097              1413.4549
 Red. masses --      1.3781                 1.3334                 1.3277
 Frc consts  --      1.5189                 1.5363                 1.5629
 IR Inten    --      1.4458                 1.2139                 6.3259

                     37                     38                     39
                      A                      A                      A
 Frequencies --   1438.4457              1491.1120              1502.8913
 Red. masses --      1.2914                 1.0465                 1.0533
 Frc consts  --      1.5744                 1.3709                 1.4017
 IR Inten    --      5.5996                 3.3977                 4.2660

                     40                     41                     42
                      A                      A                      A
 Frequencies --   1538.9537              1814.5952              2913.9181
 Red. masses --      1.0861                 9.8469                 1.0828
 Frc consts  --      1.5156                19.1033                 5.4171
 IR Inten    --      2.2683               199.6595                63.0341

                     43                     44                     45
                      A                      A                      A
 Frequencies --   3037.1376              3041.5892              3077.1988
 Red. masses --      1.0397                 1.0545                 1.0853
 Frc consts  --      5.6507                 5.7477                 6.0551
 IR Inten    --     23.5682                52.1103                 8.8010

                     46                     47                     48
                      A                      A                      A
 Frequencies --   3078.1499              3096.8168              3112.3452
 Red. masses --      1.1101                 1.1004                 1.0861
 Frc consts  --      6.1971                 6.2179                 6.1986
 IR Inten    --     32.2272                18.2198                 8.5002

                     49                     50                     51
                      A                      A                      A
 Frequencies --   3126.5939              3132.4159              3139.9611
 Red. masses --      1.0985                 1.0892                 1.0926
 Frc consts  --      6.3267                 6.2967                 6.3470
 IR Inten    --     19.3755                43.6989                18.8174

 - Thermochemistry -
 -------------------
 Temperature   298.150 Kelvin.  Pressure   1.00000 Atm.
 Atom     1 has atomic number  6 and mass  12.00000

 Molecular mass:   126.06808 amu.
 Principal axes and moments of inertia in atomic units:
                           1         2         3
     Eigenvalues --   471.251391569.891511670.84079
           X            0.99982   0.01831  -0.00439
           Y           -0.01777   0.99471   0.10118
           Z            0.00622  -0.10108   0.99486
 This molecule is an asymmetric top.
 Rotational symmetry number  1.
 Warning -- assumption of classical behavior for rotation
           may cause significant error
 Rotational temperatures (Kelvin)      0.18380     0.05517     0.05184
 Rotational constants (GHZ):           3.82968     1.14960     1.08014
 Zero-point vibrational energy     419151.6 (Joules/Mol)
                                  100.17964 (Kcal/Mol)
 Warning -- explicit consideration of   9 degrees of freedom as
           vibrations may cause significant error
 Vibrational temperatures:    100.22   221.01   247.98   332.70   381.20
          (Kelvin)            463.17   586.21   626.02   737.85   909.05
                             1008.00  1082.95  1135.00  1230.17  1266.54
                             1325.09  1363.13  1397.78  1424.92  1485.55
                             1502.29  1539.14  1559.23  1593.57  1617.92
                             1677.75  1702.83  1722.02  1725.59  1780.30
                             1847.06  1861.63  1903.78  1967.86  2012.00
                             2033.64  2069.60  2145.37  2162.32  2214.21
                             2610.79  4192.47  4369.76  4376.16  4427.40
                             4428.77  4455.62  4477.96  4498.47  4506.84
                             4517.70

 Zero-point correction=                           0.159646 (Hartree/Particle)
 Thermal correction to Energy=                    0.167738
 Thermal correction to Enthalpy=                  0.168682
 Thermal correction to Gibbs Free Energy=         0.126792
 Sum of electronic and zero-point Energies=           -423.011134
 Sum of electronic and thermal Energies=              -423.003042
 Sum of electronic and thermal Enthalpies=            -423.002098
 Sum of electronic and thermal Free Energies=         -423.043988

                     E (Thermal)             CV                S
                      KCal/Mol        Cal/Mol-Kelvin    Cal/Mol-Kelvin
 Total                  105.257             30.882             88.164
 Electronic               0.000              0.000              0.000
 Translational            0.889              2.981             40.409
 Rotational               0.889              2.981             28.604
 Vibrational            103.480             24.921             19.151
 Vibration     1          0.598              1.969              4.163
 Vibration     2          0.619              1.899              2.627
 Vibration     3          0.626              1.877              2.410
 Vibration     4          0.653              1.793              1.869
 Vibration     5          0.671              1.737              1.629
 Vibration     6          0.707              1.632              1.300
 Vibration     7          0.772              1.454              0.936
 Vibration     8          0.796              1.394              0.842
 Vibration     9          0.868              1.222              0.627

 Optimization completed.
    -- Stationary point found.
 Normal termination of Gaussian 09 at Tue Jan 28 00:43:15 2020.
