 Gaussian 09, Revision D.01,
 Gaussian 09:  ES64L-G09RevD.01 24-Apr-2013

 -----------------------------
 # b3lyp 6-31G(2df,p) opt Freq
 -----------------------------

 -----
 titel
 -----
 Symbolic Z-matrix:
 Charge =  0 Multiplicity = 1

 SCF Done:  E(RB3LYP) =  -423.203032429     A.U. after   14 cycles
 Optimization completed.
    -- Stationary point found.
 Normal termination of Gaussian 09 at Mon Jan 27 16:37:28 2020.

 ----------------------------------------------------------------------
 #N Geom=AllCheck Guess=TCheck SCRF=Check GenChk RB3LYP/6-31G(2df,p) Fr
 eq
 ----------------------------------------------------------------------

 Structure from the checkpoint file:  "/scratch/puck/g09_b1cfe820-d9ee-4fb8-a199-5155c1d75a67/Gau-77455.chk"
 -----
 titel
 -----
 Charge =  0 Multiplicity = 1

                         Standard orientation:
 ---------------------------------------------------------------------
 Center     Atomic      Atomic             Coordinates (Angstroms)
 Number     Number       Type             X           Y           Z
 ---------------------------------------------------------------------
      1          6           0        0.141395   -0.083609    1.691476
      2          6           0       -0.174190    0.060405    0.195706
      3          6           0        0.948153   -0.520568   -0.687652
      4          6           0        2.244003    0.242786   -0.524616
      5          8           0        3.235002   -0.190884    0.004960
      6          6           0       -0.745576    1.471736   -0.192731
      7          6           0       -2.189810    0.891691   -0.269515
      8          6           0       -1.575863   -0.509421   -0.135278
      9          8           0       -1.982684   -1.621728   -0.301499
     10          1           0        1.056029    0.457568    1.953449
     11          1           0       -0.672100    0.311499    2.308293
     12          1           0        0.283998   -1.136306    1.953204
     13          1           0        1.118342   -1.569772   -0.431466
     14          1           0        0.644218   -0.463616   -1.741439
     15          1           0        2.222635    1.283587   -0.923992
     16          1           0       -0.587527    2.256343    0.548765
     17          1           0       -0.386631    1.827885   -1.161003
     18          1           0       -2.822703    1.149943    0.585306
     19          1           0       -2.763487    1.065647   -1.183142
 ---------------------------------------------------------------------

 SCF Done:  E(RB3LYP) =  -423.203032429     A.U. after    1 cycles

 The electronic state is 1-A.
 Alpha  occ. eigenvalues --  -19.14636 -19.14530 -10.27749 -10.27498 -10.21833
 Alpha  occ. eigenvalues --  -10.20424 -10.20305 -10.20295 -10.19414  -1.05504
 Alpha  occ. eigenvalues --   -1.05168  -0.86833  -0.77668  -0.72331  -0.64890
 Alpha  occ. eigenvalues --   -0.63556  -0.57931  -0.51130  -0.49809  -0.47723
 Alpha  occ. eigenvalues --   -0.47239  -0.46361  -0.42939  -0.42587  -0.41099
 Alpha  occ. eigenvalues --   -0.40827  -0.39260  -0.38598  -0.36773  -0.35700
 Alpha  occ. eigenvalues --   -0.34153  -0.32917  -0.26338  -0.24168
 Alpha virt. eigenvalues --   -0.03649  -0.01966   0.07117   0.09816   0.11064
 Alpha virt. eigenvalues --    0.12123   0.12483   0.13562   0.15313   0.16363
 Alpha virt. eigenvalues --    0.16747   0.17134   0.18204   0.19640   0.21283

 Mulliken charges:
               1
     1  C   -0.442681
     2  C    0.174650
     3  C   -0.320582
     4  C    0.153350
     5  O   -0.237100
     6  C   -0.283621
     7  C   -0.343921
     8  C    0.379576
     9  O   -0.300302
    10  H    0.136833
    11  H    0.119533
    12  H    0.141215
    13  H    0.136222
    14  H    0.113227
    15  H    0.075590
    16  H    0.113294
    17  H    0.111011
    18  H    0.138790
    19  H    0.134916
 Sum of Mulliken charges =   0.00000

 Dipole moment (field-independent basis, Debye):
    X=             -1.4748    Y=              2.8618    Z=             -0.3252  Tot=              3.2359
 Quadrupole moment (field-independent basis, Debye-Ang):
   XX=            -65.7513   YY=            -56.2299   ZZ=            -50.0094
   XY=             -3.9494   XZ=             -2.7795   YZ=             -0.9097

  Exact polarizability:  89.990  -1.629  74.678   3.597  -1.927  66.075
 Approx polarizability: 124.619  -0.175 118.169   8.361  -2.295  98.737

                      1                      2                      3
                      A                      A                      A
 Frequencies --     30.0315                61.0484                71.1755
 Red. masses --      4.0048                 2.6781                 4.1062
 Frc consts  --      0.0021                 0.0059                 0.0123
 IR Inten    --      6.3447                 4.1116                 3.0902

                      4                      5                      6
                      A                      A                      A
 Frequencies --    140.9979               212.9115               232.0868
 Red. masses --      3.7350                 1.8447                 1.3997
 Frc consts  --      0.0437                 0.0493                 0.0444
 IR Inten    --      0.8955                 1.4344                 0.9888

                      7                      8                      9
                      A                      A                      A
 Frequencies --    275.9450               334.0295               347.4632
 Red. masses --      3.0425                 2.5879                 2.2769
 Frc consts  --      0.1365                 0.1701                 0.1620
 IR Inten    --      1.6456                 2.7316                 0.8346

                     10                     11                     12
                      A                      A                      A
 Frequencies --    475.6388               508.0636               543.8392
 Red. masses --      2.3704                 2.0105                 3.4007
 Frc consts  --      0.3160                 0.3058                 0.5926
 IR Inten    --      9.8128                 6.4048                 1.5901

                     13                     14                     15
                      A                      A                      A
 Frequencies --    653.1100               716.7259               747.4311
 Red. masses --      3.6254                 3.2346                 1.4087
 Frc consts  --      0.9111                 0.9790                 0.4637
 IR Inten    --      0.9011                 1.2917                 2.1129

                     16                     17                     18
                      A                      A                      A
 Frequencies --    844.9044               871.1668               919.9686
 Red. masses --      1.8854                 2.5580                 2.4809
 Frc consts  --      0.7930                 1.1438                 1.2371
 IR Inten    --      0.4934                14.6302                 0.1106

                     19                     20                     21
                      A                      A                      A
 Frequencies --    938.1578               965.3767              1001.7350
 Red. masses --      2.6011                 1.5725                 2.0303
 Frc consts  --      1.3488                 0.8634                 1.2003
 IR Inten    --      6.2018                 2.0749                 2.4731

                     22                     23                     24
                      A                      A                      A
 Frequencies --   1014.9472              1058.5901              1088.9694
 Red. masses --      1.5766                 3.6048                 1.7129
 Frc consts  --      0.9569                 2.3801                 1.1968
 IR Inten    --      4.3355                91.0729                 3.8355

                     25                     26                     27
                      A                      A                      A
 Frequencies --   1139.2394              1168.5988              1205.3322
 Red. masses --      2.1533                 1.7964                 1.6281
 Frc consts  --      1.6466                 1.4454                 1.3936
 IR Inten    --     18.3760                16.7277                 2.0127

                     28                     29                     30
                      A                      A                      A
 Frequencies --   1218.2038              1233.8386              1267.8444
 Red. masses --      1.5887                 1.5644                 1.5585
 Frc consts  --      1.3891                 1.4032                 1.4760
 IR Inten    --      1.6359                11.4854                 3.6083

                     31                     32                     33
                      A                      A                      A
 Frequencies --   1285.7350              1312.1054              1412.1638
 Red. masses --      1.7070                 1.6917                 1.2021
 Frc consts  --      1.6626                 1.7160                 1.4124
 IR Inten    --      2.1991                 1.7525                 3.6452

                     34                     35                     36
                      A                      A                      A
 Frequencies --   1433.0624              1438.4231              1463.6777
 Red. masses --      1.1894                 1.0933                 1.0938
 Frc consts  --      1.4391                 1.3328                 1.3806
 IR Inten    --      4.6351                 7.9360                 5.0972

                     37                     38                     39
                      A                      A                      A
 Frequencies --   1488.2692              1492.5300              1497.6208
 Red. masses --      1.0784                 1.0579                 1.0649
 Frc consts  --      1.4074                 1.3885                 1.4073
 IR Inten    --      3.5064                 3.6273                 3.4207

                     40                     41                     42
                      A                      A                      A
 Frequencies --   1829.2819              1888.3257              2859.1400
 Red. masses --      9.9455                12.7655                 1.0815
 Frc consts  --     19.6081                26.8190                 5.2091
 IR Inten    --    181.5907               241.4536                97.8705

                     43                     44                     45
                      A                      A                      A
 Frequencies --   3023.6244              3035.1888              3061.4338
 Red. masses --      1.0638                 1.0347                 1.0598
 Frc consts  --      5.7303                 5.6161                 5.8525
 IR Inten    --     12.7799                13.0651                 9.6791

                     46                     47                     48
                      A                      A                      A
 Frequencies --   3073.7997              3104.7821              3106.0319
 Red. masses --      1.0607                 1.1012                 1.0989
 Frc consts  --      5.9048                 6.2545                 6.2460
 IR Inten    --     18.5972                13.5354                 8.9120

                     49                     50                     51
                      A                      A                      A
 Frequencies --   3112.5606              3114.1762              3131.5546
 Red. masses --      1.1043                 1.1016                 1.1070
 Frc consts  --      6.3031                 6.2945                 6.3963
 IR Inten    --      0.6970                17.1219                21.0956

 - Thermochemistry -
 -------------------
 Temperature   298.150 Kelvin.  Pressure   1.00000 Atm.
 Atom     1 has atomic number  6 and mass  12.00000

 Molecular mass:   126.06808 amu.
 Principal axes and moments of inertia in atomic units:
                           1         2         3
     Eigenvalues --   604.434631742.771991867.01617
           X            0.99972  -0.02357  -0.00143
           Y            0.02347   0.99857  -0.04797
           Z            0.00256   0.04792   0.99885
 This molecule is an asymmetric top.
 Rotational symmetry number  1.
 Warning -- assumption of classical behavior for rotation
           may cause significant error
 Rotational temperatures (Kelvin)      0.14330     0.04970     0.04639
 Rotational constants (GHZ):           2.98583     1.03556     0.96664
 Zero-point vibrational energy     409427.1 (Joules/Mol)
                                   97.85541 (Kcal/Mol)
 Warning -- explicit consideration of  12 degrees of freedom as
           vibrations may cause significant error
 Vibrational temperatures:     43.21    87.83   102.41   202.86   306.33
          (Kelvin)            333.92   397.02   480.59   499.92   684.34
                              730.99   782.46   939.68  1031.21  1075.39
                             1215.63  1253.41  1323.63  1349.80  1388.96
                             1441.27  1460.28  1523.07  1566.78  1639.11
                             1681.35  1734.20  1752.72  1775.22  1824.14
                             1849.88  1887.82  2031.79  2061.85  2069.57
                             2105.90  2141.28  2147.42  2154.74  2631.93
                             2716.88  4113.66  4350.32  4366.95  4404.71
                             4422.51  4467.08  4468.88  4478.27  4480.60
                             4505.60

 Zero-point correction=                           0.155943 (Hartree/Particle)
 Thermal correction to Energy=                    0.165708
 Thermal correction to Enthalpy=                  0.166653
 Thermal correction to Gibbs Free Energy=         0.119743
 Sum of electronic and zero-point Energies=           -423.047090
 Sum of electronic and thermal Energies=              -423.037324
 Sum of electronic and thermal Enthalpies=            -423.036380
 Sum of electronic and thermal Free Energies=         -423.083290

                     E (Thermal)             CV                S
                      KCal/Mol        Cal/Mol-Kelvin    Cal/Mol-Kelvin
 Total                  103.984             34.432             98.730
 Electronic               0.000              0.000              0.000
 Translational            0.889              2.981             40.409
 Rotational               0.889              2.981             29.066
 Vibrational            102.206             28.471             29.256
 Vibration     1          0.594              1.984              5.827
 Vibration     2          0.597              1.973              4.423
 Vibration     3          0.598              1.968              4.121
 Vibration     4          0.615              1.912              2.790
 Vibration     5          0.644              1.821              2.019
 Vibration     6          0.653              1.792              1.863
 Vibration     7          0.678              1.718              1.559
 Vibration     8          0.716              1.608              1.241
 Vibration     9          0.725              1.580              1.178
 Vibration    10          0.832              1.304              0.722
 Vibration    11          0.863              1.232              0.638
 Vibration    12          0.899              1.153              0.557

 Optimization completed.
    -- Stationary point found.
 Normal termination of Gaussian 09 at Mon Jan 27 17:26:04 2020.
