 Gaussian 09, Revision D.01,
 Gaussian 09:  ES64L-G09RevD.01 24-Apr-2013

 -----------------------------
 # b3lyp 6-31G(2df,p) opt Freq
 -----------------------------

 -----
 titel
 -----
 Symbolic Z-matrix:
 Charge =  0 Multiplicity = 1

 SCF Done:  E(RB3LYP) =  -423.201968652     A.U. after   14 cycles
 Optimization completed.
    -- Stationary point found.
 Normal termination of Gaussian 09 at Mon Jan 27 22:03:36 2020.

 ----------------------------------------------------------------------
 #N Geom=AllCheck Guess=TCheck SCRF=Check GenChk RB3LYP/6-31G(2df,p) Fr
 eq
 ----------------------------------------------------------------------

 Structure from the checkpoint file:  "/scratch/puck/g09_5473f29b-e660-4392-a653-cdd60248b7e0/Gau-72780.chk"
 -----
 titel
 -----
 Charge =  0 Multiplicity = 1

                         Standard orientation:
 ---------------------------------------------------------------------
 Center     Atomic      Atomic             Coordinates (Angstroms)
 Number     Number       Type             X           Y           Z
 ---------------------------------------------------------------------
      1          6           0       -0.135346    2.352130   -0.860231
      2          6           0       -0.607930    0.946899   -0.558958
      3          6           0       -0.896047    0.460568    0.802415
      4          6           0       -2.095609   -0.388263    1.154389
      5          6           0        0.330379   -0.136610    0.034636
      6          6           0        1.663012    0.238618    0.568146
      7          8           0        2.647101   -0.459934    0.508844
      8          6           0        0.231044   -1.497498   -0.564751
      9          8           0       -0.733551   -1.910820   -1.169426
     10          1           0       -1.000591    2.995108   -1.053700
     11          1           0        0.419982    2.794469   -0.029169
     12          1           0        0.503575    2.377310   -1.748415
     13          1           0       -1.220881    0.492632   -1.335147
     14          1           0       -0.566227    1.123630    1.602301
     15          1           0       -2.953243    0.261524    1.359869
     16          1           0       -2.358939   -1.061754    0.337994
     17          1           0       -1.907106   -0.986247    2.051559
     18          1           0        1.704666    1.233861    1.064665
     19          1           0        1.133343   -2.119551   -0.419174
 ---------------------------------------------------------------------

 SCF Done:  E(RB3LYP) =  -423.201968652     A.U. after    1 cycles

 The electronic state is 1-A.
 Alpha  occ. eigenvalues --  -19.14353 -19.14092 -10.27932 -10.27214 -10.22838
 Alpha  occ. eigenvalues --  -10.22351 -10.21900 -10.19948 -10.18975  -1.05304
 Alpha  occ. eigenvalues --   -1.04599  -0.89663  -0.74941  -0.73762  -0.67216
 Alpha  occ. eigenvalues --   -0.63889  -0.58190  -0.53070  -0.50117  -0.48731
 Alpha  occ. eigenvalues --   -0.45881  -0.44462  -0.43339  -0.43111  -0.42251
 Alpha  occ. eigenvalues --   -0.40851  -0.40311  -0.39110  -0.37750  -0.36780
 Alpha  occ. eigenvalues --   -0.31857  -0.29293  -0.27188  -0.24528
 Alpha virt. eigenvalues --   -0.03230  -0.03029   0.08084   0.09889   0.11098
 Alpha virt. eigenvalues --    0.13118   0.13681   0.14561   0.15564   0.16420
 Alpha virt. eigenvalues --    0.16868   0.17444   0.17654   0.20279   0.21684

 Mulliken charges:
               1
     1  C   -0.426372
     2  C   -0.038024
     3  C   -0.055787
     4  C   -0.429540
     5  C    0.082908
     6  C    0.101100
     7  O   -0.269985
     8  C    0.089692
     9  O   -0.281611
    10  H    0.133366
    11  H    0.124539
    12  H    0.135590
    13  H    0.127577
    14  H    0.099617
    15  H    0.125495
    16  H    0.162976
    17  H    0.125881
    18  H    0.074027
    19  H    0.118553
 Sum of Mulliken charges =   0.00000

 Dipole moment (field-independent basis, Debye):
    X=             -1.6028    Y=              2.9453    Z=              1.1115  Tot=              3.5326
 Quadrupole moment (field-independent basis, Debye-Ang):
   XX=            -60.9076   YY=            -54.2491   ZZ=            -53.0455
   XY=             -0.4868   XZ=             -3.1838   YZ=             -2.6702

  Exact polarizability:  87.450  -3.883  82.631   0.585   1.933  65.984
 Approx polarizability: 135.267 -10.385 119.034   6.367   8.539 101.833

                      1                      2                      3
                      A                      A                      A
 Frequencies --     80.0187               141.7377               180.9403
 Red. masses --      4.8213                 4.3258                 1.8969
 Frc consts  --      0.0182                 0.0512                 0.0366
 IR Inten    --      2.8103                12.1909                 2.3367

                      4                      5                      6
                      A                      A                      A
 Frequencies --    190.2504               204.5210               226.0904
 Red. masses --      1.4276                 1.2635                 3.5835
 Frc consts  --      0.0304                 0.0311                 0.1079
 IR Inten    --      1.0010                 1.6026                 3.3540

                      7                      8                      9
                      A                      A                      A
 Frequencies --    236.5986               247.6233               269.8266
 Red. masses --      1.9139                 3.0508                 2.3438
 Frc consts  --      0.0631                 0.1102                 0.1005
 IR Inten    --      2.1753                 4.5556                 2.4844

                     10                     11                     12
                      A                      A                      A
 Frequencies --    333.4771               438.8440               468.2304
 Red. masses --      2.5815                 3.3494                 3.7287
 Frc consts  --      0.1691                 0.3801                 0.4816
 IR Inten    --      0.4415                 3.6519                 3.7571

                     13                     14                     15
                      A                      A                      A
 Frequencies --    500.5854               653.5311               687.8216
 Red. masses --      3.7209                 5.3564                 4.4776
 Frc consts  --      0.5494                 1.3479                 1.2481
 IR Inten    --      7.0847                 8.9027                33.2217

                     16                     17                     18
                      A                      A                      A
 Frequencies --    754.8210               832.3916               957.6352
 Red. masses --      4.1708                 2.0839                 1.2146
 Frc consts  --      1.4001                 0.8507                 0.6563
 IR Inten    --      5.8722                27.7914                21.3260

                     19                     20                     21
                      A                      A                      A
 Frequencies --    995.5830              1012.2889              1053.1189
 Red. masses --      1.4051                 1.3795                 1.6090
 Frc consts  --      0.8206                 0.8329                 1.0514
 IR Inten    --      3.8260                16.3222                 1.7078

                     22                     23                     24
                      A                      A                      A
 Frequencies --   1061.7555              1084.5640              1098.9912
 Red. masses --      2.0729                 3.3933                 3.0356
 Frc consts  --      1.3768                 2.3517                 2.1602
 IR Inten    --      5.9526                17.9104               120.6346

                     25                     26                     27
                      A                      A                      A
 Frequencies --   1121.2379              1138.3686              1194.4580
 Red. masses --      1.4625                 1.6985                 1.7230
 Frc consts  --      1.0833                 1.2968                 1.4484
 IR Inten    --      3.7452                 9.7200                 0.7671

                     28                     29                     30
                      A                      A                      A
 Frequencies --   1273.1585              1282.5136              1355.0271
 Red. masses --      1.7335                 2.2118                 1.3466
 Frc consts  --      1.6555                 2.1435                 1.4568
 IR Inten    --     12.4967                41.0848                14.8712

                     31                     32                     33
                      A                      A                      A
 Frequencies --   1416.0353              1416.3118              1421.7448
 Red. masses --      1.2368                 1.2238                 1.3424
 Frc consts  --      1.4611                 1.4464                 1.5987
 IR Inten    --      4.7768                 3.0036                 3.3934

                     34                     35                     36
                      A                      A                      A
 Frequencies --   1443.2404              1466.0699              1492.2270
 Red. masses --      1.2050                 1.8027                 1.0439
 Frc consts  --      1.4789                 2.2829                 1.3696
 IR Inten    --      1.2384                 6.2985                 2.3558

                     37                     38                     39
                      A                      A                      A
 Frequencies --   1496.9944              1504.4641              1509.1446
 Red. masses --      1.0549                 1.0521                 1.2780
 Frc consts  --      1.3928                 1.4031                 1.7150
 IR Inten    --     13.3368                 1.4825                 8.0144

                     40                     41                     42
                      A                      A                      A
 Frequencies --   1791.1851              1805.2863              2874.2237
 Red. masses --      9.8514                10.2530                 1.0820
 Frc consts  --     18.6221                19.6875                 5.2667
 IR Inten    --    182.7731               205.4393                85.5614

                     43                     44                     45
                      A                      A                      A
 Frequencies --   2971.0579              3039.6445              3040.7727
 Red. masses --      1.0855                 1.0364                 1.0383
 Frc consts  --      5.6453                 5.6418                 5.6562
 IR Inten    --     50.1959                29.9908                19.9130

                     46                     47                     48
                      A                      A                      A
 Frequencies --   3099.2792              3101.7774              3108.0749
 Red. masses --      1.1007                 1.1007                 1.0865
 Frc consts  --      6.2295                 6.2396                 6.1839
 IR Inten    --     16.0526                14.6146                 9.6841

                     49                     50                     51
                      A                      A                      A
 Frequencies --   3114.8584              3142.5794              3151.7352
 Red. masses --      1.0993                 1.0893                 1.0970
 Frc consts  --      6.2844                 6.3384                 6.4204
 IR Inten    --     12.7668                 3.9826                 6.5779

 - Thermochemistry -
 -------------------
 Temperature   298.150 Kelvin.  Pressure   1.00000 Atm.
 Atom     1 has atomic number  6 and mass  12.00000

 Molecular mass:   126.06808 amu.
 Principal axes and moments of inertia in atomic units:
                           1         2         3
     Eigenvalues --  1031.969611192.567851613.08904
           X            0.99904   0.01695  -0.04044
           Y           -0.01899   0.99854  -0.05064
           Z            0.03953   0.05136   0.99790
 This molecule is an asymmetric top.
 Rotational symmetry number  1.
 Warning -- assumption of classical behavior for rotation
           may cause significant error
 Rotational temperatures (Kelvin)      0.08393     0.07263     0.05369
 Rotational constants (GHZ):           1.74883     1.51332     1.11881
 Zero-point vibrational energy     409617.6 (Joules/Mol)
                                   97.90096 (Kcal/Mol)
 Warning -- explicit consideration of  13 degrees of freedom as
           vibrations may cause significant error
 Vibrational temperatures:    115.13   203.93   260.33   273.73   294.26
          (Kelvin)            325.29   340.41   356.27   388.22   479.80
                              631.40   673.68   720.23   940.28   989.62
                             1086.02  1197.62  1377.82  1432.42  1456.46
                             1515.20  1527.63  1560.44  1581.20  1613.21
                             1637.86  1718.56  1831.79  1845.25  1949.58
                             2037.36  2037.75  2045.57  2076.50  2109.35
                             2146.98  2153.84  2164.59  2171.32  2577.11
                             2597.40  4135.36  4274.68  4373.36  4374.99
                             4459.17  4462.76  4471.82  4481.58  4521.47
                             4534.64

 Zero-point correction=                           0.156015 (Hartree/Particle)
 Thermal correction to Energy=                    0.165890
 Thermal correction to Enthalpy=                  0.166835
 Thermal correction to Gibbs Free Energy=         0.121506
 Sum of electronic and zero-point Energies=           -423.045954
 Sum of electronic and thermal Energies=              -423.036078
 Sum of electronic and thermal Enthalpies=            -423.035134
 Sum of electronic and thermal Free Energies=         -423.080462

                     E (Thermal)             CV                S
                      KCal/Mol        Cal/Mol-Kelvin    Cal/Mol-Kelvin
 Total                  104.098             35.504             95.402
 Electronic               0.000              0.000              0.000
 Translational            0.889              2.981             40.409
 Rotational               0.889              2.981             29.075
 Vibrational            102.320             29.542             25.918
 Vibration     1          0.600              1.963              3.890
 Vibration     2          0.615              1.912              2.780
 Vibration     3          0.630              1.866              2.319
 Vibration     4          0.634              1.853              2.225
 Vibration     5          0.640              1.833              2.092
 Vibration     6          0.650              1.801              1.910
 Vibration     7          0.655              1.785              1.828
 Vibration     8          0.661              1.767              1.747
 Vibration     9          0.674              1.729              1.597
 Vibration    10          0.715              1.609              1.243
 Vibration    11          0.799              1.385              0.830
 Vibration    12          0.825              1.321              0.743
 Vibration    13          0.856              1.249              0.657

 Optimization completed.
    -- Stationary point found.
 Normal termination of Gaussian 09 at Mon Jan 27 22:46:33 2020.
