 Gaussian 09, Revision D.01,
 Gaussian 09:  ES64L-G09RevD.01 24-Apr-2013

 -----------------------------
 # b3lyp 6-31G(2df,p) opt Freq
 -----------------------------

 -----
 titel
 -----
 Symbolic Z-matrix:
 Charge =  0 Multiplicity = 1

 SCF Done:  E(RB3LYP) =  -423.094963372     A.U. after   14 cycles
 Optimization completed.
    -- Stationary point found.
 Normal termination of Gaussian 09 at Tue Jan 28 14:12:05 2020.

 ----------------------------------------------------------------------
 #N Geom=AllCheck Guess=TCheck SCRF=Check GenChk RB3LYP/6-31G(2df,p) Fr
 eq
 ----------------------------------------------------------------------

 Structure from the checkpoint file:  "/scratch/puck/g09_b9ba452d-ba04-4019-b6d0-6dcdecb511dd/Gau-34180.chk"
 -----
 titel
 -----
 Charge =  0 Multiplicity = 1

                         Standard orientation:
 ---------------------------------------------------------------------
 Center     Atomic      Atomic             Coordinates (Angstroms)
 Number     Number       Type             X           Y           Z
 ---------------------------------------------------------------------
      1          8           0        3.533938   -0.352993   -0.083764
      2          6           0        2.210833   -0.302602    0.424067
      3          6           0        1.214017    0.304074   -0.572839
      4          6           0       -0.204523    0.252638   -0.082091
      5          6           0       -0.841795    1.247838    0.854281
      6          6           0       -1.428487    1.050228   -0.521027
      7          6           0       -2.237602   -0.281623   -0.603116
      8          8           0       -2.231529   -0.927871    0.679055
      9          6           0       -1.080643   -1.051231   -0.166865
     10          1           0        3.829031    0.552089   -0.225900
     11          1           0        1.938355   -1.341565    0.639837
     12          1           0        2.162090    0.245579    1.377721
     13          1           0        1.492280    1.348576   -0.771019
     14          1           0        1.311278   -0.230562   -1.526867
     15          1           0       -1.386597    0.916924    1.729362
     16          1           0       -0.285259    2.172378    0.976119
     17          1           0       -1.483530    1.834507   -1.264765
     18          1           0       -3.049957   -0.517006   -1.279480
     19          1           0       -0.737759   -2.049933   -0.411794
 ---------------------------------------------------------------------

 SCF Done:  E(RB3LYP) =  -423.094963372     A.U. after    1 cycles

 The electronic state is 1-A.
 Alpha  occ. eigenvalues --  -19.15436 -19.13463 -10.24004 -10.23838 -10.22689
 Alpha  occ. eigenvalues --  -10.20304 -10.19531 -10.18958 -10.18910  -1.07972
 Alpha  occ. eigenvalues --   -1.01557  -0.87537  -0.75772  -0.69247  -0.65073
 Alpha  occ. eigenvalues --   -0.62581  -0.56957  -0.54343  -0.51273  -0.50313
 Alpha  occ. eigenvalues --   -0.48712  -0.45490  -0.43811  -0.40624  -0.39901
 Alpha  occ. eigenvalues --   -0.39030  -0.37922  -0.35137  -0.33628  -0.32605
 Alpha  occ. eigenvalues --   -0.29528  -0.27371  -0.26185  -0.22854
 Alpha virt. eigenvalues --    0.05936   0.07506   0.09412   0.10756   0.11183
 Alpha virt. eigenvalues --    0.12285   0.13458   0.15075   0.15427   0.16617
 Alpha virt. eigenvalues --    0.17431   0.18379   0.19108   0.21271   0.21690

 Mulliken charges:
               1
     1  O   -0.415950
     2  C   -0.053096
     3  C   -0.338608
     4  C    0.331741
     5  C   -0.331288
     6  C   -0.176674
     7  C    0.024169
     8  O   -0.238702
     9  C   -0.038625
    10  H    0.280680
    11  H    0.113879
    12  H    0.093689
    13  H    0.088897
    14  H    0.106596
    15  H    0.136595
    16  H    0.107865
    17  H    0.093403
    18  H    0.109058
    19  H    0.106372
 Sum of Mulliken charges =   0.00000

 Dipole moment (field-independent basis, Debye):
    X=              0.2075    Y=              1.7331    Z=             -1.3657  Tot=              2.2163
 Quadrupole moment (field-independent basis, Debye-Ang):
   XX=            -58.9764   YY=            -50.9164   ZZ=            -53.2688
   XY=              4.5293   XZ=              4.0497   YZ=              0.8500

  Exact polarizability:  86.198   0.771  72.578   1.910   0.825  64.632
 Approx polarizability: 115.627  -1.667 110.402   0.343  -1.677 102.170

                      1                      2                      3
                      A                      A                      A
 Frequencies --     74.4630                99.8564               113.2528
 Red. masses --      3.8806                 1.9626                 4.3753
 Frc consts  --      0.0127                 0.0115                 0.0331
 IR Inten    --      1.8270                 4.9793                 0.6961

                      4                      5                      6
                      A                      A                      A
 Frequencies --    280.0806               291.1716               321.8040
 Red. masses --      2.4211                 1.5020                 2.3505
 Frc consts  --      0.1119                 0.0750                 0.1434
 IR Inten    --     12.6840                55.3175                20.1200

                      7                      8                      9
                      A                      A                      A
 Frequencies --    346.8949               419.2860               451.9078
 Red. masses --      4.1785                 3.1778                 2.8342
 Frc consts  --      0.2963                 0.3291                 0.3410
 IR Inten    --     27.6841                 5.1339                 9.3420

                     10                     11                     12
                      A                      A                      A
 Frequencies --    578.9058               690.2054               753.6667
 Red. masses --      3.4000                 3.0653                 2.9370
 Frc consts  --      0.6713                 0.8604                 0.9829
 IR Inten    --      5.2391                 3.4105                 3.7001

                     13                     14                     15
                      A                      A                      A
 Frequencies --    779.9627               799.3975               810.1332
 Red. masses --      1.2622                 2.5275                 4.6775
 Frc consts  --      0.4524                 0.9516                 1.8088
 IR Inten    --      2.3601                17.9028                 7.0370

                     16                     17                     18
                      A                      A                      A
 Frequencies --    869.4699               888.8757               917.0854
 Red. masses --      2.2926                 2.3856                 1.6847
 Frc consts  --      1.0212                 1.1105                 0.8348
 IR Inten    --     12.6972                 9.7761                 5.3633

                     19                     20                     21
                      A                      A                      A
 Frequencies --    942.4342               979.2778               979.9396
 Red. masses --      2.1435                 1.5191                 2.6454
 Frc consts  --      1.1217                 0.8583                 1.4967
 IR Inten    --      1.1423                 1.1117                21.1983

                     22                     23                     24
                      A                      A                      A
 Frequencies --   1012.6881              1032.4260              1056.8038
 Red. masses --      1.8098                 1.5524                 1.5822
 Frc consts  --      1.0935                 0.9749                 1.0411
 IR Inten    --     24.4683                13.0907                 1.7872

                     25                     26                     27
                      A                      A                      A
 Frequencies --   1073.2966              1092.7305              1104.0988
 Red. masses --      3.3078                 2.2227                 1.4724
 Frc consts  --      2.2450                 1.5637                 1.0575
 IR Inten    --    121.5345                 9.0292                 3.9471

                     28                     29                     30
                      A                      A                      A
 Frequencies --   1136.4925              1198.4057              1225.3275
 Red. masses --      1.3729                 1.3635                 1.3516
 Frc consts  --      1.0448                 1.1538                 1.1956
 IR Inten    --      4.0022                 5.4489                 2.2061

                     31                     32                     33
                      A                      A                      A
 Frequencies --   1255.2026              1274.1408              1304.6689
 Red. masses --      1.5019                 1.8544                 1.4331
 Frc consts  --      1.3942                 1.7737                 1.4372
 IR Inten    --      3.2086                 4.7696                 6.4433

                     34                     35                     36
                      A                      A                      A
 Frequencies --   1323.7392              1360.3332              1393.2561
 Red. masses --      1.2787                 3.2243                 1.5163
 Frc consts  --      1.3202                 3.5154                 1.7342
 IR Inten    --      7.5762                 8.2703                 5.3183

                     37                     38                     39
                      A                      A                      A
 Frequencies --   1404.6930              1421.4593              1473.0778
 Red. masses --      1.9395                 1.2909                 1.5467
 Frc consts  --      2.2548                 1.5368                 1.9775
 IR Inten    --     15.7728                35.4613                 3.3131

                     40                     41                     42
                      A                      A                      A
 Frequencies --   1482.5583              1511.1200              2985.7768
 Red. masses --      1.1185                 1.0906                 1.0693
 Frc consts  --      1.4484                 1.4672                 5.6165
 IR Inten    --      3.9816                 0.5988                39.7767

                     43                     44                     45
                      A                      A                      A
 Frequencies --   3007.3895              3045.1021              3073.6744
 Red. masses --      1.0606                 1.0961                 1.0979
 Frc consts  --      5.6519                 5.9884                 6.1110
 IR Inten    --     33.2311                16.2766                41.8196

                     46                     47                     48
                      A                      A                      A
 Frequencies --   3135.7821              3179.6689              3194.7704
 Red. masses --      1.0549                 1.0881                 1.0959
 Frc consts  --      6.1115                 6.4816                 6.5902
 IR Inten    --     14.8734                12.1875                15.2364

                     49                     50                     51
                      A                      A                      A
 Frequencies --   3203.5404              3229.6727              3815.1936
 Red. masses --      1.0988                 1.1137                 1.0661
 Frc consts  --      6.6441                 6.8444                 9.1431
 IR Inten    --     15.0003                 2.6829                16.6326

 - Thermochemistry -
 -------------------
 Temperature   298.150 Kelvin.  Pressure   1.00000 Atm.
 Atom     1 has atomic number  8 and mass  15.99491

 Molecular mass:   126.06808 amu.
 Principal axes and moments of inertia in atomic units:
                           1         2         3
     Eigenvalues --   447.999701955.807272096.54912
           X            0.99997   0.00043   0.00771
           Y           -0.00073   0.99925   0.03883
           Z           -0.00768  -0.03883   0.99922
 This molecule is an asymmetric top.
 Rotational symmetry number  1.
 Warning -- assumption of classical behavior for rotation
           may cause significant error
 Rotational temperatures (Kelvin)      0.19333     0.04429     0.04131
 Rotational constants (GHZ):           4.02844     0.92276     0.86082
 Zero-point vibrational energy     415075.2 (Joules/Mol)
                                   99.20536 (Kcal/Mol)
 Warning -- explicit consideration of  10 degrees of freedom as
           vibrations may cause significant error
 Vibrational temperatures:    107.14   143.67   162.95   402.97   418.93
          (Kelvin)            463.00   499.10   603.26   650.19   832.92
                              993.05  1084.36  1122.19  1150.15  1165.60
                             1250.97  1278.89  1319.48  1355.95  1408.96
                             1409.91  1457.03  1485.43  1520.50  1544.23
                             1572.19  1588.55  1635.16  1724.24  1762.97
                             1805.95  1833.20  1877.13  1904.56  1957.21
                             2004.58  2021.04  2045.16  2119.43  2133.07
                             2174.16  4295.86  4326.96  4381.22  4422.33
                             4511.69  4574.83  4596.56  4609.17  4646.77
                             5489.21

 Zero-point correction=                           0.158094 (Hartree/Particle)
 Thermal correction to Energy=                    0.166579
 Thermal correction to Enthalpy=                  0.167523
 Thermal correction to Gibbs Free Energy=         0.124518
 Sum of electronic and zero-point Energies=           -422.936870
 Sum of electronic and thermal Energies=              -422.928385
 Sum of electronic and thermal Enthalpies=            -422.927440
 Sum of electronic and thermal Free Energies=         -422.970446

                     E (Thermal)             CV                S
                      KCal/Mol        Cal/Mol-Kelvin    Cal/Mol-Kelvin
 Total                  104.530             32.439             90.512
 Electronic               0.000              0.000              0.000
 Translational            0.889              2.981             40.409
 Rotational               0.889              2.981             28.998
 Vibrational            102.752             26.478             21.106
 Vibration     1          0.599              1.966              4.032
 Vibration     2          0.604              1.949              3.457
 Vibration     3          0.607              1.938              3.212
 Vibration     4          0.680              1.710              1.533
 Vibration     5          0.687              1.690              1.467
 Vibration     6          0.707              1.632              1.301
 Vibration     7          0.725              1.582              1.180
 Vibration     8          0.782              1.428              0.894
 Vibration     9          0.811              1.357              0.790
 Vibration    10          0.935              1.077              0.487

 Normal termination of Gaussian 09 at Tue Jan 28 14:51:48 2020.
