 Gaussian 09, Revision D.01,
 Gaussian 09:  ES64L-G09RevD.01 24-Apr-2013

 -----------------------------
 # b3lyp 6-31G(2df,p) opt Freq
 -----------------------------

 -----
 titel
 -----
 Symbolic Z-matrix:
 Charge =  0 Multiplicity = 1

 SCF Done:  E(RB3LYP) =  -423.111840032     A.U. after   14 cycles
 Optimization completed.
    -- Stationary point found.
 Normal termination of Gaussian 09 at Tue Jan 28 14:26:06 2020.

 ----------------------------------------------------------------------
 #N Geom=AllCheck Guess=TCheck SCRF=Check GenChk RB3LYP/6-31G(2df,p) Fr
 eq
 ----------------------------------------------------------------------

 Structure from the checkpoint file:  "/scratch/puck/g09_fa8958f6-56c7-419f-90ef-b062095f2654/Gau-147953.chk"
 -----
 titel
 -----
 Charge =  0 Multiplicity = 1

                         Standard orientation:
 ---------------------------------------------------------------------
 Center     Atomic      Atomic             Coordinates (Angstroms)
 Number     Number       Type             X           Y           Z
 ---------------------------------------------------------------------
      1          6           0       -3.461589    0.348833    0.526051
      2          6           0       -2.441695   -0.243740   -0.430559
      3          8           0       -1.152062   -0.079373    0.129460
      4          6           0       -0.123999   -0.587171   -0.683941
      5          6           0        1.208050   -0.219912   -0.055693
      6          6           0        1.809033   -1.133104    0.935933
      7          8           0        2.284743   -1.107550   -0.406954
      8          6           0        1.531524    1.185724   -0.023048
      9          6           0        1.783174    2.360548   -0.017853
     10          1           0       -4.471737    0.239968    0.120297
     11          1           0       -3.419548   -0.157483    1.494512
     12          1           0       -3.262813    1.412120    0.686302
     13          1           0       -2.646348   -1.313993   -0.602961
     14          1           0       -2.492245    0.255788   -1.412438
     15          1           0       -0.176369   -1.684012   -0.772717
     16          1           0       -0.179231   -0.165696   -1.700747
     17          1           0        2.489905   -0.729351    1.681841
     18          1           0        1.258683   -2.026796    1.226741
     19          1           0        2.011259    3.397764   -0.006212
 ---------------------------------------------------------------------

 SCF Done:  E(RB3LYP) =  -423.111840032     A.U. after    1 cycles

 The electronic state is 1-A.
 Alpha  occ. eigenvalues --  -19.16203 -19.14474 -10.26647 -10.24227 -10.23826
 Alpha  occ. eigenvalues --  -10.23246 -10.18606 -10.18152 -10.17811  -1.08321
 Alpha  occ. eigenvalues --   -1.03934  -0.78685  -0.75539  -0.71113  -0.66894
 Alpha  occ. eigenvalues --   -0.63055  -0.61067  -0.53952  -0.51144  -0.49884
 Alpha  occ. eigenvalues --   -0.49081  -0.47850  -0.42651  -0.42450  -0.41190
 Alpha  occ. eigenvalues --   -0.38654  -0.37031  -0.35985  -0.33753  -0.32448
 Alpha  occ. eigenvalues --   -0.28520  -0.27682  -0.26181  -0.26018
 Alpha virt. eigenvalues --    0.02310   0.04310   0.08635   0.10940   0.11316
 Alpha virt. eigenvalues --    0.12221   0.12979   0.14203   0.14698   0.15649
 Alpha virt. eigenvalues --    0.16794   0.17560   0.18800   0.19398   0.20820

 Mulliken charges:
               1
     1  C   -0.385590
     2  C   -0.023340
     3  O   -0.245727
     4  C   -0.138248
     5  C    0.198554
     6  C   -0.202675
     7  O   -0.268256
     8  C    0.314589
     9  C   -0.446679
    10  H    0.115955
    11  H    0.127223
    12  H    0.130754
    13  H    0.087083
    14  H    0.090736
    15  H    0.097039
    16  H    0.100335
    17  H    0.127256
    18  H    0.120670
    19  H    0.200321
 Sum of Mulliken charges =   0.00000

 Dipole moment (field-independent basis, Debye):
    X=             -1.6429    Y=              0.0355    Z=              0.3688  Tot=              1.6841
 Quadrupole moment (field-independent basis, Debye-Ang):
   XX=            -53.7767   YY=            -48.2902   ZZ=            -52.7194
   XY=              3.3320   XZ=              4.5438   YZ=             -1.8903

  Exact polarizability:  81.691   3.366  91.653   3.118  -3.264  63.418
 Approx polarizability:  99.062   4.440 144.629   2.156  -3.475  95.515

                      1                      2                      3
                      A                      A                      A
 Frequencies --     41.1305                63.1516               104.3187
 Red. masses --      3.2650                 1.9328                 3.3321
 Frc consts  --      0.0033                 0.0045                 0.0214
 IR Inten    --      0.3527                 1.6668                 1.5831

                      4                      5                      6
                      A                      A                      A
 Frequencies --    123.9251               175.4445               222.7356
 Red. masses --      4.3724                 3.1436                 4.0276
 Frc consts  --      0.0396                 0.0570                 0.1177
 IR Inten    --      1.9602                 1.1508                 3.2080

                      7                      8                      9
                      A                      A                      A
 Frequencies --    246.5232               303.8662               328.9862
 Red. masses --      1.1690                 3.6393                 3.6471
 Frc consts  --      0.0419                 0.1980                 0.2326
 IR Inten    --      0.7520                 5.8379                 2.2158

                     10                     11                     12
                      A                      A                      A
 Frequencies --    389.3921               477.6710               543.5326
 Red. masses --      2.8711                 3.7318                 5.1314
 Frc consts  --      0.2565                 0.5017                 0.8932
 IR Inten    --      1.7726                 1.2139                 7.6723

                     13                     14                     15
                      A                      A                      A
 Frequencies --    585.4948               624.6566               661.4316
 Red. masses --      7.9320                 1.2132                 1.2497
 Frc consts  --      1.6021                 0.2789                 0.3221
 IR Inten    --      2.3677                42.2811                34.7524

                     16                     17                     18
                      A                      A                      A
 Frequencies --    723.5149               821.2892               859.4156
 Red. masses --      3.6945                 1.0825                 5.4312
 Frc consts  --      1.1395                 0.4302                 2.3635
 IR Inten    --      6.6687                 0.4227                20.5297

                     19                     20                     21
                      A                      A                      A
 Frequencies --    905.9702               919.0677               944.0683
 Red. masses --      1.9704                 2.7196                 1.5447
 Frc consts  --      0.9528                 1.3535                 0.8111
 IR Inten    --      9.2377                19.4715                12.4790

                     22                     23                     24
                      A                      A                      A
 Frequencies --   1045.3477              1058.9151              1130.9874
 Red. masses --      3.6112                 2.3118                 1.3475
 Frc consts  --      2.3250                 1.5273                 1.0156
 IR Inten    --      9.1356                14.1465                 5.9460

                     25                     26                     27
                      A                      A                      A
 Frequencies --   1150.2395              1161.8998              1167.4996
 Red. masses --      2.4625                 2.0526                 2.2619
 Frc consts  --      1.9195                 1.6327                 1.8165
 IR Inten    --     19.9558               106.4025               129.6450

                     28                     29                     30
                      A                      A                      A
 Frequencies --   1186.4976              1228.7990              1274.6897
 Red. masses --      1.5075                 1.4077                 2.3733
 Frc consts  --      1.2504                 1.2523                 2.2720
 IR Inten    --      6.3853                 5.7298                22.3626

                     31                     32                     33
                      A                      A                      A
 Frequencies --   1296.3561              1374.4998              1386.0307
 Red. masses --      1.1059                 1.8088                 1.6868
 Frc consts  --      1.0950                 2.0134                 1.9092
 IR Inten    --      2.4518                42.6099                19.4666

                     34                     35                     36
                      A                      A                      A
 Frequencies --   1406.1353              1448.5915              1483.4841
 Red. masses --      1.2931                 1.5387                 1.0402
 Frc consts  --      1.5064                 1.9024                 1.3488
 IR Inten    --      8.2621                10.8678                 4.4227

                     37                     38                     39
                      A                      A                      A
 Frequencies --   1499.1558              1508.7908              1521.6074
 Red. masses --      1.0510                 1.1117                 1.1960
 Frc consts  --      1.3917                 1.4911                 1.6315
 IR Inten    --      3.3403                 4.6087                 0.5553

                     40                     41                     42
                      A                      A                      A
 Frequencies --   1534.2517              2242.7281              2954.9395
 Red. masses --      1.0994                 5.9519                 1.0546
 Frc consts  --      1.5247                17.6385                 5.4257
 IR Inten    --      2.8012                 1.3446                29.2803

                     43                     44                     45
                      A                      A                      A
 Frequencies --   2970.7863              2983.3558              3004.7133
 Red. masses --      1.0547                 1.1051                 1.1066
 Frc consts  --      5.4844                 5.7952                 5.8862
 IR Inten    --     66.0243                56.5940                36.4841

                     46                     47                     48
                      A                      A                      A
 Frequencies --   3046.1997              3089.6534              3120.6285
 Red. masses --      1.0347                 1.0505                 1.1015
 Frc consts  --      5.6569                 5.9081                 6.3203
 IR Inten    --     15.8515                21.1782                24.3392

                     49                     50                     51
                      A                      A                      A
 Frequencies --   3123.7878              3185.0930              3502.2807
 Red. masses --      1.1027                 1.1201                 1.1625
 Frc consts  --      6.3396                 6.6947                 8.4016
 IR Inten    --     23.5732                16.7199                65.4741

 - Thermochemistry -
 -------------------
 Temperature   298.150 Kelvin.  Pressure   1.00000 Atm.
 Atom     1 has atomic number  6 and mass  12.00000

 Molecular mass:   126.06808 amu.
 Principal axes and moments of inertia in atomic units:
                           1         2         3
     Eigenvalues --   665.847281956.941052354.23441
           X            0.99997   0.00157   0.00696
           Y           -0.00151   0.99996  -0.00852
           Z           -0.00697   0.00851   0.99994
 This molecule is an asymmetric top.
 Rotational symmetry number  1.
 Warning -- assumption of classical behavior for rotation
           may cause significant error
 Rotational temperatures (Kelvin)      0.13008     0.04426     0.03679
 Rotational constants (GHZ):           2.71044     0.92223     0.76659
 Zero-point vibrational energy     407648.6 (Joules/Mol)
                                   97.43036 (Kcal/Mol)
 Warning -- explicit consideration of  13 degrees of freedom as
           vibrations may cause significant error
 Vibrational temperatures:     59.18    90.86   150.09   178.30   252.43
          (Kelvin)            320.47   354.69   437.20   473.34   560.25
                              687.26   782.02   842.40   898.74   951.65
                             1040.98  1181.65  1236.51  1303.49  1322.33
                             1358.30  1504.02  1523.54  1627.24  1654.94
                             1671.71  1679.77  1707.10  1767.97  1833.99
                             1865.17  1977.60  1994.19  2023.11  2084.20
                             2134.40  2156.95  2170.81  2189.25  2207.44
                             3226.78  4251.49  4274.29  4292.38  4323.11
                             4382.80  4445.32  4489.88  4494.43  4582.63
                             5038.99

 Zero-point correction=                           0.155265 (Hartree/Particle)
 Thermal correction to Energy=                    0.165431
 Thermal correction to Enthalpy=                  0.166375
 Thermal correction to Gibbs Free Energy=         0.118972
 Sum of electronic and zero-point Energies=           -422.956575
 Sum of electronic and thermal Energies=              -422.946409
 Sum of electronic and thermal Enthalpies=            -422.945465
 Sum of electronic and thermal Free Energies=         -422.992868

                     E (Thermal)             CV                S
                      KCal/Mol        Cal/Mol-Kelvin    Cal/Mol-Kelvin
 Total                  103.809             35.882             99.768
 Electronic               0.000              0.000              0.000
 Translational            0.889              2.981             40.409
 Rotational               0.889              2.981             29.507
 Vibrational            102.032             29.921             29.852
 Vibration     1          0.594              1.981              5.204
 Vibration     2          0.597              1.972              4.356
 Vibration     3          0.605              1.946              3.372
 Vibration     4          0.610              1.929              3.038
 Vibration     5          0.627              1.873              2.376
 Vibration     6          0.648              1.806              1.937
 Vibration     7          0.661              1.769              1.755
 Vibration     8          0.695              1.666              1.396
 Vibration     9          0.712              1.618              1.265
 Vibration    10          0.757              1.493              1.002
 Vibration    11          0.834              1.300              0.716
 Vibration    12          0.899              1.154              0.558
 Vibration    13          0.943              1.063              0.475

 Optimization completed.
    -- Stationary point found.
 Normal termination of Gaussian 09 at Tue Jan 28 14:58:12 2020.
