 Gaussian 09, Revision D.01,
 Gaussian 09:  ES64L-G09RevD.01 24-Apr-2013

 -----------------------------
 # b3lyp 6-31G(2df,p) opt Freq
 -----------------------------

 -----
 titel
 -----
 Symbolic Z-matrix:
 Charge =  0 Multiplicity = 1

 SCF Done:  E(RB3LYP) =  -423.163181742     A.U. after   13 cycles
 Optimization completed.
    -- Stationary point found.
 Normal termination of Gaussian 09 at Mon Jan 27 18:15:52 2020.

 ----------------------------------------------------------------------
 #N Geom=AllCheck Guess=TCheck SCRF=Check GenChk RB3LYP/6-31G(2df,p) Fr
 eq
 ----------------------------------------------------------------------

 Structure from the checkpoint file:  "/scratch/puck/g09_a9e1439e-bf9d-4bcf-8784-66d6c462d1b5/Gau-17555.chk"
 -----
 titel
 -----
 Charge =  0 Multiplicity = 1

                         Standard orientation:
 ---------------------------------------------------------------------
 Center     Atomic      Atomic             Coordinates (Angstroms)
 Number     Number       Type             X           Y           Z
 ---------------------------------------------------------------------
      1          6           0       -2.416778    0.015008   -0.311462
      2          6           0       -0.932924    0.082190   -0.051677
      3          6           0       -0.261360    1.439701   -0.274433
      4          6           0        1.181739    1.344122    0.285402
      5          6           0        1.612367   -0.111739    0.138960
      6          8           0        1.221072   -0.572000   -1.197939
      7          6           0        0.001601   -1.058627   -0.635343
      8          6           0        0.528825   -1.056620    0.791123
      9          8           0       -0.590297   -0.348159    1.319499
     10          1           0       -2.634826    0.306399   -1.344448
     11          1           0       -2.795591   -0.998079   -0.147570
     12          1           0       -2.955958    0.693254    0.357887
     13          1           0       -0.242753    1.661492   -1.345719
     14          1           0       -0.830349    2.230845    0.223245
     15          1           0        1.863964    2.005721   -0.255504
     16          1           0        1.206418    1.624087    1.342906
     17          1           0        2.668298   -0.307801    0.337456
     18          1           0       -0.460876   -1.875471   -1.192209
     19          1           0        0.854663   -1.903379    1.396063
 ---------------------------------------------------------------------

 SCF Done:  E(RB3LYP) =  -423.163181742     A.U. after    1 cycles

 The electronic state is 1-A.
 Alpha  occ. eigenvalues --  -19.13596 -19.13396 -10.23918 -10.23427 -10.23404
 Alpha  occ. eigenvalues --  -10.23321 -10.18352 -10.18273 -10.18093  -1.06924
 Alpha  occ. eigenvalues --   -1.01400  -0.79184  -0.76239  -0.71259  -0.68655
 Alpha  occ. eigenvalues --   -0.61169  -0.59587  -0.52658  -0.49906  -0.48312
 Alpha  occ. eigenvalues --   -0.48105  -0.43328  -0.42327  -0.41201  -0.40467
 Alpha  occ. eigenvalues --   -0.39058  -0.36075  -0.35778  -0.35377  -0.33835
 Alpha  occ. eigenvalues --   -0.33192  -0.29036  -0.24497  -0.23661
 Alpha virt. eigenvalues --    0.06944   0.09442   0.10727   0.11430   0.12156
 Alpha virt. eigenvalues --    0.13663   0.15234   0.15658   0.16038   0.17073
 Alpha virt. eigenvalues --    0.17823   0.18410   0.18737   0.20200   0.21557

 Mulliken charges:
               1
     1  C   -0.479769
     2  C    0.378994
     3  C   -0.238558
     4  C   -0.219173
     5  C    0.055531
     6  O   -0.307895
     7  C    0.026785
     8  C    0.066271
     9  O   -0.335107
    10  H    0.122990
    11  H    0.122747
    12  H    0.128796
    13  H    0.112849
    14  H    0.100642
    15  H    0.103814
    16  H    0.114079
    17  H    0.078831
    18  H    0.082084
    19  H    0.086089
 Sum of Mulliken charges =   0.00000

 Dipole moment (field-independent basis, Debye):
    X=             -0.2560    Y=              0.2020    Z=             -0.0145  Tot=              0.3264
 Quadrupole moment (field-independent basis, Debye-Ang):
   XX=            -51.3298   YY=            -50.4585   ZZ=            -57.2133
   XY=              0.2963   XZ=              4.9732   YZ=             -0.6213

  Exact polarizability:  81.902   0.202  72.984   3.935  -0.501  64.451
 Approx polarizability: 111.324  -0.757 103.334   0.892   0.182 106.340

                      1                      2                      3
                      A                      A                      A
 Frequencies --    198.7073               225.1534               275.0222
 Red. masses --      1.1512                 1.6724                 2.6448
 Frc consts  --      0.0268                 0.0500                 0.1179
 IR Inten    --      0.1453                 0.8742                 0.6878

                      4                      5                      6
                      A                      A                      A
 Frequencies --    285.5187               376.7926               442.1418
 Red. masses --      2.4120                 2.8020                 3.5911
 Frc consts  --      0.1159                 0.2344                 0.4136
 IR Inten    --      0.6376                 3.3023                 6.4785

                      7                      8                      9
                      A                      A                      A
 Frequencies --    478.8607               529.4173               646.0923
 Red. masses --      4.5991                 4.3606                 4.8755
 Frc consts  --      0.6214                 0.7201                 1.1991
 IR Inten    --     12.9162                 1.8121                 1.1208

                     10                     11                     12
                      A                      A                      A
 Frequencies --    693.8240               759.0543               792.1765
 Red. masses --      3.3762                 3.3941                 2.3723
 Frc consts  --      0.9576                 1.1522                 0.8771
 IR Inten    --      1.1680                 1.7171                15.1172

                     13                     14                     15
                      A                      A                      A
 Frequencies --    808.3962               826.1638               856.0320
 Red. masses --      2.7000                 2.3106                 1.7516
 Frc consts  --      1.0396                 0.9292                 0.7562
 IR Inten    --      7.6864                 1.3404                18.9438

                     16                     17                     18
                      A                      A                      A
 Frequencies --    889.1858               920.1554               948.2249
 Red. masses --      2.7027                 2.2776                 2.3299
 Frc consts  --      1.2590                 1.1362                 1.2343
 IR Inten    --     17.7875                16.8071                14.8124

                     19                     20                     21
                      A                      A                      A
 Frequencies --    989.0160               998.9717              1034.9542
 Red. masses --      2.4405                 3.0349                 2.5329
 Frc consts  --      1.4065                 1.7844                 1.5985
 IR Inten    --      8.2274                24.9799                60.2028

                     22                     23                     24
                      A                      A                      A
 Frequencies --   1038.6839              1068.9627              1113.9115
 Red. masses --      2.3167                 2.5894                 1.5241
 Frc consts  --      1.4726                 1.7433                 1.1142
 IR Inten    --     15.5402                22.6830                 9.6929

                     25                     26                     27
                      A                      A                      A
 Frequencies --   1140.1769              1185.3599              1186.2214
 Red. masses --      1.9635                 1.6131                 1.7469
 Frc consts  --      1.5039                 1.3354                 1.4483
 IR Inten    --      5.1573                 1.4419                 8.8867

                     28                     29                     30
                      A                      A                      A
 Frequencies --   1207.1267              1249.2110              1255.0678
 Red. masses --      1.7234                 2.1638                 1.4487
 Frc consts  --      1.4796                 1.9894                 1.3445
 IR Inten    --      8.7285                 4.2809                 2.1728

                     31                     32                     33
                      A                      A                      A
 Frequencies --   1272.2648              1307.2665              1311.4448
 Red. masses --      1.5966                 1.5796                 1.4728
 Frc consts  --      1.5226                 1.5905                 1.4924
 IR Inten    --      2.0711                 7.9073                 9.1680

                     34                     35                     36
                      A                      A                      A
 Frequencies --   1353.4406              1355.5713              1374.8774
 Red. masses --      1.4744                 1.6229                 1.7797
 Frc consts  --      1.5912                 1.7571                 1.9821
 IR Inten    --      2.4356                 0.3544                 1.1494

                     37                     38                     39
                      A                      A                      A
 Frequencies --   1408.3491              1465.7234              1479.6257
 Red. masses --      1.3640                 1.0824                 1.0671
 Frc consts  --      1.5940                 1.3701                 1.3764
 IR Inten    --      7.9092                 1.0704                 0.6274

                     40                     41                     42
                      A                      A                      A
 Frequencies --   1483.5799              1493.2242              3033.9000
 Red. masses --      1.0950                 1.0504                 1.0352
 Frc consts  --      1.4200                 1.3800                 5.6139
 IR Inten    --      7.0157                 3.6902                13.2944

                     43                     44                     45
                      A                      A                      A
 Frequencies --   3050.4339              3058.8595              3087.0606
 Red. masses --      1.0585                 1.0602                 1.0910
 Frc consts  --      5.8031                 5.8445                 6.1257
 IR Inten    --     23.7330                26.9316                31.8740

                     46                     47                     48
                      A                      A                      A
 Frequencies --   3092.0367              3095.9110              3105.6972
 Red. masses --      1.1023                 1.0884                 1.1024
 Frc consts  --      6.2093                 6.1466                 6.2647
 IR Inten    --     15.1360                45.3903                 3.5174

                     49                     50                     51
                      A                      A                      A
 Frequencies --   3109.3390              3111.5846              3114.0240
 Red. masses --      1.1037                 1.1012                 1.0954
 Frc consts  --      6.2867                 6.2820                 6.2582
 IR Inten    --     38.5952                 9.6480                61.7813

 - Thermochemistry -
 -------------------
 Temperature   298.150 Kelvin.  Pressure   1.00000 Atm.
 Atom     1 has atomic number  6 and mass  12.00000

 Molecular mass:   126.06808 amu.
 Principal axes and moments of inertia in atomic units:
                           1         2         3
     Eigenvalues --   640.65572 982.950491085.61962
           X            0.99835   0.01890   0.05422
           Y           -0.01792   0.99967  -0.01840
           Z           -0.05455   0.01740   0.99836
 This molecule is an asymmetric top.
 Rotational symmetry number  1.
 Warning -- assumption of classical behavior for rotation
           may cause significant error
 Rotational temperatures (Kelvin)      0.13520     0.08812     0.07978
 Rotational constants (GHZ):           2.81702     1.83604     1.66241
 Zero-point vibrational energy     422178.9 (Joules/Mol)
                                  100.90317 (Kcal/Mol)
 Warning -- explicit consideration of   8 degrees of freedom as
           vibrations may cause significant error
 Vibrational temperatures:    285.90   323.95   395.70   410.80   542.12
          (Kelvin)            636.14   688.97   761.71   929.58   998.26
                             1092.11  1139.76  1163.10  1188.66  1231.64
                             1279.34  1323.90  1364.28  1422.97  1437.30
                             1489.07  1494.43  1538.00  1602.67  1640.46
                             1705.47  1706.71  1736.78  1797.33  1805.76
                             1830.50  1880.86  1886.87  1947.30  1950.36
                             1978.14  2026.30  2108.85  2128.85  2134.54
                             2148.41  4365.10  4388.89  4401.01  4441.59
                             4448.75  4454.32  4468.40  4473.64  4476.87
                             4480.38

 Zero-point correction=                           0.160799 (Hartree/Particle)
 Thermal correction to Energy=                    0.167820
 Thermal correction to Enthalpy=                  0.168764
 Thermal correction to Gibbs Free Energy=         0.129917
 Sum of electronic and zero-point Energies=           -423.002382
 Sum of electronic and thermal Energies=              -422.995362
 Sum of electronic and thermal Enthalpies=            -422.994417
 Sum of electronic and thermal Free Energies=         -423.033265

                     E (Thermal)             CV                S
                      KCal/Mol        Cal/Mol-Kelvin    Cal/Mol-Kelvin
 Total                  105.309             29.281             81.761
 Electronic               0.000              0.000              0.000
 Translational            0.889              2.981             40.409
 Rotational               0.889              2.981             28.016
 Vibrational            103.531             23.319             13.337
 Vibration     1          0.637              1.842              2.145
 Vibration     2          0.650              1.803              1.917
 Vibration     3          0.677              1.720              1.564
 Vibration     4          0.683              1.701              1.500
 Vibration     5          0.747              1.520              1.052
 Vibration     6          0.802              1.378              0.820
 Vibration     7          0.835              1.297              0.713
 Vibration     8          0.884              1.185              0.589

 Optimization completed.
    -- Stationary point found.
 Normal termination of Gaussian 09 at Mon Jan 27 20:11:47 2020.
