 Gaussian 09, Revision D.01,
 Gaussian 09:  ES64L-G09RevD.01 24-Apr-2013

 -----------------------------
 # b3lyp 6-31G(2df,p) opt Freq
 -----------------------------

 -----
 titel
 -----
 Symbolic Z-matrix:
 Charge =  0 Multiplicity = 1

 SCF Done:  E(RB3LYP) =  -423.178829438     A.U. after   14 cycles
 Optimization completed.
    -- Stationary point found.
 Normal termination of Gaussian 09 at Tue Jan 28 02:54:19 2020.

 ----------------------------------------------------------------------
 #N Geom=AllCheck Guess=TCheck SCRF=Check GenChk RB3LYP/6-31G(2df,p) Fr
 eq
 ----------------------------------------------------------------------

 Structure from the checkpoint file:  "/scratch/puck/g09_cae84e77-c20b-4ef6-8c1e-6527d829774c/Gau-11495.chk"
 -----
 titel
 -----
 Charge =  0 Multiplicity = 1

                         Standard orientation:
 ---------------------------------------------------------------------
 Center     Atomic      Atomic             Coordinates (Angstroms)
 Number     Number       Type             X           Y           Z
 ---------------------------------------------------------------------
      1          6           0       -2.947482   -1.062042   -0.362397
      2          6           0       -1.724536   -0.514749    0.361743
      3          6           0       -1.779859    1.028426    0.650776
      4          6           0       -0.558895    1.233947   -0.249556
      5          6           0        0.577254    0.404266    0.251642
      6          8           0        1.778783    0.649766   -0.467402
      7          6           0        2.805636   -0.176151   -0.202736
      8          8           0        2.802937   -1.087638    0.575742
      9          6           0       -0.500009   -0.277575   -0.535404
     10          1           0       -2.790673   -2.099827   -0.676103
     11          1           0       -3.829252   -1.036355    0.286927
     12          1           0       -3.171030   -0.471742   -1.258333
     13          1           0       -1.510385   -1.130711    1.243552
     14          1           0       -2.687492    1.480300    0.242858
     15          1           0       -1.669919    1.344711    1.693509
     16          1           0       -0.371799    2.068953   -0.913530
     17          1           0        0.745451    0.194458    1.304641
     18          1           0        3.664663    0.133941   -0.817545
     19          1           0       -0.265983   -0.797488   -1.457101
 ---------------------------------------------------------------------

 SCF Done:  E(RB3LYP) =  -423.178829438     A.U. after    1 cycles

 The electronic state is 1-A.
 Alpha  occ. eigenvalues --  -19.19326 -19.13397 -10.30883 -10.24669 -10.19840
 Alpha  occ. eigenvalues --  -10.19701 -10.19559 -10.18951 -10.17900  -1.10895
 Alpha  occ. eigenvalues --   -1.02511  -0.90245  -0.76740  -0.70285  -0.65846
 Alpha  occ. eigenvalues --   -0.62049  -0.57149  -0.53899  -0.52364  -0.49250
 Alpha  occ. eigenvalues --   -0.48033  -0.46725  -0.43766  -0.43067  -0.39656
 Alpha  occ. eigenvalues --   -0.39492  -0.37704  -0.36847  -0.33471  -0.32783
 Alpha  occ. eigenvalues --   -0.32323  -0.28246  -0.27117  -0.26317
 Alpha virt. eigenvalues --    0.00778   0.08860   0.10148   0.10861   0.11697
 Alpha virt. eigenvalues --    0.13030   0.14070   0.15089   0.15779   0.16379
 Alpha virt. eigenvalues --    0.17066   0.17834   0.18568   0.20426   0.22385

 Mulliken charges:
               1
     1  C   -0.405560
     2  C    0.021238
     3  C   -0.261267
     4  C   -0.094068
     5  C    0.124157
     6  O   -0.224508
     7  C    0.171947
     8  O   -0.296651
     9  C   -0.082072
    10  H    0.117824
    11  H    0.116012
    12  H    0.116099
    13  H    0.076297
    14  H    0.107603
    15  H    0.098408
    16  H    0.097180
    17  H    0.114903
    18  H    0.110173
    19  H    0.092289
 Sum of Mulliken charges =   0.00000

 Dipole moment (field-independent basis, Debye):
    X=             -1.4649    Y=              1.1816    Z=             -0.8766  Tot=              2.0762
 Quadrupole moment (field-independent basis, Debye-Ang):
   XX=            -53.0764   YY=            -55.3719   ZZ=            -52.5616
   XY=              3.8103   XZ=             -3.6622   YZ=              1.8261

  Exact polarizability:  95.205  -1.289  71.517  -2.341  -1.664  65.004
 Approx polarizability: 114.591  -5.324 113.225  -0.829  -7.985 102.473

                      1                      2                      3
                      A                      A                      A
 Frequencies --     29.3153               128.9115               150.4709
 Red. masses --      5.5022                 3.5129                 3.1969
 Frc consts  --      0.0028                 0.0344                 0.0426
 IR Inten    --      1.2400                 1.9109                 1.5117

                      4                      5                      6
                      A                      A                      A
 Frequencies --    188.4771               254.8419               295.6494
 Red. masses --      2.8122                 1.0837                 2.5153
 Frc consts  --      0.0589                 0.0415                 0.1295
 IR Inten    --      3.6048                 0.3192                 5.1358

                      7                      8                      9
                      A                      A                      A
 Frequencies --    324.4469               391.5482               428.9909
 Red. masses --      3.7259                 3.2566                 2.4773
 Frc consts  --      0.2311                 0.2942                 0.2686
 IR Inten    --      5.0596                 3.2793                 0.0659

                     10                     11                     12
                      A                      A                      A
 Frequencies --    464.7379               703.3198               764.7220
 Red. masses --      3.3934                 2.8263                 5.2282
 Frc consts  --      0.4318                 0.8237                 1.8014
 IR Inten    --      9.1608                 2.3370                 3.2956

                     13                     14                     15
                      A                      A                      A
 Frequencies --    816.7141               849.8659               876.8752
 Red. masses --      1.9207                 1.9714                 1.8743
 Frc consts  --      0.7548                 0.8389                 0.8491
 IR Inten    --      2.6574                 5.3247                 4.7458

                     16                     17                     18
                      A                      A                      A
 Frequencies --    908.7036               918.8205               960.7725
 Red. masses --      2.0635                 2.5339                 1.7407
 Frc consts  --      1.0039                 1.2604                 0.9467
 IR Inten    --      5.7030                10.8204                 5.6901

                     19                     20                     21
                      A                      A                      A
 Frequencies --    991.7376              1015.0902              1034.3503
 Red. masses --      1.8663                 1.1663                 2.0364
 Frc consts  --      1.0815                 0.7081                 1.2836
 IR Inten    --      1.5871                 0.7744                 4.4400

                     22                     23                     24
                      A                      A                      A
 Frequencies --   1041.3019              1075.6980              1093.0287
 Red. masses --      1.6518                 2.2189                 1.7206
 Frc consts  --      1.0553                 1.5127                 1.2112
 IR Inten    --      0.6092                 2.0910                 2.6378

                     25                     26                     27
                      A                      A                      A
 Frequencies --   1108.1397              1138.1917              1182.6796
 Red. masses --      1.5008                 2.0885                 1.9329
 Frc consts  --      1.0858                 1.5941                 1.5929
 IR Inten    --      2.3419                 0.8273                39.9507

                     28                     29                     30
                      A                      A                      A
 Frequencies --   1202.6440              1215.2599              1239.0358
 Red. masses --      1.5713                 6.2475                 1.5565
 Frc consts  --      1.3390                 5.4362                 1.4079
 IR Inten    --      8.9551               386.8001                10.6765

                     31                     32                     33
                      A                      A                      A
 Frequencies --   1255.3493              1285.6429              1303.4318
 Red. masses --      1.5450                 1.6246                 1.3369
 Frc consts  --      1.4345                 1.5821                 1.3382
 IR Inten    --      1.1638                 0.7621                 1.6531

                     34                     35                     36
                      A                      A                      A
 Frequencies --   1367.1996              1408.9801              1409.8603
 Red. masses --      1.4955                 1.2061                 1.2312
 Frc consts  --      1.6470                 1.4108                 1.4419
 IR Inten    --      4.9227                 3.6518                 2.8455

                     37                     38                     39
                      A                      A                      A
 Frequencies --   1426.9994              1488.5151              1493.7384
 Red. masses --      2.5006                 1.1016                 1.0455
 Frc consts  --      3.0002                 1.4381                 1.3744
 IR Inten    --     19.2906                 1.6833                 3.5172

                     40                     41                     42
                      A                      A                      A
 Frequencies --   1500.5845              1826.5981              3025.0499
 Red. masses --      1.0534                 9.5603                 1.0349
 Frc consts  --      1.3975                18.7936                 5.5799
 IR Inten    --      2.2842               283.5927                29.0506

                     43                     44                     45
                      A                      A                      A
 Frequencies --   3026.0917              3031.7125              3045.0854
 Red. masses --      1.0833                 1.0907                 1.0623
 Frc consts  --      5.8446                 5.9065                 5.8034
 IR Inten    --     23.3591                70.9356                46.5710

                     46                     47                     48
                      A                      A                      A
 Frequencies --   3093.3168              3096.7854              3103.8991
 Red. masses --      1.1019                 1.1016                 1.1037
 Frc consts  --      6.2120                 6.2242                 6.2650
 IR Inten    --     24.4540                26.4525                31.1187

                     49                     50                     51
                      A                      A                      A
 Frequencies --   3141.9009              3180.1738              3192.2448
 Red. masses --      1.0893                 1.0891                 1.0960
 Frc consts  --      6.3354                 6.4894                 6.5804
 IR Inten    --     10.1799                10.9106                10.7547

 - Thermochemistry -
 -------------------
 Temperature   298.150 Kelvin.  Pressure   1.00000 Atm.
 Atom     1 has atomic number  6 and mass  12.00000

 Molecular mass:   126.06808 amu.
 Principal axes and moments of inertia in atomic units:
                           1         2         3
     Eigenvalues --   453.721701972.263512180.41867
           X            0.99986   0.01628  -0.00321
           Y           -0.01613   0.99908   0.03973
           Z            0.00385  -0.03967   0.99921
 This molecule is an asymmetric top.
 Rotational symmetry number  1.
 Warning -- assumption of classical behavior for rotation
           may cause significant error
 Rotational temperatures (Kelvin)      0.19090     0.04392     0.03972
 Rotational constants (GHZ):           3.97764     0.91506     0.82770
 Zero-point vibrational energy     415687.4 (Joules/Mol)
                                   99.35166 (Kcal/Mol)
 Warning -- explicit consideration of  10 degrees of freedom as
           vibrations may cause significant error
 Vibrational temperatures:     42.18   185.47   216.49   271.18   366.66
          (Kelvin)            425.37   466.81   563.35   617.22   668.65
                             1011.92  1100.26  1175.07  1222.77  1261.63
                             1307.42  1321.98  1382.34  1426.89  1460.49
                             1488.20  1498.20  1547.69  1572.62  1594.36
                             1637.60  1701.61  1730.33  1748.49  1782.69
                             1806.17  1849.75  1875.35  1967.09  2027.21
                             2028.47  2053.13  2141.64  2149.15  2159.00
                             2628.06  4352.37  4353.87  4361.95  4381.19
                             4450.59  4455.58  4465.81  4520.49  4575.56
                             4592.92

 Zero-point correction=                           0.158327 (Hartree/Particle)
 Thermal correction to Energy=                    0.167014
 Thermal correction to Enthalpy=                  0.167958
 Thermal correction to Gibbs Free Energy=         0.123947
 Sum of electronic and zero-point Energies=           -423.020502
 Sum of electronic and thermal Energies=              -423.011816
 Sum of electronic and thermal Enthalpies=            -423.010872
 Sum of electronic and thermal Free Energies=         -423.054883

                     E (Thermal)             CV                S
                      KCal/Mol        Cal/Mol-Kelvin    Cal/Mol-Kelvin
 Total                  104.803             32.035             92.629
 Electronic               0.000              0.000              0.000
 Translational            0.889              2.981             40.409
 Rotational               0.889              2.981             29.058
 Vibrational            103.025             26.073             23.163
 Vibration     1          0.593              1.984              5.875
 Vibration     2          0.611              1.924              2.962
 Vibration     3          0.618              1.902              2.666
 Vibration     4          0.633              1.856              2.243
 Vibration     5          0.665              1.755              1.697
 Vibration     6          0.690              1.682              1.441
 Vibration     7          0.709              1.627              1.288
 Vibration     8          0.759              1.488              0.994
 Vibration     9          0.790              1.407              0.862
 Vibration    10          0.822              1.328              0.752

 Optimization completed.
    -- Stationary point found.
 Normal termination of Gaussian 09 at Tue Jan 28 03:37:32 2020.
