 Gaussian 09, Revision D.01,
 Gaussian 09:  ES64L-G09RevD.01 24-Apr-2013

 -----------------------------
 # b3lyp 6-31G(2df,p) opt Freq
 -----------------------------

 -----
 titel
 -----
 Symbolic Z-matrix:
 Charge =  0 Multiplicity = 1

 SCF Done:  E(RB3LYP) =  -423.120317026     A.U. after   12 cycles
 Optimization completed.
    -- Stationary point found.
 Normal termination of Gaussian 09 at Mon Jan 27 22:01:38 2020.

 ----------------------------------------------------------------------
 #N Geom=AllCheck Guess=TCheck SCRF=Check GenChk RB3LYP/6-31G(2df,p) Fr
 eq
 ----------------------------------------------------------------------

 Structure from the checkpoint file:  "/scratch/puck/g09_d4599731-0ed9-446e-9e91-a818026fb85a/Gau-98642.chk"
 -----
 titel
 -----
 Charge =  0 Multiplicity = 1

                         Standard orientation:
 ---------------------------------------------------------------------
 Center     Atomic      Atomic             Coordinates (Angstroms)
 Number     Number       Type             X           Y           Z
 ---------------------------------------------------------------------
      1          6           0        1.752897    1.658119    0.164647
      2          6           0        0.777674    0.568270   -0.123125
      3          8           0       -0.449134    0.900640   -0.798811
      4          6           0       -1.163002   -0.030856    0.038630
      5          6           0       -2.377637   -0.751243   -0.438626
      6          6           0       -2.480227    0.326252    0.637775
      7          6           0        0.093879   -0.500977    0.713946
      8          6           0        1.090409   -0.888979   -0.358736
      9          8           0        2.287103   -1.376914    0.175570
     10          1           0        2.078949    2.136416   -0.766591
     11          1           0        1.312511    2.428907    0.804275
     12          1           0        2.630231    1.244129    0.668689
     13          1           0       -2.743919   -0.497663   -1.427469
     14          1           0       -2.513972   -1.789251   -0.153975
     15          1           0       -2.908889    1.279989    0.349630
     16          1           0       -2.684063    0.022425    1.659511
     17          1           0        0.222601   -0.783643    1.750095
     18          1           0        0.739854   -1.369263   -1.274616
     19          1           0        2.998989   -1.145367   -0.430688
 ---------------------------------------------------------------------

 SCF Done:  E(RB3LYP) =  -423.120317026     A.U. after    1 cycles

 The electronic state is 1-A.
 Alpha  occ. eigenvalues --  -19.15053 -19.13708 -10.24225 -10.23910 -10.23411
 Alpha  occ. eigenvalues --  -10.19004 -10.18365 -10.18341 -10.18241  -1.05681
 Alpha  occ. eigenvalues --   -1.02946  -0.84730  -0.82101  -0.73240  -0.62852
 Alpha  occ. eigenvalues --   -0.60352  -0.57539  -0.54068  -0.51445  -0.50065
 Alpha  occ. eigenvalues --   -0.47443  -0.45442  -0.43636  -0.41674  -0.39231
 Alpha  occ. eigenvalues --   -0.38609  -0.37208  -0.36342  -0.33873  -0.32303
 Alpha  occ. eigenvalues --   -0.29591  -0.28929  -0.24859  -0.21634
 Alpha virt. eigenvalues --    0.06662   0.08157   0.10753   0.12129   0.12506
 Alpha virt. eigenvalues --    0.13527   0.14537   0.14999   0.15898   0.16998
 Alpha virt. eigenvalues --    0.18092   0.19081   0.20663   0.22121   0.22671

 Mulliken charges:
               1
     1  C   -0.501645
     2  C    0.415716
     3  O   -0.347462
     4  C    0.469210
     5  C   -0.341014
     6  C   -0.345032
     7  C   -0.302661
     8  C    0.012600
     9  O   -0.425916
    10  H    0.127747
    11  H    0.131631
    12  H    0.130582
    13  H    0.125280
    14  H    0.118538
    15  H    0.125098
    16  H    0.115977
    17  H    0.109169
    18  H    0.090718
    19  H    0.291463
 Sum of Mulliken charges =   0.00000

 Dipole moment (field-independent basis, Debye):
    X=              0.7251    Y=              0.0141    Z=              0.0647  Tot=              0.7281
 Quadrupole moment (field-independent basis, Debye-Ang):
   XX=            -47.7933   YY=            -54.9629   ZZ=            -52.4128
   XY=              2.3838   XZ=             -3.7788   YZ=              2.3479

  Exact polarizability:  92.412   2.355  72.653  -2.392   1.660  65.271
 Approx polarizability: 117.709   0.655 106.794  -3.754  -1.619 102.104

                      1                      2                      3
                      A                      A                      A
 Frequencies --    115.4307               187.0666               199.7282
 Red. masses --      3.5592                 2.5109                 1.0922
 Frc consts  --      0.0279                 0.0518                 0.0257
 IR Inten    --      1.2853                 1.4674                 0.8491

                      4                      5                      6
                      A                      A                      A
 Frequencies --    223.8955               237.0091               311.8196
 Red. masses --      3.2914                 2.5092                 1.6649
 Frc consts  --      0.0972                 0.0830                 0.0954
 IR Inten    --      3.6974                 1.2221                25.8810

                      7                      8                      9
                      A                      A                      A
 Frequencies --    345.7319               372.2016               412.6993
 Red. masses --      1.4223                 3.4838                 2.8990
 Frc consts  --      0.1002                 0.2844                 0.2909
 IR Inten    --     90.6309                 2.1968                12.6181

                     10                     11                     12
                      A                      A                      A
 Frequencies --    461.5373               503.0550               592.3338
 Red. masses --      5.1394                 4.0430                 3.6638
 Frc consts  --      0.6450                 0.6028                 0.7574
 IR Inten    --      3.9654                 2.1973                 1.4296

                     13                     14                     15
                      A                      A                      A
 Frequencies --    697.7280               755.2172               850.5942
 Red. masses --      3.6121                 1.0503                 2.8239
 Frc consts  --      1.0360                 0.3529                 1.2038
 IR Inten    --      1.4748                 2.1593                17.1734

                     16                     17                     18
                      A                      A                      A
 Frequencies --    857.3987               875.9319               891.6762
 Red. masses --      2.9911                 1.3364                 1.7688
 Frc consts  --      1.2955                 0.6041                 0.8286
 IR Inten    --     13.6535                10.5653                 1.5219

                     19                     20                     21
                      A                      A                      A
 Frequencies --    937.7588               956.1062               972.4124
 Red. masses --      1.9803                 2.3928                 3.0727
 Frc consts  --      1.0260                 1.2887                 1.7119
 IR Inten    --     28.1803                15.8424                24.5510

                     22                     23                     24
                      A                      A                      A
 Frequencies --    993.8656              1038.5134              1046.5808
 Red. masses --      2.4700                 2.0261                 1.4882
 Frc consts  --      1.4375                 1.2875                 0.9604
 IR Inten    --      7.8951                 3.4701                15.2099

                     25                     26                     27
                      A                      A                      A
 Frequencies --   1068.3270              1076.5617              1117.5904
 Red. masses --      1.4922                 1.6165                 1.9908
 Frc consts  --      1.0035                 1.1038                 1.4650
 IR Inten    --      0.1037                 5.5398                68.6198

                     28                     29                     30
                      A                      A                      A
 Frequencies --   1130.1077              1164.0611              1186.2295
 Red. masses --      3.0887                 1.8848                 1.2668
 Frc consts  --      2.3242                 1.5048                 1.0503
 IR Inten    --     90.2676                28.8142                 0.1284

                     31                     32                     33
                      A                      A                      A
 Frequencies --   1207.5687              1257.0824              1284.2428
 Red. masses --      2.0475                 2.8083                 1.2706
 Frc consts  --      1.7592                 2.6147                 1.2347
 IR Inten    --     15.7524                10.6895                42.1660

                     34                     35                     36
                      A                      A                      A
 Frequencies --   1359.0382              1402.4895              1413.7127
 Red. masses --      1.5789                 1.6909                 1.5454
 Frc consts  --      1.7182                 1.9596                 1.8198
 IR Inten    --     15.6358                21.3870                 3.9500

                     37                     38                     39
                      A                      A                      A
 Frequencies --   1448.6912              1455.4096              1481.5559
 Red. masses --      1.1232                 2.8647                 1.0500
 Frc consts  --      1.3888                 3.5752                 1.3580
 IR Inten    --      2.3271                13.2426                 3.0958

                     40                     41                     42
                      A                      A                      A
 Frequencies --   1498.8056              1510.6131              3031.5137
 Red. masses --      1.1252                 2.1168                 1.0374
 Frc consts  --      1.4893                 2.8460                 5.6171
 IR Inten    --      9.9822                15.8817                28.2304

                     43                     44                     45
                      A                      A                      A
 Frequencies --   3078.8920              3095.1782              3123.2695
 Red. masses --      1.0879                 1.0987                 1.1002
 Frc consts  --      6.0761                 6.2013                 6.3230
 IR Inten    --     31.0163                16.2741                11.2319

                     46                     47                     48
                      A                      A                      A
 Frequencies --   3128.8542              3132.6007              3207.1478
 Red. masses --      1.0517                 1.0568                 1.0946
 Frc consts  --      6.0664                 6.1101                 6.6335
 IR Inten    --     12.6242                 5.4293                 4.0834

                     49                     50                     51
                      A                      A                      A
 Frequencies --   3213.1106              3227.1383              3801.5518
 Red. masses --      1.1182                 1.1153                 1.0662
 Frc consts  --      6.8018                 6.8436                 9.0787
 IR Inten    --      0.2660                 8.8832                25.2570

 - Thermochemistry -
 -------------------
 Temperature   298.150 Kelvin.  Pressure   1.00000 Atm.
 Atom     1 has atomic number  6 and mass  12.00000

 Molecular mass:   126.06808 amu.
 Principal axes and moments of inertia in atomic units:
                           1         2         3
     Eigenvalues --   568.199911405.406831705.79539
           X            0.99936   0.03556  -0.00454
           Y           -0.03535   0.99855   0.04066
           Z            0.00598  -0.04048   0.99916
 This molecule is an asymmetric top.
 Rotational symmetry number  1.
 Warning -- assumption of classical behavior for rotation
           may cause significant error
 Rotational temperatures (Kelvin)      0.15244     0.06163     0.05078
 Rotational constants (GHZ):           3.17624     1.28414     1.05801
 Zero-point vibrational energy     412338.6 (Joules/Mol)
                                   98.55130 (Kcal/Mol)
 Warning -- explicit consideration of  12 degrees of freedom as
           vibrations may cause significant error
 Vibrational temperatures:    166.08   269.15   287.36   322.14   341.00
          (Kelvin)            448.64   497.43   535.51   593.78   664.05
                              723.78   852.24  1003.87  1086.59  1223.81
                             1233.60  1260.27  1282.92  1349.22  1375.62
                             1399.08  1429.95  1494.19  1505.79  1537.08
                             1548.93  1607.96  1625.97  1674.82  1706.72
                             1737.42  1808.66  1847.74  1955.35  2017.87
                             2034.01  2084.34  2094.01  2131.63  2156.44
                             2173.43  4361.67  4429.83  4453.27  4493.68
                             4501.72  4507.11  4614.36  4622.94  4643.13
                             5469.58

 Zero-point correction=                           0.157051 (Hartree/Particle)
 Thermal correction to Energy=                    0.165718
 Thermal correction to Enthalpy=                  0.166662
 Thermal correction to Gibbs Free Energy=         0.124292
 Sum of electronic and zero-point Energies=           -422.963266
 Sum of electronic and thermal Energies=              -422.954599
 Sum of electronic and thermal Enthalpies=            -422.953655
 Sum of electronic and thermal Free Energies=         -422.996025

                     E (Thermal)             CV                S
                      KCal/Mol        Cal/Mol-Kelvin    Cal/Mol-Kelvin
 Total                  103.990             33.925             89.177
 Electronic               0.000              0.000              0.000
 Translational            0.889              2.981             40.409
 Rotational               0.889              2.981             28.701
 Vibrational            102.212             27.964             20.067
 Vibration     1          0.608              1.937              3.175
 Vibration     2          0.632              1.858              2.257
 Vibration     3          0.638              1.840              2.136
 Vibration     4          0.649              1.805              1.927
 Vibration     5          0.656              1.784              1.825
 Vibration     6          0.700              1.651              1.353
 Vibration     7          0.724              1.584              1.186
 Vibration     8          0.744              1.529              1.071
 Vibration     9          0.776              1.443              0.917
 Vibration    10          0.819              1.335              0.762
 Vibration    11          0.858              1.243              0.651
 Vibration    12          0.950              1.048              0.463

 Normal termination of Gaussian 09 at Mon Jan 27 22:49:52 2020.
