 Gaussian 09, Revision D.01,
 Gaussian 09:  ES64L-G09RevD.01 24-Apr-2013

 -----------------------------
 # b3lyp 6-31G(2df,p) opt Freq
 -----------------------------

 -----
 titel
 -----
 Symbolic Z-matrix:
 Charge =  0 Multiplicity = 1

 SCF Done:  E(RB3LYP) =  -423.148175453     A.U. after   13 cycles
 Optimization completed.
    -- Stationary point found.
 Normal termination of Gaussian 09 at Mon Jan 27 12:15:14 2020.

 ----------------------------------------------------------------------
 #N Geom=AllCheck Guess=TCheck SCRF=Check GenChk RB3LYP/6-31G(2df,p) Fr
 eq
 ----------------------------------------------------------------------

 Structure from the checkpoint file:  "/scratch/puck/g09_d5aa05de-d8d4-4bff-b0d2-c695b774a692/Gau-35125.chk"
 -----
 titel
 -----
 Charge =  0 Multiplicity = 1

                         Standard orientation:
 ---------------------------------------------------------------------
 Center     Atomic      Atomic             Coordinates (Angstroms)
 Number     Number       Type             X           Y           Z
 ---------------------------------------------------------------------
      1          6           0       -1.154719   -1.120562   -0.000093
      2          8           0       -2.512309   -0.617000   -0.000012
      3          6           0       -2.066852    0.754880    0.000032
      4          6           0       -0.609668    0.304850   -0.000001
      5          6           0        0.537115    0.898981    0.759239
      6          6           0        1.640050   -0.066907    1.155741
      7          8           0        1.877666   -0.866970   -0.000052
      8          6           0        1.640085   -0.066733   -1.155731
      9          6           0        0.537136    0.899095   -0.759116
     10          1           0       -0.940322   -1.720988    0.892532
     11          1           0       -0.940378   -1.720844   -0.892829
     12          1           0       -2.402376    1.297802   -0.894189
     13          1           0       -2.402363    1.297743    0.894294
     14          1           0        0.392370    1.806230    1.335855
     15          1           0        2.542999    0.491672    1.451001
     16          1           0        1.376406   -0.750047    1.969802
     17          1           0        2.543042    0.491894   -1.450876
     18          1           0        1.376468   -0.749749   -1.969904
     19          1           0        0.392409    1.806430   -1.335601
 ---------------------------------------------------------------------

 SCF Done:  E(RB3LYP) =  -423.148175453     A.U. after    1 cycles

 The electronic state is 1-A.
 Alpha  occ. eigenvalues --  -19.14388 -19.12872 -10.23372 -10.23371 -10.23032
 Alpha  occ. eigenvalues --  -10.22664 -10.20234 -10.19823 -10.19800  -1.04276
 Alpha  occ. eigenvalues --   -1.03264  -0.86647  -0.74132  -0.69651  -0.69047
 Alpha  occ. eigenvalues --   -0.62527  -0.58366  -0.53266  -0.51896  -0.49446
 Alpha  occ. eigenvalues --   -0.48308  -0.46436  -0.44448  -0.42809  -0.41034
 Alpha  occ. eigenvalues --   -0.39422  -0.37093  -0.35395  -0.34598  -0.31139
 Alpha  occ. eigenvalues --   -0.29294  -0.27926  -0.25488  -0.24183
 Alpha virt. eigenvalues --    0.07332   0.08735   0.10337   0.10750   0.12266
 Alpha virt. eigenvalues --    0.13314   0.13407   0.14076   0.16206   0.16447
 Alpha virt. eigenvalues --    0.17749   0.18348   0.18483   0.20066   0.21146

 Mulliken charges:
               1
     1  C   -0.135870
     2  O   -0.278651
     3  C   -0.156384
     4  C    0.310360
     5  C   -0.149780
     6  C   -0.097597
     7  O   -0.253864
     8  C   -0.097597
     9  C   -0.149787
    10  H    0.104994
    11  H    0.104991
    12  H    0.099698
    13  H    0.099699
    14  H    0.091569
    15  H    0.095780
    16  H    0.112547
    17  H    0.095779
    18  H    0.112547
    19  H    0.091569
 Sum of Mulliken charges =   0.00000

 Dipole moment (field-independent basis, Debye):
    X=              1.2239    Y=              2.1100    Z=              0.0001  Tot=              2.4393
 Quadrupole moment (field-independent basis, Debye-Ang):
   XX=            -60.8718   YY=            -52.4636   ZZ=            -49.7829
   XY=             -0.4985   XZ=              0.0001   YZ=             -0.0001

  Exact polarizability:  80.960  -1.166  70.540   0.000   0.000  72.639
 Approx polarizability: 107.450  -0.281 106.062   0.000   0.000 109.071

                      1                      2                      3
                      A                      A                      A
 Frequencies --     92.3477               145.5845               185.7311
 Red. masses --      3.6675                 5.7898                 2.3926
 Frc consts  --      0.0184                 0.0723                 0.0486
 IR Inten    --      3.3678                 2.1882                 0.4876

                      4                      5                      6
                      A                      A                      A
 Frequencies --    260.6263               262.0691               399.0509
 Red. masses --      2.0929                 2.3406                 3.4082
 Frc consts  --      0.0838                 0.0947                 0.3198
 IR Inten    --      0.8643                 9.2336                 2.1059

                      7                      8                      9
                      A                      A                      A
 Frequencies --    436.2624               563.6747               679.4223
 Red. masses --      2.0252                 3.8788                 3.9167
 Frc consts  --      0.2271                 0.7261                 1.0653
 IR Inten    --      0.0262                 1.2999                 0.6120

                     10                     11                     12
                      A                      A                      A
 Frequencies --    738.8627               830.1567               846.3210
 Red. masses --      5.1246                 2.6102                 1.5733
 Frc consts  --      1.6483                 1.0598                 0.6639
 IR Inten    --      6.8026                 0.8219                 4.0433

                     13                     14                     15
                      A                      A                      A
 Frequencies --    865.7345               925.5125               953.6909
 Red. masses --      2.9526                 3.9124                 3.4358
 Frc consts  --      1.3038                 1.9745                 1.8412
 IR Inten    --     13.8353                11.3733                17.6711

                     16                     17                     18
                      A                      A                      A
 Frequencies --    968.0328               978.8915               985.6662
 Red. masses --      1.4898                 3.0492                 1.7618
 Frc consts  --      0.8226                 1.7215                 1.0085
 IR Inten    --      1.7996                20.9832                14.7749

                     19                     20                     21
                      A                      A                      A
 Frequencies --   1021.0286              1027.0227              1028.6402
 Red. masses --      2.0282                 1.2632                10.6321
 Frc consts  --      1.2458                 0.7850                 6.6282
 IR Inten    --      0.8710                 0.5235                86.0808

                     22                     23                     24
                      A                      A                      A
 Frequencies --   1103.5306              1104.2967              1116.0591
 Red. masses --      2.1853                 4.6785                 1.7062
 Frc consts  --      1.5680                 3.3614                 1.2522
 IR Inten    --      8.7588                50.4242                 6.0029

                     25                     26                     27
                      A                      A                      A
 Frequencies --   1131.7208              1150.1738              1164.3026
 Red. masses --      1.6708                 1.0692                 1.4050
 Frc consts  --      1.2608                 0.8334                 1.1222
 IR Inten    --      1.2759                 0.0136                 0.0398

                     28                     29                     30
                      A                      A                      A
 Frequencies --   1168.8434              1219.0592              1254.4360
 Red. masses --      3.1352                 1.1202                 1.1792
 Frc consts  --      2.5236                 0.9809                 1.0933
 IR Inten    --      4.2570                10.8234                 4.1351

                     31                     32                     33
                      A                      A                      A
 Frequencies --   1266.7396              1302.6428              1309.3848
 Red. masses --      1.7659                 1.7557                 1.3650
 Frc consts  --      1.6695                 1.7553                 1.3789
 IR Inten    --      0.7079                 5.0254                 0.4350

                     34                     35                     36
                      A                      A                      A
 Frequencies --   1352.1966              1361.2093              1396.1571
 Red. masses --      1.2901                 1.5566                 1.4799
 Frc consts  --      1.3898                 1.6993                 1.6996
 IR Inten    --      0.1504                19.2825                 3.4087

                     37                     38                     39
                      A                      A                      A
 Frequencies --   1474.5796              1508.1284              1510.6094
 Red. masses --      4.3013                 1.0854                 1.0849
 Frc consts  --      5.5104                 1.4544                 1.4586
 IR Inten    --      0.8130                 2.2030                 0.0060

                     40                     41                     42
                      A                      A                      A
 Frequencies --   1523.1109              1533.9701              2973.0809
 Red. masses --      1.0965                 1.1087                 1.0694
 Frc consts  --      1.4987                 1.5371                 5.5695
 IR Inten    --      0.1169                 0.5248                62.0426

                     43                     44                     45
                      A                      A                      A
 Frequencies --   2978.3969              2993.6258              3016.0661
 Red. masses --      1.0713                 1.0532                 1.0562
 Frc consts  --      5.5993                 5.5610                 5.6606
 IR Inten    --    102.5489               106.8307                24.3977

                     46                     47                     48
                      A                      A                      A
 Frequencies --   3033.9278              3054.7825              3068.7239
 Red. masses --      1.1107                 1.1106                 1.0918
 Frc consts  --      6.0235                 6.1063                 6.0577
 IR Inten    --     45.1910                29.2535                43.6181

                     49                     50                     51
                      A                      A                      A
 Frequencies --   3071.2720              3167.4988              3176.2663
 Red. masses --      1.0937                 1.0885                 1.0933
 Frc consts  --      6.0785                 6.4345                 6.4984
 IR Inten    --     26.6904                10.1718                12.8748

 - Thermochemistry -
 -------------------
 Temperature   298.150 Kelvin.  Pressure   1.00000 Atm.
 Atom     1 has atomic number  6 and mass  12.00000

 Molecular mass:   126.06808 amu.
 Principal axes and moments of inertia in atomic units:
                           1         2         3
     Eigenvalues --   510.394921413.693681461.50043
           X            0.99999  -0.00436   0.00000
           Y            0.00436   0.99999  -0.00001
           Z            0.00000   0.00001   1.00000
 This molecule is an asymmetric top.
 Rotational symmetry number  1.
 Warning -- assumption of classical behavior for rotation
           may cause significant error
 Rotational temperatures (Kelvin)      0.16970     0.06127     0.05926
 Rotational constants (GHZ):           3.53597     1.27661     1.23486
 Zero-point vibrational energy     422755.0 (Joules/Mol)
                                  101.04088 (Kcal/Mol)
 Warning -- explicit consideration of   8 degrees of freedom as
           vibrations may cause significant error
 Vibrational temperatures:    132.87   209.46   267.23   374.98   377.06
          (Kelvin)            574.14   627.68   811.00   977.54  1063.06
                             1194.41  1217.67  1245.60  1331.60  1372.15
                             1392.78  1408.40  1418.15  1469.03  1477.65
                             1479.98  1587.73  1588.83  1605.76  1628.29
                             1654.84  1675.17  1681.70  1753.95  1804.85
                             1822.55  1874.21  1883.91  1945.51  1958.47
                             2008.76  2121.59  2169.86  2173.43  2191.41
                             2207.04  4277.59  4285.24  4307.15  4339.44
                             4365.14  4395.15  4415.20  4418.87  4557.32
                             4569.93

 Zero-point correction=                           0.161019 (Hartree/Particle)
 Thermal correction to Energy=                    0.168540
 Thermal correction to Enthalpy=                  0.169485
 Thermal correction to Gibbs Free Energy=         0.128786
 Sum of electronic and zero-point Energies=           -422.987157
 Sum of electronic and thermal Energies=              -422.979635
 Sum of electronic and thermal Enthalpies=            -422.978691
 Sum of electronic and thermal Free Energies=         -423.019389

                     E (Thermal)             CV                S
                      KCal/Mol        Cal/Mol-Kelvin    Cal/Mol-Kelvin
 Total                  105.761             28.958             85.657
 Electronic               0.000              0.000              0.000
 Translational            0.889              2.981             40.409
 Rotational               0.889              2.981             28.446
 Vibrational            103.983             22.996             16.802
 Vibration     1          0.602              1.955              3.610
 Vibration     2          0.617              1.907              2.729
 Vibration     3          0.632              1.859              2.270
 Vibration     4          0.669              1.745              1.658
 Vibration     5          0.669              1.742              1.648
 Vibration     6          0.765              1.472              0.966
 Vibration     7          0.797              1.391              0.838
 Vibration     8          0.919              1.110              0.517

 Optimization completed.
    -- Stationary point found.
 Normal termination of Gaussian 09 at Mon Jan 27 13:00:12 2020.
