 Gaussian 09, Revision D.01,
 Gaussian 09:  ES64L-G09RevD.01 24-Apr-2013

 -----------------------------
 # b3lyp 6-31G(2df,p) opt Freq
 -----------------------------

 -----
 titel
 -----
 Symbolic Z-matrix:
 Charge =  0 Multiplicity = 1

 SCF Done:  E(RB3LYP) =  -423.198456313     A.U. after   14 cycles
 Optimization completed.
    -- Stationary point found.
 Normal termination of Gaussian 09 at Mon Jan 27 22:08:33 2020.

 ----------------------------------------------------------------------
 #N Geom=AllCheck Guess=TCheck SCRF=Check GenChk RB3LYP/6-31G(2df,p) Fr
 eq
 ----------------------------------------------------------------------

 Structure from the checkpoint file:  "/scratch/puck/g09_9850a2d3-01cf-4dc2-ab27-9d689c500048/Gau-51138.chk"
 -----
 titel
 -----
 Charge =  0 Multiplicity = 1

                         Standard orientation:
 ---------------------------------------------------------------------
 Center     Atomic      Atomic             Coordinates (Angstroms)
 Number     Number       Type             X           Y           Z
 ---------------------------------------------------------------------
      1          6           0       -0.494710    2.130602    0.246472
      2          6           0       -0.256198    0.805242   -0.474230
      3          6           0       -1.294456   -0.294686   -0.139982
      4          8           0       -2.492721   -0.210544   -0.175011
      5          6           0       -0.415024   -1.462202    0.279285
      6          6           0        0.566768   -0.714194    1.245079
      7          6           0        1.003633   -0.009871   -0.082383
      8          8           0        2.253316    0.576308   -0.252880
      9          6           0        0.732964   -1.361411   -0.781073
     10          1           0        0.229723    2.890463   -0.067506
     11          1           0       -1.494168    2.506187    0.010607
     12          1           0       -0.430620    2.026240    1.334538
     13          1           0       -0.262652    0.978671   -1.558027
     14          1           0       -0.903380   -2.397243    0.540706
     15          1           0        0.142819   -0.120684    2.059151
     16          1           0        1.345093   -1.379834    1.623312
     17          1           0        2.241102    1.450725    0.151168
     18          1           0        0.466040   -1.351977   -1.841342
     19          1           0        1.523423   -2.089539   -0.588485
 ---------------------------------------------------------------------

 SCF Done:  E(RB3LYP) =  -423.198456313     A.U. after    1 cycles

 The electronic state is 1-A.
 Alpha  occ. eigenvalues --  -19.15193 -19.13079 -10.26585 -10.25174 -10.20458
 Alpha  occ. eigenvalues --  -10.19731 -10.19718 -10.19644 -10.18938  -1.04294
 Alpha  occ. eigenvalues --   -1.03745  -0.89600  -0.77089  -0.68143  -0.67130
 Alpha  occ. eigenvalues --   -0.65840  -0.56454  -0.53147  -0.51702  -0.49350
 Alpha  occ. eigenvalues --   -0.46149  -0.44612  -0.42055  -0.40893  -0.39927
 Alpha  occ. eigenvalues --   -0.38489  -0.37938  -0.37619  -0.36178  -0.35156
 Alpha  occ. eigenvalues --   -0.32889  -0.31155  -0.27165  -0.23614
 Alpha virt. eigenvalues --   -0.00907   0.06041   0.09586   0.11504   0.12035
 Alpha virt. eigenvalues --    0.12777   0.14033   0.14937   0.16042   0.17483
 Alpha virt. eigenvalues --    0.17961   0.19409   0.19811   0.20923   0.21822

 Mulliken charges:
               1
     1  C   -0.441012
     2  C   -0.151907
     3  C    0.440855
     4  O   -0.344750
     5  C   -0.138564
     6  C   -0.307545
     7  C    0.413764
     8  O   -0.485399
     9  C   -0.276709
    10  H    0.113035
    11  H    0.146642
    12  H    0.122144
    13  H    0.100454
    14  H    0.087312
    15  H    0.103558
    16  H    0.114684
    17  H    0.283080
    18  H    0.105228
    19  H    0.115129
 Sum of Mulliken charges =   0.00000

 Dipole moment (field-independent basis, Debye):
    X=              1.9454    Y=              0.6350    Z=              0.7603  Tot=              2.1831
 Quadrupole moment (field-independent basis, Debye-Ang):
   XX=            -65.2390   YY=            -47.9718   ZZ=            -51.7496
   XY=              0.5610   XZ=              1.3748   YZ=              0.5622

  Exact polarizability:  78.649  -1.480  79.989   0.708  -0.175  65.800
 Approx polarizability: 123.400  -0.808 109.728   0.682  -0.374 101.858

                      1                      2                      3
                      A                      A                      A
 Frequencies --    117.8558               199.5964               208.7558
 Red. masses --      5.4482                 1.0431                 2.8851
 Frc consts  --      0.0446                 0.0245                 0.0741
 IR Inten    --      4.0448                 2.8237                 0.5200

                      4                      5                      6
                      A                      A                      A
 Frequencies --    238.4031               263.4478               313.1890
 Red. masses --      1.3610                 1.9173                 4.0440
 Frc consts  --      0.0456                 0.0784                 0.2337
 IR Inten    --     47.2537                26.3632                25.4403

                      7                      8                      9
                      A                      A                      A
 Frequencies --    359.3056               483.3829               500.1443
 Red. masses --      3.8781                 2.5666                 3.3609
 Frc consts  --      0.2950                 0.3533                 0.4953
 IR Inten    --      6.2666                 3.0623                 0.8495

                     10                     11                     12
                      A                      A                      A
 Frequencies --    511.1401               543.0925               675.0180
 Red. masses --      3.5042                 2.9855                 3.6594
 Frc consts  --      0.5394                 0.5188                 0.9824
 IR Inten    --      0.6703                 6.2055                 3.4309

                     13                     14                     15
                      A                      A                      A
 Frequencies --    696.2843               764.0216               784.9135
 Red. masses --      3.6980                 3.4520                 2.7255
 Frc consts  --      1.0563                 1.1872                 0.9893
 IR Inten    --      4.9766                 3.9367                 5.3455

                     16                     17                     18
                      A                      A                      A
 Frequencies --    845.6497               893.6544               943.8824
 Red. masses --      2.5111                 2.2963                 2.2846
 Frc consts  --      1.0580                 1.0805                 1.1992
 IR Inten    --      0.1527                21.5242                 8.5793

                     19                     20                     21
                      A                      A                      A
 Frequencies --    951.7926               966.0993              1008.1387
 Red. masses --      1.7358                 1.4296                 2.5473
 Frc consts  --      0.9265                 0.7862                 1.5253
 IR Inten    --      7.1040                 3.3781                10.3478

                     22                     23                     24
                      A                      A                      A
 Frequencies --   1021.9143              1073.2794              1092.0707
 Red. masses --      1.0866                 1.5267                 1.6074
 Frc consts  --      0.6686                 1.0362                 1.1295
 IR Inten    --      0.4586                 1.0424                 4.8164

                     25                     26                     27
                      A                      A                      A
 Frequencies --   1115.5672              1128.2888              1144.1617
 Red. masses --      1.7242                 1.7232                 2.1190
 Frc consts  --      1.2642                 1.2925                 1.6344
 IR Inten    --     33.9713                 2.7204                 6.2170

                     28                     29                     30
                      A                      A                      A
 Frequencies --   1192.2474              1219.3600              1229.8269
 Red. masses --      1.9440                 1.4475                 1.6777
 Frc consts  --      1.6281                 1.2680                 1.4951
 IR Inten    --     67.2825                 1.5501                 2.4788

                     31                     32                     33
                      A                      A                      A
 Frequencies --   1239.8961              1272.8808              1307.0716
 Red. masses --      1.9391                 2.2116                 1.7441
 Frc consts  --      1.7564                 2.1112                 1.7556
 IR Inten    --      6.4715                36.7266               108.1819

                     34                     35                     36
                      A                      A                      A
 Frequencies --   1355.2061              1380.1971              1407.2008
 Red. masses --      1.8300                 1.8883                 1.2331
 Frc consts  --      1.9802                 2.1193                 1.4386
 IR Inten    --     30.2026                14.4415                 3.6720

                     37                     38                     39
                      A                      A                      A
 Frequencies --   1484.0851              1497.4841              1504.3738
 Red. masses --      1.0882                 1.0499                 1.0540
 Frc consts  --      1.4121                 1.3871                 1.4054
 IR Inten    --      1.3468                 3.0804                 6.6866

                     40                     41                     42
                      A                      A                      A
 Frequencies --   1524.3804              1866.5336              3029.3362
 Red. masses --      1.1457                12.3168                 1.0825
 Frc consts  --      1.5686                25.2825                 5.8528
 IR Inten    --      9.1024               235.2096                 9.9067

                     43                     44                     45
                      A                      A                      A
 Frequencies --   3032.2048              3060.5010              3064.4126
 Red. masses --      1.0371                 1.0568                 1.0583
 Frc consts  --      5.6180                 5.8319                 5.8555
 IR Inten    --     22.6423                47.6038                 7.5422

                     46                     47                     48
                      A                      A                      A
 Frequencies --   3096.8192              3116.5591              3127.0918
 Red. masses --      1.0998                 1.0999                 1.1098
 Frc consts  --      6.2146                 6.2942                 6.3941
 IR Inten    --     25.4029                12.1246                14.0230

                     49                     50                     51
                      A                      A                      A
 Frequencies --   3130.1230              3159.2770              3807.9312
 Red. masses --      1.1079                 1.0916                 1.0657
 Frc consts  --      6.3956                 6.4195                 9.1049
 IR Inten    --     25.7441                20.4187                20.2500

 - Thermochemistry -
 -------------------
 Temperature   298.150 Kelvin.  Pressure   1.00000 Atm.
 Atom     1 has atomic number  6 and mass  12.00000

 Molecular mass:   126.06808 amu.
 Principal axes and moments of inertia in atomic units:
                           1         2         3
     Eigenvalues --   736.893891032.907871431.68884
           X            0.99859  -0.05296   0.00187
           Y            0.05294   0.99854   0.01054
           Z           -0.00243  -0.01043   0.99994
 This molecule is an asymmetric top.
 Rotational symmetry number  1.
 Warning -- assumption of classical behavior for rotation
           may cause significant error
 Rotational temperatures (Kelvin)      0.11754     0.08385     0.06050
 Rotational constants (GHZ):           2.44912     1.74724     1.26057
 Zero-point vibrational energy     418382.2 (Joules/Mol)
                                   99.99576 (Kcal/Mol)
 Warning -- explicit consideration of  11 degrees of freedom as
           vibrations may cause significant error
 Vibrational temperatures:    169.57   287.17   300.35   343.01   379.04
          (Kelvin)            450.61   516.96   695.48   719.60   735.42
                              781.39   971.20  1001.80  1099.26  1129.31
                             1216.70  1285.77  1358.03  1369.42  1390.00
                             1450.48  1470.30  1544.21  1571.24  1605.05
                             1623.35  1646.19  1715.38  1754.38  1769.44
                             1783.93  1831.39  1880.58  1949.84  1985.79
                             2024.65  2135.26  2154.54  2164.46  2193.24
                             2685.52  4358.53  4362.66  4403.37  4409.00
                             4455.63  4484.03  4499.18  4503.54  4545.49
                             5478.76

 Zero-point correction=                           0.159353 (Hartree/Particle)
 Thermal correction to Energy=                    0.167575
 Thermal correction to Enthalpy=                  0.168519
 Thermal correction to Gibbs Free Energy=         0.127068
 Sum of electronic and zero-point Energies=           -423.039103
 Sum of electronic and thermal Energies=              -423.030881
 Sum of electronic and thermal Enthalpies=            -423.029937
 Sum of electronic and thermal Free Energies=         -423.071388

                     E (Thermal)             CV                S
                      KCal/Mol        Cal/Mol-Kelvin    Cal/Mol-Kelvin
 Total                  105.155             32.502             87.241
 Electronic               0.000              0.000              0.000
 Translational            0.889              2.981             40.409
 Rotational               0.889              2.981             28.479
 Vibrational            103.377             26.540             18.353
 Vibration     1          0.608              1.934              3.135
 Vibration     2          0.638              1.840              2.137
 Vibration     3          0.642              1.827              2.055
 Vibration     4          0.656              1.782              1.815
 Vibration     5          0.670              1.740              1.639
 Vibration     6          0.701              1.649              1.345
 Vibration     7          0.734              1.556              1.125
 Vibration     8          0.840              1.287              0.701
 Vibration     9          0.856              1.250              0.658
 Vibration    10          0.866              1.225              0.631
 Vibration    11          0.898              1.155              0.559

 Normal termination of Gaussian 09 at Mon Jan 27 23:53:04 2020.
