 Gaussian 09, Revision D.01,
 Gaussian 09:  ES64L-G09RevD.01 24-Apr-2013

 -----------------------------
 # b3lyp 6-31G(2df,p) opt Freq
 -----------------------------

 -----
 titel
 -----
 Symbolic Z-matrix:
 Charge =  0 Multiplicity = 1

 SCF Done:  E(RB3LYP) =  -423.070256229     A.U. after   14 cycles
 Optimization completed.
    -- Stationary point found.
 Normal termination of Gaussian 09 at Tue Jan 28 13:28:38 2020.

 ----------------------------------------------------------------------
 #N Geom=AllCheck Guess=TCheck SCRF=Check GenChk RB3LYP/6-31G(2df,p) Fr
 eq
 ----------------------------------------------------------------------

 Structure from the checkpoint file:  "/scratch/puck/g09_4a2efbf0-8aee-46b4-bf28-8221047ec579/Gau-31059.chk"
 -----
 titel
 -----
 Charge =  0 Multiplicity = 1

                         Standard orientation:
 ---------------------------------------------------------------------
 Center     Atomic      Atomic             Coordinates (Angstroms)
 Number     Number       Type             X           Y           Z
 ---------------------------------------------------------------------
      1          6           0       -2.431755   -1.126702   -0.016732
      2          8           0       -2.088560    0.205297   -0.368504
      3          6           0       -1.098371    0.724501    0.459865
      4          6           0       -0.272683    1.865379   -0.097581
      5          6           0        0.329942    0.509564    0.110482
      6          6           0        1.535576   -0.090219    0.848151
      7          6           0        2.386961    0.105327   -0.431733
      8          6           0        1.012480   -0.494628   -0.824388
      9          8           0        1.133922   -1.426607    0.330132
     10          1           0       -2.936739   -1.162296    0.960787
     11          1           0       -3.119611   -1.493866   -0.781947
     12          1           0       -1.542619   -1.768239    0.029817
     13          1           0       -1.366782    0.769133    1.518167
     14          1           0       -0.491879    2.160231   -1.119065
     15          1           0       -0.013658    2.683181    0.567349
     16          1           0        1.821491   -0.020855    1.897792
     17          1           0        2.610297    1.126491   -0.748742
     18          1           0        3.231380   -0.577911   -0.530952
     19          1           0        0.672318   -0.904720   -1.774612
 ---------------------------------------------------------------------

 SCF Done:  E(RB3LYP) =  -423.070256228     A.U. after    1 cycles

 The electronic state is 1-A.
 Alpha  occ. eigenvalues --  -19.14219 -19.13280 -10.25137 -10.25042 -10.23384
 Alpha  occ. eigenvalues --  -10.21738 -10.20244 -10.19440 -10.18883  -1.05540
 Alpha  occ. eigenvalues --   -1.03521  -0.85385  -0.77250  -0.68371  -0.65461
 Alpha  occ. eigenvalues --   -0.63785  -0.59029  -0.52925  -0.52411  -0.50026
 Alpha  occ. eigenvalues --   -0.47562  -0.44408  -0.42893  -0.41759  -0.40825
 Alpha  occ. eigenvalues --   -0.39178  -0.35969  -0.34556  -0.33423  -0.31839
 Alpha  occ. eigenvalues --   -0.30357  -0.29179  -0.24135  -0.23729
 Alpha virt. eigenvalues --    0.07628   0.08653   0.11927   0.11962   0.12317
 Alpha virt. eigenvalues --    0.12613   0.14033   0.14209   0.15564   0.16145
 Alpha virt. eigenvalues --    0.17334   0.17802   0.18256   0.19350   0.20537

 Mulliken charges:
               1
     1  C   -0.246250
     2  O   -0.241408
     3  C    0.000734
     4  C   -0.429239
     5  C    0.437979
     6  C   -0.054822
     7  C   -0.217384
     8  C   -0.036438
     9  O   -0.311980
    10  H    0.104842
    11  H    0.122291
    12  H    0.132971
    13  H    0.083581
    14  H    0.129201
    15  H    0.117014
    16  H    0.097173
    17  H    0.102345
    18  H    0.106917
    19  H    0.102476
 Sum of Mulliken charges =   0.00000

 Dipole moment (field-independent basis, Debye):
    X=              0.7065    Y=              1.0375    Z=              0.2503  Tot=              1.2799
 Quadrupole moment (field-independent basis, Debye-Ang):
   XX=            -53.2823   YY=            -54.8269   ZZ=            -50.1190
   XY=              4.6221   XZ=             -1.3279   YZ=              2.1879

  Exact polarizability:  86.597   2.334  75.480  -0.812   1.087  68.516
 Approx polarizability: 111.457   1.549 114.572   1.611  -0.740 107.028

                      1                      2                      3
                      A                      A                      A
 Frequencies --    108.2991               128.5080               156.4263
 Red. masses --      3.3852                 3.6494                 2.3597
 Frc consts  --      0.0234                 0.0355                 0.0340
 IR Inten    --      2.8463                 3.2256                 3.7801

                      4                      5                      6
                      A                      A                      A
 Frequencies --    208.5963               224.7841               313.5928
 Red. masses --      1.6023                 2.1368                 2.4328
 Frc consts  --      0.0411                 0.0636                 0.1410
 IR Inten    --      0.6014                 3.2423                 0.3629

                      7                      8                      9
                      A                      A                      A
 Frequencies --    415.9777               442.8560               564.5787
 Red. masses --      3.4858                 2.8135                 3.3251
 Frc consts  --      0.3554                 0.3251                 0.6245
 IR Inten    --      1.7134                 1.9861                16.3237

                     10                     11                     12
                      A                      A                      A
 Frequencies --    589.0770               692.8842               747.1596
 Red. masses --      2.8511                 4.0829                 4.8396
 Frc consts  --      0.5829                 1.1549                 1.5918
 IR Inten    --      0.9998                 7.3196                 9.1881

                     13                     14                     15
                      A                      A                      A
 Frequencies --    779.8582               814.6354               869.5094
 Red. masses --      2.4020                 1.7904                 2.7606
 Frc consts  --      0.8607                 0.7001                 1.2297
 IR Inten    --      2.8865                 9.5545                24.3269

                     16                     17                     18
                      A                      A                      A
 Frequencies --    873.9661               916.2102               969.1855
 Red. masses --      2.0224                 2.4689                 2.6848
 Frc consts  --      0.9101                 1.2211                 1.4858
 IR Inten    --      1.6481                16.5154                 4.6732

                     19                     20                     21
                      A                      A                      A
 Frequencies --   1012.9347              1025.1060              1030.1145
 Red. masses --      2.2841                 1.7565                 1.2600
 Frc consts  --      1.3808                 1.0875                 0.7878
 IR Inten    --     21.3615                 2.6504                 1.6507

                     22                     23                     24
                      A                      A                      A
 Frequencies --   1064.9471              1069.6429              1107.2529
 Red. masses --      1.8926                 2.6124                 2.9046
 Frc consts  --      1.2646                 1.7610                 2.0981
 IR Inten    --      8.3523                30.4828                42.3564

                     25                     26                     27
                      A                      A                      A
 Frequencies --   1118.1594              1133.1825              1156.0119
 Red. masses --      1.4195                 1.7585                 1.7032
 Frc consts  --      1.0457                 1.3304                 1.3411
 IR Inten    --      5.6325                 0.5901                 9.6517

                     28                     29                     30
                      A                      A                      A
 Frequencies --   1170.3305              1180.0138              1191.1190
 Red. masses --      1.3026                 2.5529                 1.2872
 Frc consts  --      1.0511                 2.0944                 1.0760
 IR Inten    --      0.3337                50.7795                 2.4343

                     31                     32                     33
                      A                      A                      A
 Frequencies --   1213.6360              1230.0769              1252.7298
 Red. masses --      1.6113                 1.6396                 1.9617
 Frc consts  --      1.3983                 1.4617                 1.8139
 IR Inten    --     12.3593                14.0255                32.7035

                     34                     35                     36
                      A                      A                      A
 Frequencies --   1263.8072              1356.2687              1423.7699
 Red. masses --      1.5146                 1.4491                 1.3647
 Frc consts  --      1.4253                 1.5705                 1.6299
 IR Inten    --      4.8127                21.4839                 8.9870

                     37                     38                     39
                      A                      A                      A
 Frequencies --   1472.3920              1481.7614              1486.5131
 Red. masses --      1.2242                 1.1531                 1.0643
 Frc consts  --      1.5637                 1.4917                 1.3856
 IR Inten    --      4.9454                 1.9677                 2.7553

                     40                     41                     42
                      A                      A                      A
 Frequencies --   1511.1954              1521.8332              2986.5456
 Red. masses --      1.6655                 1.3142                 1.0411
 Frc consts  --      2.2410                 1.7932                 5.4712
 IR Inten    --     29.0033                 1.8326                63.5370

                     43                     44                     45
                      A                      A                      A
 Frequencies --   3053.8650              3067.9617              3070.7450
 Red. masses --      1.0948                 1.0545                 1.0864
 Frc consts  --      6.0157                 5.8480                 6.0359
 IR Inten    --     32.2853                35.9008                27.0402

                     46                     47                     48
                      A                      A                      A
 Frequencies --   3120.6230              3121.6664              3125.4923
 Red. masses --      1.0920                 1.1010                 1.0544
 Frc consts  --      6.2655                 6.3214                 6.0686
 IR Inten    --     61.9858                26.7492                 8.4593

                     49                     50                     51
                      A                      A                      A
 Frequencies --   3130.3917              3150.7726              3213.5989
 Red. masses --      1.0953                 1.1114                 1.1162
 Frc consts  --      6.3238                 6.5009                 6.7919
 IR Inten    --     16.3868                24.7298                 5.2176

 - Thermochemistry -
 -------------------
 Temperature   298.150 Kelvin.  Pressure   1.00000 Atm.
 Atom     1 has atomic number  6 and mass  12.00000

 Molecular mass:   126.06808 amu.
 Principal axes and moments of inertia in atomic units:
                           1         2         3
     Eigenvalues --   581.982991322.626791627.51884
           X            0.99899   0.04360  -0.01098
           Y           -0.04345   0.99896   0.01386
           Z            0.01157  -0.01337   0.99984
 This molecule is an asymmetric top.
 Rotational symmetry number  1.
 Warning -- assumption of classical behavior for rotation
           may cause significant error
 Rotational temperatures (Kelvin)      0.14883     0.06549     0.05322
 Rotational constants (GHZ):           3.10102     1.36451     1.10889
 Zero-point vibrational energy     414688.9 (Joules/Mol)
                                   99.11302 (Kcal/Mol)
 Warning -- explicit consideration of  10 degrees of freedom as
           vibrations may cause significant error
 Vibrational temperatures:    155.82   184.89   225.06   300.12   323.41
          (Kelvin)            451.19   598.50   637.17   812.30   847.55
                              996.90  1074.99  1122.04  1172.08  1251.03
                             1257.44  1318.22  1394.44  1457.39  1474.90
                             1482.10  1532.22  1538.98  1593.09  1608.78
                             1630.39  1663.24  1683.84  1697.77  1713.75
                             1746.15  1769.80  1802.40  1818.33  1951.37
                             2048.48  2118.44  2131.92  2138.76  2174.27
                             2189.58  4296.97  4393.83  4414.11  4418.11
                             4489.87  4491.38  4496.88  4503.93  4533.25
                             4623.65

 Zero-point correction=                           0.157947 (Hartree/Particle)
 Thermal correction to Energy=                    0.166178
 Thermal correction to Enthalpy=                  0.167122
 Thermal correction to Gibbs Free Energy=         0.125098
 Sum of electronic and zero-point Energies=           -422.912310
 Sum of electronic and thermal Energies=              -422.904079
 Sum of electronic and thermal Enthalpies=            -422.903134
 Sum of electronic and thermal Free Energies=         -422.945158

                     E (Thermal)             CV                S
                      KCal/Mol        Cal/Mol-Kelvin    Cal/Mol-Kelvin
 Total                  104.278             31.528             88.446
 Electronic               0.000              0.000              0.000
 Translational            0.889              2.981             40.409
 Rotational               0.889              2.981             28.618
 Vibrational            102.501             25.567             19.420
 Vibration     1          0.606              1.943              3.299
 Vibration     2          0.611              1.925              2.968
 Vibration     3          0.620              1.895              2.593
 Vibration     4          0.642              1.828              2.056
 Vibration     5          0.649              1.803              1.920
 Vibration     6          0.701              1.648              1.343
 Vibration     7          0.779              1.436              0.906
 Vibration     8          0.802              1.377              0.818
 Vibration     9          0.920              1.108              0.515
 Vibration    10          0.946              1.055              0.469

 Optimization completed.
    -- Stationary point found.
 Normal termination of Gaussian 09 at Tue Jan 28 14:11:17 2020.
