 Gaussian 09, Revision D.01,
 Gaussian 09:  ES64L-G09RevD.01 24-Apr-2013

 -----------------------------
 # b3lyp 6-31G(2df,p) opt Freq
 -----------------------------

 -----
 titel
 -----
 Symbolic Z-matrix:
 Charge =  0 Multiplicity = 1

 SCF Done:  E(RB3LYP) =  -423.203101410     A.U. after   14 cycles
 Optimization completed.
    -- Stationary point found.
 Normal termination of Gaussian 09 at Tue Jan 28 09:47:43 2020.

 ----------------------------------------------------------------------
 #N Geom=AllCheck Guess=TCheck SCRF=Check GenChk RB3LYP/6-31G(2df,p) Fr
 eq
 ----------------------------------------------------------------------

 Structure from the checkpoint file:  "/scratch/puck/g09_d110ad4d-171a-4d9f-9748-22585b2757a6/Gau-18627.chk"
 -----
 titel
 -----
 Charge =  0 Multiplicity = 1

                         Standard orientation:
 ---------------------------------------------------------------------
 Center     Atomic      Atomic             Coordinates (Angstroms)
 Number     Number       Type             X           Y           Z
 ---------------------------------------------------------------------
      1          8           0       -2.304866   -1.079692    0.716658
      2          6           0       -2.119527   -0.098139   -0.296962
      3          6           0       -0.653357    0.225876   -0.376848
      4          6           0       -0.220844    1.599519   -0.828577
      5          6           0       -0.002648    1.189298    0.608020
      6          6           0        1.369795    0.671598    0.981963
      7          6           0        1.642427   -0.487253    0.007921
      8          8           0        2.718809   -0.979310   -0.206845
      9          6           0        0.320126   -0.907674   -0.646558
     10          1           0       -3.199802   -1.423758    0.644105
     11          1           0       -2.475866   -0.469210   -1.271495
     12          1           0       -2.685975    0.819305   -0.069317
     13          1           0        0.639018    1.681898   -1.488377
     14          1           0       -0.997039    2.331633   -1.026051
     15          1           0       -0.609337    1.663791    1.370909
     16          1           0        2.176952    1.408314    0.924778
     17          1           0        1.376624    0.264092    2.001304
     18          1           0        0.480302   -1.140838   -1.703904
     19          1           0       -0.032241   -1.822560   -0.154203
 ---------------------------------------------------------------------

 SCF Done:  E(RB3LYP) =  -423.203101410     A.U. after    1 cycles

 The electronic state is 1-A.
 Alpha  occ. eigenvalues --  -19.14198 -19.12466 -10.26434 -10.23630 -10.20102
 Alpha  occ. eigenvalues --  -10.19616 -10.19194 -10.18867 -10.18493  -1.03607
 Alpha  occ. eigenvalues --   -1.02257  -0.88980  -0.75015  -0.73434  -0.68634
 Alpha  occ. eigenvalues --   -0.59466  -0.54754  -0.53450  -0.51674  -0.49406
 Alpha  occ. eigenvalues --   -0.45859  -0.44991  -0.43036  -0.42147  -0.40904
 Alpha  occ. eigenvalues --   -0.40597  -0.37662  -0.36482  -0.34491  -0.33920
 Alpha  occ. eigenvalues --   -0.29187  -0.28196  -0.26997  -0.23599
 Alpha virt. eigenvalues --   -0.01152   0.06672   0.09549   0.11366   0.12000
 Alpha virt. eigenvalues --    0.12430   0.14648   0.15563   0.16252   0.16498
 Alpha virt. eigenvalues --    0.18291   0.19242   0.20256   0.21317   0.22292

 Mulliken charges:
               1
     1  O   -0.421846
     2  C   -0.179325
     3  C    0.363333
     4  C   -0.355272
     5  C   -0.066704
     6  C   -0.331370
     7  C    0.378644
     8  O   -0.306996
     9  C   -0.391843
    10  H    0.289769
    11  H    0.089688
    12  H    0.083718
    13  H    0.116130
    14  H    0.112968
    15  H    0.091247
    16  H    0.127566
    17  H    0.133236
    18  H    0.121354
    19  H    0.145704
 Sum of Mulliken charges =   0.00000

 Dipole moment (field-independent basis, Debye):
    X=             -3.6764    Y=              1.2706    Z=             -0.2357  Tot=              3.8969
 Quadrupole moment (field-independent basis, Debye-Ang):
   XX=            -54.8633   YY=            -52.9965   ZZ=            -52.3183
   XY=              5.4654   XZ=              2.3414   YZ=              0.2957

  Exact polarizability:  85.663  -0.175  73.209   1.949   1.614  67.358
 Approx polarizability: 118.238  -2.233 107.618  -0.004   2.144 103.614

                      1                      2                      3
                      A                      A                      A
 Frequencies --     77.8333               102.3272               172.4833
 Red. masses --      4.9027                 3.5049                 3.2046
 Frc consts  --      0.0175                 0.0216                 0.0562
 IR Inten    --      2.9241                 2.0715                 6.1758

                      4                      5                      6
                      A                      A                      A
 Frequencies --    239.7824               265.9129               318.1004
 Red. masses --      1.4033                 1.7532                 2.1809
 Frc consts  --      0.0475                 0.0730                 0.1300
 IR Inten    --     45.4660                46.5150                 9.8319

                      7                      8                      9
                      A                      A                      A
 Frequencies --    381.8134               461.0499               478.2491
 Red. masses --      1.9753                 2.7417                 3.2249
 Frc consts  --      0.1697                 0.3434                 0.4346
 IR Inten    --      1.0181                 2.9105                 3.4649

                     10                     11                     12
                      A                      A                      A
 Frequencies --    508.7315               551.9751               625.8652
 Red. masses --      3.6727                 4.0344                 4.1072
 Frc consts  --      0.5600                 0.7242                 0.9479
 IR Inten    --      6.5073                 9.2223                 1.5812

                     13                     14                     15
                      A                      A                      A
 Frequencies --    716.0049               787.6728               813.8964
 Red. masses --      2.3583                 3.8637                 2.0945
 Frc consts  --      0.7123                 1.4124                 0.8175
 IR Inten    --      1.4316                 5.8583                 5.4153

                     16                     17                     18
                      A                      A                      A
 Frequencies --    837.0568               902.9473               922.2380
 Red. masses --      1.5671                 2.6722                 1.4574
 Frc consts  --      0.6469                 1.2836                 0.7303
 IR Inten    --      1.9061                 8.4057                 2.2620

                     19                     20                     21
                      A                      A                      A
 Frequencies --    960.3332              1004.3088              1045.7130
 Red. masses --      1.6279                 1.8861                 2.0021
 Frc consts  --      0.8845                 1.1208                 1.2899
 IR Inten    --      8.7401                 4.4221                 5.8193

                     22                     23                     24
                      A                      A                      A
 Frequencies --   1058.3096              1069.8579              1074.1335
 Red. masses --      1.5903                 1.3671                 3.2291
 Frc consts  --      1.0494                 0.9219                 2.1951
 IR Inten    --     15.0639                15.8993                78.4361

                     25                     26                     27
                      A                      A                      A
 Frequencies --   1100.4078              1147.1662              1161.7131
 Red. masses --      1.8979                 2.4486                 1.6499
 Frc consts  --      1.3540                 1.8985                 1.3119
 IR Inten    --      5.0891                42.5138                14.7210

                     28                     29                     30
                      A                      A                      A
 Frequencies --   1203.7335              1222.4677              1243.9532
 Red. masses --      1.3117                 1.3948                 1.2615
 Frc consts  --      1.1198                 1.2281                 1.1502
 IR Inten    --     10.5523                 4.0776                15.1919

                     31                     32                     33
                      A                      A                      A
 Frequencies --   1253.2564              1285.2270              1315.3558
 Red. masses --      1.3456                 1.7814                 1.6488
 Frc consts  --      1.2452                 1.7337                 1.6807
 IR Inten    --     22.3821                10.0964                11.4493

                     34                     35                     36
                      A                      A                      A
 Frequencies --   1352.5945              1397.4768              1450.6178
 Red. masses --      2.2830                 1.7828                 1.0983
 Frc consts  --      2.4609                 2.0514                 1.3617
 IR Inten    --      3.4970                 2.4432                 6.9819

                     37                     38                     39
                      A                      A                      A
 Frequencies --   1456.3976              1464.4869              1495.3322
 Red. masses --      1.0967                 1.6135                 1.3517
 Frc consts  --      1.3706                 2.0389                 1.7808
 IR Inten    --      1.6344                14.8097                 3.2165

                     40                     41                     42
                      A                      A                      A
 Frequencies --   1514.1982              1847.7295              2962.0993
 Red. masses --      1.0848                12.6940                 1.0549
 Frc consts  --      1.4655                25.5344                 5.4532
 IR Inten    --      1.9086               224.6847                63.5193

                     43                     44                     45
                      A                      A                      A
 Frequencies --   2991.5470              3034.2145              3041.8135
 Red. masses --      1.1065                 1.0635                 1.0603
 Frc consts  --      5.8344                 5.7689                 5.7802
 IR Inten    --     55.2687                12.9454                14.3502

                     46                     47                     48
                      A                      A                      A
 Frequencies --   3086.6062              3088.5853              3116.6948
 Red. masses --      1.0975                 1.1012                 1.0556
 Frc consts  --      6.1606                 6.1894                 6.0414
 IR Inten    --     11.9308                 8.3383                12.6413

                     49                     50                     51
                      A                      A                      A
 Frequencies --   3173.6504              3202.4204              3832.7879
 Red. masses --      1.0916                 1.1143                 1.0664
 Frc consts  --      6.4776                 6.7328                 9.2300
 IR Inten    --      9.3891                12.0507                24.0961

 - Thermochemistry -
 -------------------
 Temperature   298.150 Kelvin.  Pressure   1.00000 Atm.
 Atom     1 has atomic number  8 and mass  15.99491

 Molecular mass:   126.06808 amu.
 Principal axes and moments of inertia in atomic units:
                           1         2         3
     Eigenvalues --   632.480131454.321051687.39089
           X            0.99974   0.01715   0.01530
           Y           -0.01741   0.99971   0.01675
           Z           -0.01500  -0.01701   0.99974
 This molecule is an asymmetric top.
 Rotational symmetry number  1.
 Warning -- assumption of classical behavior for rotation
           may cause significant error
 Rotational temperatures (Kelvin)      0.13694     0.05956     0.05133
 Rotational constants (GHZ):           2.85344     1.24095     1.06955
 Zero-point vibrational energy     417611.1 (Joules/Mol)
                                   99.81146 (Kcal/Mol)
 Warning -- explicit consideration of  11 degrees of freedom as
           vibrations may cause significant error
 Vibrational temperatures:    111.98   147.23   248.16   344.99   382.59
          (Kelvin)            457.67   549.34   663.35   688.09   731.95
                              794.17   900.48  1030.17  1133.28  1171.01
                             1204.34  1299.14  1326.89  1381.70  1444.97
                             1504.55  1522.67  1539.28  1545.44  1583.24
                             1650.51  1671.44  1731.90  1758.86  1789.77
                             1803.15  1849.15  1892.50  1946.08  2010.65
                             2087.11  2095.43  2107.07  2151.45  2178.59
                             2658.47  4261.79  4304.16  4365.55  4376.49
                             4440.93  4443.78  4484.22  4566.17  4607.56
                             5514.52

 Zero-point correction=                           0.159060 (Hartree/Particle)
 Thermal correction to Energy=                    0.167565
 Thermal correction to Enthalpy=                  0.168510
 Thermal correction to Gibbs Free Energy=         0.125770
 Sum of electronic and zero-point Energies=           -423.044042
 Sum of electronic and thermal Energies=              -423.035536
 Sum of electronic and thermal Enthalpies=            -423.034592
 Sum of electronic and thermal Free Energies=         -423.077331

                     E (Thermal)             CV                S
                      KCal/Mol        Cal/Mol-Kelvin    Cal/Mol-Kelvin
 Total                  105.149             32.554             89.953
 Electronic               0.000              0.000              0.000
 Translational            0.889              2.981             40.409
 Rotational               0.889              2.981             28.830
 Vibrational            103.371             26.592             20.714
 Vibration     1          0.599              1.964              3.945
 Vibration     2          0.604              1.947              3.410
 Vibration     3          0.626              1.876              2.408
 Vibration     4          0.657              1.780              1.804
 Vibration     5          0.672              1.736              1.623
 Vibration     6          0.705              1.639              1.320
 Vibration     7          0.751              1.509              1.032
 Vibration     8          0.819              1.336              0.763
 Vibration     9          0.835              1.298              0.715
 Vibration    10          0.864              1.231              0.637
 Vibration    11          0.907              1.135              0.540

 Optimization completed.
    -- Stationary point found.
 Normal termination of Gaussian 09 at Tue Jan 28 10:30:43 2020.
