 Gaussian 09, Revision D.01,
 Gaussian 09:  ES64L-G09RevD.01 24-Apr-2013

 -----------------------------
 # b3lyp 6-31G(2df,p) opt Freq
 -----------------------------

 -----
 titel
 -----
 Symbolic Z-matrix:
 Charge =  0 Multiplicity = 1

 SCF Done:  E(RB3LYP) =  -423.196787206     A.U. after   14 cycles
 Optimization completed.
    -- Stationary point found.
 Normal termination of Gaussian 09 at Tue Jan 28 03:21:48 2020.

 ----------------------------------------------------------------------
 #N Geom=AllCheck Guess=TCheck SCRF=Check GenChk RB3LYP/6-31G(2df,p) Fr
 eq
 ----------------------------------------------------------------------

 Structure from the checkpoint file:  "/scratch/puck/g09_41765885-87be-444a-8ed4-a3e04b754a58/Gau-173914.chk"
 -----
 titel
 -----
 Charge =  0 Multiplicity = 1

                         Standard orientation:
 ---------------------------------------------------------------------
 Center     Atomic      Atomic             Coordinates (Angstroms)
 Number     Number       Type             X           Y           Z
 ---------------------------------------------------------------------
      1          6           0       -2.143953   -1.294033    0.352107
      2          6           0       -0.958131   -0.637625   -0.343429
      3          8           0        0.233710   -1.288319    0.093951
      4          6           0        1.374693   -0.757405   -0.516352
      5          6           0        2.464828   -0.300386    0.401578
      6          6           0        1.577790    0.719606   -0.282005
      7          6           0        0.431269    1.383442    0.473432
      8          6           0       -0.904821    0.873376   -0.054799
      9          8           0       -1.864531    1.581468   -0.245997
     10          1           0       -3.062359   -0.775943    0.070097
     11          1           0       -2.214925   -2.346064    0.066344
     12          1           0       -2.025886   -1.238120    1.438359
     13          1           0       -1.067991   -0.749001   -1.435412
     14          1           0        1.626240   -1.202097   -1.478876
     15          1           0        2.314358   -0.471028    1.462156
     16          1           0        3.489847   -0.395806    0.061544
     17          1           0        2.013967    1.304426   -1.084668
     18          1           0        0.477226    1.134625    1.541208
     19          1           0        0.446046    2.471960    0.392415
 ---------------------------------------------------------------------

 SCF Done:  E(RB3LYP) =  -423.196787206     A.U. after    1 cycles

 The electronic state is 1-A.
 Alpha  occ. eigenvalues --  -19.15256 -19.13135 -10.26763 -10.24178 -10.24112
 Alpha  occ. eigenvalues --  -10.20406 -10.19758 -10.19454 -10.18095  -1.05500
 Alpha  occ. eigenvalues --   -1.03822  -0.86427  -0.77913  -0.73899  -0.63973
 Alpha  occ. eigenvalues --   -0.60790  -0.59805  -0.53682  -0.51556  -0.50062
 Alpha  occ. eigenvalues --   -0.46733  -0.45431  -0.42049  -0.41802  -0.40535
 Alpha  occ. eigenvalues --   -0.39291  -0.38219  -0.37034  -0.36800  -0.34036
 Alpha  occ. eigenvalues --   -0.32011  -0.28926  -0.27962  -0.22669
 Alpha virt. eigenvalues --   -0.01694   0.08338   0.10097   0.11115   0.12444
 Alpha virt. eigenvalues --    0.13277   0.14099   0.14729   0.15684   0.16764
 Alpha virt. eigenvalues --    0.17718   0.18409   0.19139   0.21593   0.22963

 Mulliken charges:
               1
     1  C   -0.402266
     2  C    0.035349
     3  O   -0.261526
     4  C    0.104299
     5  C   -0.315979
     6  C   -0.064021
     7  C   -0.333394
     8  C    0.371220
     9  O   -0.316230
    10  H    0.143795
    11  H    0.125379
    12  H    0.125781
    13  H    0.095703
    14  H    0.088474
    15  H    0.124863
    16  H    0.117669
    17  H    0.100625
    18  H    0.131907
    19  H    0.128352
 Sum of Mulliken charges =   0.00000

 Dipole moment (field-independent basis, Debye):
    X=              2.0237    Y=             -0.6293    Z=             -0.2368  Tot=              2.1325
 Quadrupole moment (field-independent basis, Debye-Ang):
   XX=            -54.0403   YY=            -57.4150   ZZ=            -50.5938
   XY=              5.5580   XZ=             -1.6564   YZ=              1.6362

  Exact polarizability:  89.140  -0.496  73.521   1.258   0.833  62.909
 Approx polarizability: 118.673  -7.135 108.712   4.214  -1.347  97.811

                      1                      2                      3
                      A                      A                      A
 Frequencies --     60.0488               142.6337               215.2904
 Red. masses --      3.7372                 2.9914                 1.0566
 Frc consts  --      0.0079                 0.0359                 0.0289
 IR Inten    --      4.5146                 0.9897                 0.4171

                      4                      5                      6
                      A                      A                      A
 Frequencies --    256.0062               294.8125               332.9716
 Red. masses --      2.6706                 2.8393                 3.4969
 Frc consts  --      0.1031                 0.1454                 0.2284
 IR Inten    --      3.1564                 0.6129                 8.1009

                      7                      8                      9
                      A                      A                      A
 Frequencies --    420.4155               450.9168               476.2550
 Red. masses --      4.4050                 2.7470                 3.3843
 Frc consts  --      0.4587                 0.3291                 0.4523
 IR Inten    --     10.4234                 1.7215                 3.5641

                     10                     11                     12
                      A                      A                      A
 Frequencies --    502.6923               598.9794               709.9436
 Red. masses --      4.5672                 2.9667                 2.9740
 Frc consts  --      0.6800                 0.6271                 0.8832
 IR Inten    --      2.3328                 3.4591                 1.4812

                     13                     14                     15
                      A                      A                      A
 Frequencies --    737.1602               813.0416               816.5112
 Red. masses --      3.2626                 2.5466                 1.6741
 Frc consts  --      1.0446                 0.9918                 0.6576
 IR Inten    --      3.4067                 9.8325                10.2436

                     16                     17                     18
                      A                      A                      A
 Frequencies --    861.4741               885.2624               936.2963
 Red. masses --      2.0090                 1.7163                 2.0517
 Frc consts  --      0.8784                 0.7925                 1.0597
 IR Inten    --      1.2554                 1.3676                 6.5564

                     19                     20                     21
                      A                      A                      A
 Frequencies --    993.1743              1028.4419              1046.3936
 Red. masses --      1.5915                 2.3076                 1.3353
 Frc consts  --      0.9249                 1.4380                 0.8615
 IR Inten    --      4.8978                16.7474                11.3215

                     22                     23                     24
                      A                      A                      A
 Frequencies --   1074.4931              1088.1857              1117.5470
 Red. masses --      2.0032                 2.0905                 1.4315
 Frc consts  --      1.3626                 1.4585                 1.0534
 IR Inten    --     28.1695                 6.0082                 2.9236

                     25                     26                     27
                      A                      A                      A
 Frequencies --   1126.8877              1146.7203              1175.6748
 Red. masses --      2.1790                 2.6820                 2.0940
 Frc consts  --      1.6303                 2.0779                 1.7053
 IR Inten    --     25.9267                28.8655                41.0231

                     28                     29                     30
                      A                      A                      A
 Frequencies --   1200.2676              1226.3416              1237.1829
 Red. masses --      2.2177                 1.6778                 1.5301
 Frc consts  --      1.8824                 1.4866                 1.3798
 IR Inten    --     19.2422                17.3577                28.7806

                     31                     32                     33
                      A                      A                      A
 Frequencies --   1289.0016              1327.5474              1329.4073
 Red. masses --      1.4175                 1.5502                 1.3294
 Frc consts  --      1.3877                 1.6096                 1.3842
 IR Inten    --      1.9640                12.3366                17.1310

                     34                     35                     36
                      A                      A                      A
 Frequencies --   1372.4373              1396.6868              1405.9136
 Red. masses --      1.5295                 1.2481                 1.5625
 Frc consts  --      1.6974                 1.4345                 1.8196
 IR Inten    --      2.8686                11.3057                 8.6686

                     37                     38                     39
                      A                      A                      A
 Frequencies --   1449.6166              1479.6421              1485.8819
 Red. masses --      1.1044                 1.3448                 1.0522
 Frc consts  --      1.3673                 1.7346                 1.3687
 IR Inten    --      3.7426                10.1879                 9.7325

                     40                     41                     42
                      A                      A                      A
 Frequencies --   1497.9895              1819.6632              2963.6502
 Red. masses --      1.0576                12.1313                 1.0814
 Frc consts  --      1.3982                23.6667                 5.5963
 IR Inten    --      2.3552               161.5847                28.1581

                     43                     44                     45
                      A                      A                      A
 Frequencies --   3034.3130              3051.7708              3103.6547
 Red. masses --      1.0666                 1.0350                 1.0877
 Frc consts  --      5.7858                 5.6795                 6.1732
 IR Inten    --      7.5570                15.7517                35.3516

                     46                     47                     48
                      A                      A                      A
 Frequencies --   3115.8909              3124.7945              3136.0071
 Red. masses --      1.0953                 1.1017                 1.0550
 Frc consts  --      6.2655                 6.3383                 6.1131
 IR Inten    --      7.2302                18.3313                 9.5971

                     49                     50                     51
                      A                      A                      A
 Frequencies --   3147.7461              3166.2656              3226.7532
 Red. masses --      1.1021                 1.0906                 1.1170
 Frc consts  --      6.4340                 6.4417                 6.8523
 IR Inten    --      7.4653                13.5786                 7.9821

 - Thermochemistry -
 -------------------
 Temperature   298.150 Kelvin.  Pressure   1.00000 Atm.
 Atom     1 has atomic number  6 and mass  12.00000

 Molecular mass:   126.06808 amu.
 Principal axes and moments of inertia in atomic units:
                           1         2         3
     Eigenvalues --   647.708741180.243851648.95967
           X            0.99744   0.07132  -0.00601
           Y           -0.07125   0.99741   0.01028
           Z            0.00673  -0.00982   0.99993
 This molecule is an asymmetric top.
 Rotational symmetry number  1.
 Warning -- assumption of classical behavior for rotation
           may cause significant error
 Rotational temperatures (Kelvin)      0.13372     0.07339     0.05253
 Rotational constants (GHZ):           2.78635     1.52913     1.09447
 Zero-point vibrational energy     418074.8 (Joules/Mol)
                                   99.92228 (Kcal/Mol)
 Warning -- explicit consideration of  11 degrees of freedom as
           vibrations may cause significant error
 Vibrational temperatures:     86.40   205.22   309.75   368.34   424.17
          (Kelvin)            479.07   604.88   648.77   685.22   723.26
                              861.80  1021.45  1060.61  1169.78  1174.78
                             1239.47  1273.69  1347.12  1428.95  1479.70
                             1505.53  1545.95  1565.65  1607.90  1621.34
                             1649.87  1691.53  1726.92  1764.43  1780.03
                             1854.58  1910.04  1912.72  1974.63  2009.52
                             2022.79  2085.67  2128.87  2137.85  2155.27
                             2618.09  4264.03  4365.69  4390.81  4465.46
                             4483.07  4495.88  4512.01  4528.90  4555.54
                             4642.57

 Zero-point correction=                           0.159236 (Hartree/Particle)
 Thermal correction to Energy=                    0.167426
 Thermal correction to Enthalpy=                  0.168370
 Thermal correction to Gibbs Free Energy=         0.126355
 Sum of electronic and zero-point Energies=           -423.037551
 Sum of electronic and thermal Energies=              -423.029361
 Sum of electronic and thermal Enthalpies=            -423.028417
 Sum of electronic and thermal Free Energies=         -423.070432

                     E (Thermal)             CV                S
                      KCal/Mol        Cal/Mol-Kelvin    Cal/Mol-Kelvin
 Total                  105.061             31.739             88.429
 Electronic               0.000              0.000              0.000
 Translational            0.889              2.981             40.409
 Rotational               0.889              2.981             28.624
 Vibrational            103.284             25.778             19.396
 Vibration     1          0.597              1.973              4.456
 Vibration     2          0.616              1.911              2.768
 Vibration     3          0.645              1.818              1.998
 Vibration     4          0.666              1.753              1.689
 Vibration     5          0.689              1.683              1.446
 Vibration     6          0.715              1.610              1.246
 Vibration     7          0.783              1.426              0.891
 Vibration     8          0.810              1.359              0.793
 Vibration     9          0.833              1.303              0.720
 Vibration    10          0.858              1.244              0.651
 Vibration    11          0.957              1.034              0.451

 Optimization completed.
    -- Stationary point found.
 Normal termination of Gaussian 09 at Tue Jan 28 03:56:49 2020.
