 Gaussian 09, Revision D.01,
 Gaussian 09:  ES64L-G09RevD.01 24-Apr-2013

 -----------------------------
 # b3lyp 6-31G(2df,p) opt Freq
 -----------------------------

 -----
 titel
 -----
 Symbolic Z-matrix:
 Charge =  0 Multiplicity = 1

 SCF Done:  E(RB3LYP) =  -423.175635308     A.U. after   14 cycles
 Optimization completed.
    -- Stationary point found.
 Normal termination of Gaussian 09 at Tue Jan 28 12:40:24 2020.

 ----------------------------------------------------------------------
 #N Geom=AllCheck Guess=TCheck SCRF=Check GenChk RB3LYP/6-31G(2df,p) Fr
 eq
 ----------------------------------------------------------------------

 Structure from the checkpoint file:  "/scratch/puck/g09_08eed9d9-b952-4c1e-a444-97fce7e1c939/Gau-29974.chk"
 -----
 titel
 -----
 Charge =  0 Multiplicity = 1

                         Standard orientation:
 ---------------------------------------------------------------------
 Center     Atomic      Atomic             Coordinates (Angstroms)
 Number     Number       Type             X           Y           Z
 ---------------------------------------------------------------------
      1          6           0       -2.888528   -0.150977   -0.662689
      2          6           0       -1.537054    0.020088   -0.025596
      3          6           0       -0.937346    1.414336    0.182438
      4          6           0        0.554781    1.162030    0.188338
      5          6           0        0.857589   -0.123716   -0.026459
      6          6           0        2.221901   -0.739522   -0.104761
      7          8           0        3.273491    0.205166   -0.167546
      8          6           0       -0.405045   -0.918892   -0.153699
      9          8           0       -1.220125   -0.883505    1.042462
     10          1           0       -3.128238   -1.211265   -0.774367
     11          1           0       -3.668072    0.309514   -0.045350
     12          1           0       -2.918721    0.323588   -1.649085
     13          1           0       -1.236241    2.100404   -0.621364
     14          1           0       -1.286583    1.857904    1.122916
     15          1           0        1.282647    1.938415    0.392928
     16          1           0        2.414506   -1.342704    0.792200
     17          1           0        2.257878   -1.442980   -0.955743
     18          1           0        3.109177    0.764510   -0.934428
     19          1           0       -0.451075   -1.850754   -0.712471
 ---------------------------------------------------------------------

 SCF Done:  E(RB3LYP) =  -423.175635308     A.U. after    1 cycles

 The electronic state is 1-A.
 Alpha  occ. eigenvalues --  -19.14196 -19.13920 -10.23911 -10.23529 -10.23228
 Alpha  occ. eigenvalues --  -10.19037 -10.18732 -10.18448 -10.18368  -1.06375
 Alpha  occ. eigenvalues --   -1.02138  -0.82204  -0.75870  -0.71874  -0.66421
 Alpha  occ. eigenvalues --   -0.64181  -0.56223  -0.54313  -0.51447  -0.48007
 Alpha  occ. eigenvalues --   -0.45059  -0.44370  -0.43767  -0.42330  -0.40376
 Alpha  occ. eigenvalues --   -0.38931  -0.38206  -0.36840  -0.35622  -0.33473
 Alpha  occ. eigenvalues --   -0.30137  -0.27577  -0.25477  -0.23785
 Alpha virt. eigenvalues --    0.00520   0.07984   0.09879   0.11107   0.11956
 Alpha virt. eigenvalues --    0.13199   0.13791   0.14531   0.15757   0.16842
 Alpha virt. eigenvalues --    0.17619   0.19075   0.19357   0.20021   0.21228

 Mulliken charges:
               1
     1  C   -0.483538
     2  C    0.417202
     3  C   -0.326721
     4  C   -0.189124
     5  C    0.292780
     6  C   -0.169074
     7  O   -0.405389
     8  C   -0.153263
     9  O   -0.294171
    10  H    0.130233
    11  H    0.128603
    12  H    0.120768
    13  H    0.106736
    14  H    0.124746
    15  H    0.103882
    16  H    0.134459
    17  H    0.092844
    18  H    0.282183
    19  H    0.086842
 Sum of Mulliken charges =   0.00000

 Dipole moment (field-independent basis, Debye):
    X=             -0.9227    Y=              0.8135    Z=             -2.4489  Tot=              2.7405
 Quadrupole moment (field-independent basis, Debye-Ang):
   XX=            -57.2655   YY=            -49.9839   ZZ=            -53.7205
   XY=             -1.5781   XZ=             -0.7869   YZ=              1.1885

  Exact polarizability:  91.308  -5.019  81.767   0.297   2.520  57.817
 Approx polarizability: 114.828  -9.562 133.305  -2.962   1.547  93.876

                      1                      2                      3
                      A                      A                      A
 Frequencies --     83.3688               158.9781               176.5177
 Red. masses --      3.9256                 1.7378                 3.7685
 Frc consts  --      0.0161                 0.0259                 0.0692
 IR Inten    --      1.3583                 1.0951                 0.8770

                      4                      5                      6
                      A                      A                      A
 Frequencies --    191.5237               244.0673               301.9474
 Red. masses --      1.2558                 2.1912                 2.6429
 Frc consts  --      0.0271                 0.0769                 0.1420
 IR Inten    --      0.0351                 7.9405                11.5087

                      7                      8                      9
                      A                      A                      A
 Frequencies --    330.4194               363.8406               407.0390
 Red. masses --      1.4552                 2.2109                 3.8291
 Frc consts  --      0.0936                 0.1724                 0.3738
 IR Inten    --     86.9843                24.4052                10.9154

                     10                     11                     12
                      A                      A                      A
 Frequencies --    432.4284               581.5432               619.9335
 Red. masses --      2.6516                 3.9623                 4.2832
 Frc consts  --      0.2921                 0.7895                 0.9699
 IR Inten    --     10.4351                 5.6736                 1.1973

                     13                     14                     15
                      A                      A                      A
 Frequencies --    679.1278               758.6680               817.5297
 Red. masses --      4.3925                 5.1556                 1.4668
 Frc consts  --      1.1936                 1.7484                 0.5776
 IR Inten    --     11.6472                 1.1123                 1.5547

                     16                     17                     18
                      A                      A                      A
 Frequencies --    842.9983               889.2476               927.8805
 Red. masses --      2.7618                 2.4310                 2.8967
 Frc consts  --      1.1564                 1.1326                 1.4694
 IR Inten    --     32.1246                11.3181                19.1801

                     19                     20                     21
                      A                      A                      A
 Frequencies --    949.1987               978.0904              1008.2459
 Red. masses --      1.7596                 1.8056                 1.9827
 Frc consts  --      0.9341                 1.0177                 1.1875
 IR Inten    --     11.1079                 2.9101                29.6357

                     22                     23                     24
                      A                      A                      A
 Frequencies --   1011.2792              1046.3151              1078.0759
 Red. masses --      1.5880                 2.0042                 3.1127
 Frc consts  --      0.9568                 1.2928                 2.1315
 IR Inten    --      2.3046                12.3684                53.7142

                     25                     26                     27
                      A                      A                      A
 Frequencies --   1094.6257              1177.0068              1193.3039
 Red. masses --      1.6879                 2.6002                 1.2941
 Frc consts  --      1.1916                 2.1224                 1.0858
 IR Inten    --      5.3193                 3.9153                 8.0272

                     28                     29                     30
                      A                      A                      A
 Frequencies --   1209.4022              1224.9453              1251.7317
 Red. masses --      1.1423                 1.9824                 1.4628
 Frc consts  --      0.9844                 1.7526                 1.3504
 IR Inten    --     11.6163                10.8489                 6.8362

                     31                     32                     33
                      A                      A                      A
 Frequencies --   1311.3445              1325.9028              1387.9787
 Red. masses --      1.8760                 1.8686                 1.3252
 Frc consts  --      1.9007                 1.9354                 1.5042
 IR Inten    --      1.5797                15.7610                 8.4750

                     34                     35                     36
                      A                      A                      A
 Frequencies --   1407.1289              1423.5169              1439.8352
 Red. masses --      1.3135                 1.4569                 2.5580
 Frc consts  --      1.5324                 1.7394                 3.1244
 IR Inten    --      2.2867                58.5984                17.0087

                     37                     38                     39
                      A                      A                      A
 Frequencies --   1463.9610              1484.6440              1493.0768
 Red. masses --      1.2033                 1.0953                 1.0804
 Frc consts  --      1.5195                 1.4224                 1.4190
 IR Inten    --      1.7381                 6.5368                 1.4521

                     40                     41                     42
                      A                      A                      A
 Frequencies --   1495.7135              1698.8190              2946.0885
 Red. masses --      1.0964                 7.0885                 1.0729
 Frc consts  --      1.4452                12.0530                 5.4865
 IR Inten    --      2.6039                 1.3022                59.5387

                     43                     44                     45
                      A                      A                      A
 Frequencies --   3020.2082              3034.5544              3038.0124
 Red. masses --      1.0620                 1.0372                 1.0863
 Frc consts  --      5.7073                 5.6274                 5.9074
 IR Inten    --     25.1196                29.2461                20.0303

                     46                     47                     48
                      A                      A                      A
 Frequencies --   3058.3862              3095.7999              3123.4732
 Red. masses --      1.0983                 1.1002                 1.1009
 Frc consts  --      6.0526                 6.2126                 6.3282
 IR Inten    --     11.2163                19.1504                12.3892

                     49                     50                     51
                      A                      A                      A
 Frequencies --   3141.8400              3202.6280              3806.6216
 Red. masses --      1.0905                 1.0930                 1.0658
 Frc consts  --      6.3422                 6.6051                 9.0996
 IR Inten    --     26.9646                 7.7717                14.0424

 - Thermochemistry -
 -------------------
 Temperature   298.150 Kelvin.  Pressure   1.00000 Atm.
 Atom     1 has atomic number  6 and mass  12.00000

 Molecular mass:   126.06808 amu.
 Principal axes and moments of inertia in atomic units:
                           1         2         3
     Eigenvalues --   443.316821778.332461991.64803
           X            0.99989  -0.01145   0.00983
           Y            0.01099   0.99888   0.04600
           Z           -0.01034  -0.04589   0.99889
 This molecule is an asymmetric top.
 Rotational symmetry number  1.
 Warning -- assumption of classical behavior for rotation
           may cause significant error
 Rotational temperatures (Kelvin)      0.19538     0.04871     0.04349
 Rotational constants (GHZ):           4.07100     1.01485     0.90615
 Zero-point vibrational energy     415276.5 (Joules/Mol)
                                   99.25347 (Kcal/Mol)
 Warning -- explicit consideration of  12 degrees of freedom as
           vibrations may cause significant error
 Vibrational temperatures:    119.95   228.73   253.97   275.56   351.16
          (Kelvin)            434.43   475.40   523.48   585.64   622.17
                              836.71   891.94   977.11  1091.55  1176.24
                             1212.88  1279.43  1335.01  1365.68  1407.25
                             1450.64  1455.00  1505.41  1551.11  1574.92
                             1693.45  1716.90  1740.06  1762.42  1800.96
                             1886.73  1907.68  1996.99  2024.54  2048.12
                             2071.60  2106.31  2136.07  2148.20  2152.00
                             2444.22  4238.76  4345.40  4366.04  4371.02
                             4400.33  4454.16  4493.98  4520.40  4607.86
                             5476.87

 Zero-point correction=                           0.158170 (Hartree/Particle)
 Thermal correction to Energy=                    0.166964
 Thermal correction to Enthalpy=                  0.167908
 Thermal correction to Gibbs Free Energy=         0.124850
 Sum of electronic and zero-point Energies=           -423.017465
 Sum of electronic and thermal Energies=              -423.008672
 Sum of electronic and thermal Enthalpies=            -423.007727
 Sum of electronic and thermal Free Energies=         -423.050786

                     E (Thermal)             CV                S
                      KCal/Mol        Cal/Mol-Kelvin    Cal/Mol-Kelvin
 Total                  104.771             33.343             90.623
 Electronic               0.000              0.000              0.000
 Translational            0.889              2.981             40.409
 Rotational               0.889              2.981             28.842
 Vibrational            102.994             27.382             21.373
 Vibration     1          0.600              1.961              3.810
 Vibration     2          0.621              1.893              2.562
 Vibration     3          0.628              1.871              2.365
 Vibration     4          0.634              1.852              2.213
 Vibration     5          0.659              1.773              1.773
 Vibration     6          0.694              1.670              1.406
 Vibration     7          0.713              1.615              1.258
 Vibration     8          0.737              1.547              1.106
 Vibration     9          0.772              1.455              0.937
 Vibration    10          0.793              1.400              0.851
 Vibration    11          0.938              1.071              0.483
 Vibration    12          0.980              0.990              0.417

 Normal termination of Gaussian 09 at Tue Jan 28 13:21:37 2020.
