 Gaussian 09, Revision D.01,
 Gaussian 09:  ES64L-G09RevD.01 24-Apr-2013

 -----------------------------
 # b3lyp 6-31G(2df,p) opt Freq
 -----------------------------

 -----
 titel
 -----
 Symbolic Z-matrix:
 Charge =  0 Multiplicity = 1

 SCF Done:  E(RB3LYP) =  -423.128964244     A.U. after   14 cycles
 Optimization completed.
    -- Stationary point found.
 Normal termination of Gaussian 09 at Mon Jan 27 16:06:24 2020.

 ----------------------------------------------------------------------
 #N Geom=AllCheck Guess=TCheck SCRF=Check GenChk RB3LYP/6-31G(2df,p) Fr
 eq
 ----------------------------------------------------------------------

 Structure from the checkpoint file:  "/scratch/puck/g09_93378a3b-4eed-40b9-922d-a681bb7f9350/Gau-10539.chk"
 -----
 titel
 -----
 Charge =  0 Multiplicity = 1

                         Standard orientation:
 ---------------------------------------------------------------------
 Center     Atomic      Atomic             Coordinates (Angstroms)
 Number     Number       Type             X           Y           Z
 ---------------------------------------------------------------------
      1          6           0       -1.683876    1.390815   -0.011584
      2          6           0       -1.229915   -0.051444   -0.010411
      3          8           0       -2.326809   -0.942697   -0.082724
      4          6           0       -0.077197   -0.664501    0.775066
      5          6           0       -0.078781   -0.669031   -0.759895
      6          6           0        1.233319    0.109889   -0.973323
      7          6           0        2.208088   -0.615538   -0.002403
      8          6           0        1.242251    0.106364    0.979872
      9          8           0        1.169736    1.192074    0.005024
     10          1           0       -2.306695    1.581569    0.873069
     11          1           0       -0.847885    2.084292   -0.000264
     12          1           0       -2.302247    1.573127   -0.896837
     13          1           0       -2.910976   -0.736901    0.655650
     14          1           0       -0.273321   -1.559174    1.354103
     15          1           0       -0.272331   -1.562689   -1.340900
     16          1           0        1.509221    0.434330   -1.976331
     17          1           0        2.244487   -1.707917   -0.004222
     18          1           0        3.204155   -0.169365   -0.007429
     19          1           0        1.528849    0.428376    1.980825
 ---------------------------------------------------------------------

 SCF Done:  E(RB3LYP) =  -423.128964244     A.U. after    1 cycles

 The electronic state is 1-A.
 Alpha  occ. eigenvalues --  -19.13674 -19.13658 -10.24304 -10.24300 -10.24276
 Alpha  occ. eigenvalues --  -10.18960 -10.18443 -10.18315 -10.16610  -1.05539
 Alpha  occ. eigenvalues --   -1.02296  -0.84481  -0.74912  -0.70336  -0.69923
 Alpha  occ. eigenvalues --   -0.60125  -0.56160  -0.53407  -0.52089  -0.49730
 Alpha  occ. eigenvalues --   -0.46783  -0.44549  -0.42357  -0.40121  -0.39152
 Alpha  occ. eigenvalues --   -0.38265  -0.36719  -0.34861  -0.34181  -0.33557
 Alpha  occ. eigenvalues --   -0.30125  -0.26468  -0.24952  -0.24534
 Alpha virt. eigenvalues --    0.07869   0.08633   0.10490   0.10908   0.13195
 Alpha virt. eigenvalues --    0.13546   0.14754   0.15388   0.16677   0.17738
 Alpha virt. eigenvalues --    0.17907   0.19224   0.19828   0.20641   0.21410

 Mulliken charges:
               1
     1  C   -0.480094
     2  C    0.393225
     3  O   -0.470819
     4  C   -0.131964
     5  C   -0.094991
     6  C    0.034915
     7  C   -0.214911
     8  C    0.037672
     9  O   -0.287929
    10  H    0.097553
    11  H    0.154670
    12  H    0.119755
    13  H    0.277779
    14  H    0.090962
    15  H    0.100037
    16  H    0.085236
    17  H    0.097539
    18  H    0.108276
    19  H    0.083086
 Sum of Mulliken charges =   0.00000

 Dipole moment (field-independent basis, Debye):
    X=              0.3648    Y=             -0.7198    Z=              0.9558  Tot=              1.2509
 Quadrupole moment (field-independent basis, Debye-Ang):
   XX=            -50.6934   YY=            -56.1383   ZZ=            -49.9551
   XY=             -3.3682   XZ=             -3.5340   YZ=             -0.9153

  Exact polarizability:  87.891  -3.055  68.065  -1.471  -0.117  69.259
 Approx polarizability: 115.761  -0.265 104.552  -1.583   0.556 112.023

                      1                      2                      3
                      A                      A                      A
 Frequencies --    176.3453               202.0756               243.7583
 Red. masses --      3.0108                 1.0677                 3.1009
 Frc consts  --      0.0552                 0.0257                 0.1086
 IR Inten    --      1.8338                 0.4655                 5.0227

                      4                      5                      6
                      A                      A                      A
 Frequencies --    279.5363               333.9440               367.5133
 Red. masses --      1.2573                 2.9833                 2.9835
 Frc consts  --      0.0579                 0.1960                 0.2374
 IR Inten    --     78.1019                18.1906                 0.1325

                      7                      8                      9
                      A                      A                      A
 Frequencies --    408.4296               490.9586               506.9479
 Red. masses --      7.1329                 2.4036                 2.4948
 Frc consts  --      0.7011                 0.3414                 0.3778
 IR Inten    --      8.3041                 4.3502                 2.7911

                     10                     11                     12
                      A                      A                      A
 Frequencies --    647.9013               702.9837               707.3108
 Red. masses --      3.5023                 4.6864                 4.6196
 Frc consts  --      0.8662                 1.3645                 1.3617
 IR Inten    --     17.7892                 4.1317                 2.5912

                     13                     14                     15
                      A                      A                      A
 Frequencies --    810.6342               829.4689               857.3872
 Red. masses --      1.4715                 3.6642                 2.3421
 Frc consts  --      0.5697                 1.4854                 1.0144
 IR Inten    --      2.8305                 1.8959                 3.7332

                     16                     17                     18
                      A                      A                      A
 Frequencies --    859.6006               910.2510               941.5387
 Red. masses --      2.4193                 3.1029                 3.1449
 Frc consts  --      1.0533                 1.5148                 1.6426
 IR Inten    --     22.4361                22.7271                39.2825

                     19                     20                     21
                      A                      A                      A
 Frequencies --    952.4677               961.6304               969.3988
 Red. masses --      1.9759                 2.2846                 2.3032
 Frc consts  --      1.0561                 1.2447                 1.2753
 IR Inten    --      1.8623                 2.0064                 3.3035

                     22                     23                     24
                      A                      A                      A
 Frequencies --   1000.6989              1028.0207              1070.6167
 Red. masses --      2.3525                 2.1696                 1.2506
 Frc consts  --      1.3880                 1.3510                 0.8446
 IR Inten    --     20.4529                 3.1216                 1.2032

                     25                     26                     27
                      A                      A                      A
 Frequencies --   1087.0674              1090.1214              1109.4004
 Red. masses --      2.4824                 1.3115                 1.4965
 Frc consts  --      1.7284                 0.9183                 1.0852
 IR Inten    --      6.6910                11.2233                11.1365

                     28                     29                     30
                      A                      A                      A
 Frequencies --   1158.0630              1170.6544              1218.7934
 Red. masses --      2.2385                 1.4248                 1.4728
 Frc consts  --      1.7688                 1.1504                 1.2890
 IR Inten    --     69.0583                11.8676                 2.0868

                     31                     32                     33
                      A                      A                      A
 Frequencies --   1252.7948              1256.4530              1273.4404
 Red. masses --      1.4980                 1.5838                 1.6440
 Frc consts  --      1.3852                 1.4731                 1.5708
 IR Inten    --     11.2469                14.0403                 5.0801

                     34                     35                     36
                      A                      A                      A
 Frequencies --   1276.4906              1299.9665              1322.5965
 Red. masses --      1.7297                 1.8174                 1.4264
 Frc consts  --      1.6606                 1.8096                 1.4701
 IR Inten    --      7.3049                70.0546                 5.4280

                     37                     38                     39
                      A                      A                      A
 Frequencies --   1402.4289              1435.8057              1481.4942
 Red. masses --      1.2752                 2.5121                 1.1358
 Frc consts  --      1.4777                 3.0512                 1.4688
 IR Inten    --      7.2314                19.7052                 1.7792

                     40                     41                     42
                      A                      A                      A
 Frequencies --   1493.6057              1509.9023              3017.9677
 Red. masses --      1.1479                 1.0679                 1.0483
 Frc consts  --      1.5088                 1.4344                 5.6255
 IR Inten    --     11.7673                 4.1751                48.7136

                     43                     44                     45
                      A                      A                      A
 Frequencies --   3064.3968              3083.0524              3122.9981
 Red. masses --      1.0569                 1.0932                 1.0891
 Frc consts  --      5.8476                 6.1222                 6.2583
 IR Inten    --     35.0179                22.4345                62.3392

                     46                     47                     48
                      A                      A                      A
 Frequencies --   3126.3169              3140.7609              3181.0551
 Red. masses --      1.0942                 1.1081                 1.0890
 Frc consts  --      6.3009                 6.4400                 6.4923
 IR Inten    --     16.0817                31.3748                11.8314

                     49                     50                     51
                      A                      A                      A
 Frequencies --   3189.6079              3190.4493              3796.4150
 Red. masses --      1.0937                 1.0933                 1.0659
 Frc consts  --      6.5556                 6.5568                 9.0511
 IR Inten    --      0.1659                 6.5871                15.5305

 - Thermochemistry -
 -------------------
 Temperature   298.150 Kelvin.  Pressure   1.00000 Atm.
 Atom     1 has atomic number  6 and mass  12.00000

 Molecular mass:   126.06808 amu.
 Principal axes and moments of inertia in atomic units:
                           1         2         3
     Eigenvalues --   514.823831240.499331393.34461
           X            0.99898  -0.04451  -0.00709
           Y            0.04444   0.99896  -0.01066
           Z            0.00755   0.01034   0.99992
 This molecule is an asymmetric top.
 Rotational symmetry number  1.
 Warning -- assumption of classical behavior for rotation
           may cause significant error
 Rotational temperatures (Kelvin)      0.16824     0.06982     0.06216
 Rotational constants (GHZ):           3.50555     1.45485     1.29526
 Zero-point vibrational energy     418761.9 (Joules/Mol)
                                  100.08649 (Kcal/Mol)
 Warning -- explicit consideration of   9 degrees of freedom as
           vibrations may cause significant error
 Vibrational temperatures:    253.72   290.74   350.71   402.19   480.47
          (Kelvin)            528.77   587.64   706.38   729.38   932.18
                             1011.44  1017.66  1166.32  1193.42  1233.59
                             1236.77  1309.65  1354.66  1370.39  1383.57
                             1394.75  1439.78  1479.09  1540.38  1564.05
                             1568.44  1596.18  1666.19  1684.31  1753.57
                             1802.49  1807.75  1832.19  1836.58  1870.36
                             1902.92  2017.78  2065.80  2131.54  2148.96
                             2172.41  4342.18  4408.98  4435.82  4493.29
                             4498.07  4518.85  4576.82  4589.13  4590.34
                             5462.19

 Zero-point correction=                           0.159498 (Hartree/Particle)
 Thermal correction to Energy=                    0.167086
 Thermal correction to Enthalpy=                  0.168031
 Thermal correction to Gibbs Free Energy=         0.128047
 Sum of electronic and zero-point Energies=           -422.969466
 Sum of electronic and thermal Energies=              -422.961878
 Sum of electronic and thermal Enthalpies=            -422.960934
 Sum of electronic and thermal Free Energies=         -423.000917

                     E (Thermal)             CV                S
                      KCal/Mol        Cal/Mol-Kelvin    Cal/Mol-Kelvin
 Total                  104.848             31.294             84.152
 Electronic               0.000              0.000              0.000
 Translational            0.889              2.981             40.409
 Rotational               0.889              2.981             28.278
 Vibrational            103.071             25.332             15.466
 Vibration     1          0.628              1.872              2.367
 Vibration     2          0.639              1.837              2.114
 Vibration     3          0.659              1.773              1.775
 Vibration     4          0.680              1.711              1.537
 Vibration     5          0.715              1.608              1.241
 Vibration     6          0.740              1.539              1.090
 Vibration     7          0.773              1.452              0.932
 Vibration     8          0.847              1.270              0.681
 Vibration     9          0.862              1.235              0.641

 Optimization completed.
    -- Stationary point found.
 Normal termination of Gaussian 09 at Mon Jan 27 18:06:14 2020.
