 Gaussian 09, Revision D.01,
 Gaussian 09:  ES64L-G09RevD.01 24-Apr-2013

 -----------------------------
 # b3lyp 6-31G(2df,p) opt Freq
 -----------------------------

 -----
 titel
 -----
 Symbolic Z-matrix:
 Charge =  0 Multiplicity = 1

 SCF Done:  E(RB3LYP) =  -423.110666181     A.U. after   12 cycles
 Optimization completed.
    -- Stationary point found.
 Normal termination of Gaussian 09 at Mon Jan 27 15:33:48 2020.

 ----------------------------------------------------------------------
 #N Geom=AllCheck Guess=TCheck SCRF=Check GenChk RB3LYP/6-31G(2df,p) Fr
 eq
 ----------------------------------------------------------------------

 Structure from the checkpoint file:  "/scratch/puck/g09_a9359702-90d2-4523-af38-da8087eb0121/Gau-174910.chk"
 -----
 titel
 -----
 Charge =  0 Multiplicity = 1

                         Standard orientation:
 ---------------------------------------------------------------------
 Center     Atomic      Atomic             Coordinates (Angstroms)
 Number     Number       Type             X           Y           Z
 ---------------------------------------------------------------------
      1          6           0       -2.185628    1.173368    0.465035
      2          6           0       -1.510101    0.104016   -0.398567
      3          8           0       -2.200753   -1.143558   -0.311440
      4          6           0       -0.048103   -0.039852   -0.080235
      5          6           0        0.609753   -0.506559    1.225513
      6          6           0        1.914645   -0.563578    0.391254
      7          8           0        2.190711    0.835566    0.092932
      8          6           0        1.062584    0.778811   -0.776445
      9          6           0        1.047904   -0.703635   -0.915572
     10          1           0       -3.247062    1.243814    0.213605
     11          1           0       -2.100727    0.923175    1.529400
     12          1           0       -1.720445    2.152715    0.316455
     13          1           0       -1.606391    0.387148   -1.454829
     14          1           0       -2.190291   -1.415985    0.612660
     15          1           0        0.620029    0.156218    2.097053
     16          1           0        0.271776   -1.509172    1.503886
     17          1           0        2.794479   -1.128130    0.691323
     18          1           0        0.890824    1.586912   -1.475751
     19          1           0        1.021812   -1.388181   -1.751630
 ---------------------------------------------------------------------

 SCF Done:  E(RB3LYP) =  -423.110666181     A.U. after    1 cycles

 The electronic state is 1-A.
 Alpha  occ. eigenvalues --  -19.13651 -19.13310 -10.24658 -10.24096 -10.23797
 Alpha  occ. eigenvalues --  -10.19871 -10.19344 -10.19061 -10.17841  -1.06258
 Alpha  occ. eigenvalues --   -1.01531  -0.86166  -0.75484  -0.72960  -0.65620
 Alpha  occ. eigenvalues --   -0.62879  -0.55716  -0.54151  -0.53352  -0.47780
 Alpha  occ. eigenvalues --   -0.46164  -0.45319  -0.43745  -0.42406  -0.39129
 Alpha  occ. eigenvalues --   -0.38498  -0.37851  -0.36810  -0.34655  -0.31625
 Alpha  occ. eigenvalues --   -0.29677  -0.27290  -0.26126  -0.23001
 Alpha virt. eigenvalues --    0.06989   0.07787   0.09756   0.10766   0.11970
 Alpha virt. eigenvalues --    0.13431   0.13701   0.14855   0.15793   0.16691
 Alpha virt. eigenvalues --    0.17169   0.18575   0.18845   0.20344   0.21405

 Mulliken charges:
               1
     1  C   -0.401492
     2  C   -0.013643
     3  O   -0.423756
     4  C    0.309470
     5  C   -0.306487
     6  C    0.067296
     7  O   -0.298731
     8  C    0.047617
     9  C   -0.204512
    10  H    0.123547
    11  H    0.111709
    12  H    0.122340
    13  H    0.085948
    14  H    0.276691
    15  H    0.101283
    16  H    0.099747
    17  H    0.089539
    18  H    0.108472
    19  H    0.104965
 Sum of Mulliken charges =   0.00000

 Dipole moment (field-independent basis, Debye):
    X=             -0.5464    Y=             -0.4597    Z=              0.6117  Tot=              0.9403
 Quadrupole moment (field-independent basis, Debye-Ang):
   XX=            -58.7754   YY=            -52.9679   ZZ=            -50.4395
   XY=             -5.6675   XZ=             -2.8109   YZ=             -3.7694

  Exact polarizability:  81.414  -2.837  70.054  -0.572  -2.758  70.708
 Approx polarizability: 110.682   1.861 109.473   0.263  -3.716 107.580

                      1                      2                      3
                      A                      A                      A
 Frequencies --     60.5347               137.4806               184.7732
 Red. masses --      3.4078                 4.0992                 2.6042
 Frc consts  --      0.0074                 0.0456                 0.0524
 IR Inten    --      1.7077                 3.8514                 3.5504

                      4                      5                      6
                      A                      A                      A
 Frequencies --    247.9786               258.9663               319.5460
 Red. masses --      1.1570                 1.0417                 3.9934
 Frc consts  --      0.0419                 0.0412                 0.2402
 IR Inten    --     17.2893                83.0960                14.6715

                      7                      8                      9
                      A                      A                      A
 Frequencies --    370.4098               463.8788               489.5105
 Red. masses --      3.0523                 2.5713                 2.7314
 Frc consts  --      0.2467                 0.3260                 0.3856
 IR Inten    --      1.1067                 2.2466                 5.5921

                     10                     11                     12
                      A                      A                      A
 Frequencies --    572.4659               645.6190               765.7665
 Red. masses --      3.3402                 2.9017                 4.3917
 Frc consts  --      0.6450                 0.7126                 1.5173
 IR Inten    --     14.4133                 5.4010                11.1092

                     13                     14                     15
                      A                      A                      A
 Frequencies --    775.2425               800.5072               822.4078
 Red. masses --      2.4941                 3.2152                 1.3333
 Frc consts  --      0.8832                 1.2139                 0.5313
 IR Inten    --      2.2319                18.7945                 3.0371

                     16                     17                     18
                      A                      A                      A
 Frequencies --    884.9387               913.6464               919.6308
 Red. masses --      2.3325                 2.3582                 2.3734
 Frc consts  --      1.0762                 1.1598                 1.1826
 IR Inten    --      5.7014                30.9275                12.8453

                     19                     20                     21
                      A                      A                      A
 Frequencies --    944.8720               971.1183               995.2712
 Red. masses --      2.0631                 2.0114                 2.5409
 Frc consts  --      1.0852                 1.1176                 1.4829
 IR Inten    --      7.4932                23.9440                23.7298

                     22                     23                     24
                      A                      A                      A
 Frequencies --   1034.5457              1043.1668              1048.1951
 Red. masses --      2.5615                 2.2308                 1.8835
 Frc consts  --      1.6153                 1.4303                 1.2193
 IR Inten    --     31.7322                17.5765                11.8215

                     25                     26                     27
                      A                      A                      A
 Frequencies --   1078.5508              1107.6697              1131.1733
 Red. masses --      1.9118                 2.2295                 1.7236
 Frc consts  --      1.3103                 1.6117                 1.2994
 IR Inten    --     34.3176                42.5029                 5.9008

                     28                     29                     30
                      A                      A                      A
 Frequencies --   1155.4661              1162.4159              1193.8511
 Red. masses --      1.5280                 2.0272                 1.3716
 Frc consts  --      1.2019                 1.6139                 1.1518
 IR Inten    --      3.9757                 3.3619                 0.2231

                     31                     32                     33
                      A                      A                      A
 Frequencies --   1244.0825              1262.2973              1299.1127
 Red. masses --      1.8058                 1.4873                 1.5528
 Frc consts  --      1.6467                 1.3963                 1.5441
 IR Inten    --     21.9582                 7.7399                12.1172

                     34                     35                     36
                      A                      A                      A
 Frequencies --   1315.4670              1346.4537              1400.3700
 Red. masses --      2.6597                 1.4422                 1.3972
 Frc consts  --      2.7117                 1.5405                 1.6144
 IR Inten    --      1.3843                 8.9806                 0.7709

                     37                     38                     39
                      A                      A                      A
 Frequencies --   1403.2100              1422.9908              1484.7962
 Red. masses --      1.6866                 1.4592                 1.1650
 Frc consts  --      1.9566                 1.7408                 1.5132
 IR Inten    --     13.6643                54.8493                 2.4131

                     40                     41                     42
                      A                      A                      A
 Frequencies --   1491.5208              1494.7485              3025.0226
 Red. masses --      1.0666                 1.0642                 1.0764
 Frc consts  --      1.3980                 1.4009                 5.8035
 IR Inten    --      9.2567                 0.4957                12.4415

                     43                     44                     45
                      A                      A                      A
 Frequencies --   3031.8472              3040.8669              3099.5507
 Red. masses --      1.0447                 1.0556                 1.0984
 Frc consts  --      5.6579                 5.7511                 6.2174
 IR Inten    --     18.0138                38.4165                30.3483

                     46                     47                     48
                      A                      A                      A
 Frequencies --   3102.1958              3122.7720              3148.4542
 Red. masses --      1.1080                 1.1024                 1.0927
 Frc consts  --      6.2822                 6.3340                 6.3818
 IR Inten    --     20.9617                23.2853                38.8016

                     49                     50                     51
                      A                      A                      A
 Frequencies --   3200.9398              3217.8599              3802.8177
 Red. masses --      1.0905                 1.1024                 1.0659
 Frc consts  --      6.5833                 6.7253                 9.0817
 IR Inten    --     12.2243                 6.5276                11.5946

 - Thermochemistry -
 -------------------
 Temperature   298.150 Kelvin.  Pressure   1.00000 Atm.
 Atom     1 has atomic number  6 and mass  12.00000

 Molecular mass:   126.06808 amu.
 Principal axes and moments of inertia in atomic units:
                           1         2         3
     Eigenvalues --   523.582101466.968431556.67696
           X            0.99913  -0.04082  -0.00803
           Y            0.04024   0.99725  -0.06216
           Z            0.01055   0.06179   0.99803
 This molecule is an asymmetric top.
 Rotational symmetry number  1.
 Warning -- assumption of classical behavior for rotation
           may cause significant error
 Rotational temperatures (Kelvin)      0.16543     0.05904     0.05564
 Rotational constants (GHZ):           3.44691     1.23025     1.15935
 Zero-point vibrational energy     415445.0 (Joules/Mol)
                                   99.29373 (Kcal/Mol)
 Warning -- explicit consideration of  10 degrees of freedom as
           vibrations may cause significant error
 Vibrational temperatures:     87.10   197.80   265.85   356.79   372.59
          (Kelvin)            459.75   532.94   667.42   704.30   823.65
                              928.90  1101.77  1115.40  1151.75  1183.26
                             1273.23  1314.53  1323.14  1359.46  1397.22
                             1431.97  1488.48  1500.88  1508.12  1551.79
                             1593.69  1627.50  1662.46  1672.46  1717.68
                             1789.96  1816.16  1869.13  1892.66  1937.24
                             2014.82  2018.90  2047.36  2136.29  2145.96
                             2150.61  4352.33  4362.15  4375.12  4459.56
                             4463.36  4492.97  4529.92  4605.43  4629.78
                             5471.40

 Zero-point correction=                           0.158235 (Hartree/Particle)
 Thermal correction to Energy=                    0.166553
 Thermal correction to Enthalpy=                  0.167497
 Thermal correction to Gibbs Free Energy=         0.125192
 Sum of electronic and zero-point Energies=           -422.952432
 Sum of electronic and thermal Energies=              -422.944113
 Sum of electronic and thermal Enthalpies=            -422.943169
 Sum of electronic and thermal Free Energies=         -422.985474

                     E (Thermal)             CV                S
                      KCal/Mol        Cal/Mol-Kelvin    Cal/Mol-Kelvin
 Total                  104.513             32.207             89.039
 Electronic               0.000              0.000              0.000
 Translational            0.889              2.981             40.409
 Rotational               0.889              2.981             28.571
 Vibrational            102.736             26.246             20.059
 Vibration     1          0.597              1.973              4.440
 Vibration     2          0.614              1.916              2.839
 Vibration     3          0.631              1.861              2.280
 Vibration     4          0.662              1.766              1.745
 Vibration     5          0.668              1.748              1.669
 Vibration     6          0.705              1.636              1.312
 Vibration     7          0.742              1.533              1.078
 Vibration     8          0.821              1.330              0.755
 Vibration     9          0.845              1.273              0.685
 Vibration    10          0.929              1.091              0.500

 Normal termination of Gaussian 09 at Mon Jan 27 16:17:47 2020.
