 Gaussian 09, Revision D.01,
 Gaussian 09:  ES64L-G09RevD.01 24-Apr-2013

 -----------------------------
 # b3lyp 6-31G(2df,p) opt Freq
 -----------------------------

 -----
 titel
 -----
 Symbolic Z-matrix:
 Charge =  0 Multiplicity = 1

 SCF Done:  E(RB3LYP) =  -423.139398794     A.U. after   13 cycles
 Optimization completed.
    -- Stationary point found.
 Normal termination of Gaussian 09 at Mon Jan 27 22:07:36 2020.

 ----------------------------------------------------------------------
 #N Geom=AllCheck Guess=TCheck SCRF=Check GenChk RB3LYP/6-31G(2df,p) Fr
 eq
 ----------------------------------------------------------------------

 Structure from the checkpoint file:  "/scratch/puck/g09_44c31630-7d31-40a5-964d-0a16f8dbe571/Gau-85630.chk"
 -----
 titel
 -----
 Charge =  0 Multiplicity = 1

                         Standard orientation:
 ---------------------------------------------------------------------
 Center     Atomic      Atomic             Coordinates (Angstroms)
 Number     Number       Type             X           Y           Z
 ---------------------------------------------------------------------
      1          6           0       -2.599676   -0.052969   -0.000009
      2          6           0       -1.255827   -0.767071    0.000027
      3          6           0       -0.122540   -0.399827    1.039548
      4          6           0        0.039969    1.099032    0.732554
      5          8           0        1.231343    1.477925   -0.000019
      6          6           0        0.039932    1.099035   -0.732530
      7          6           0       -0.122580   -0.399830   -1.039521
      8          6           0        0.830522   -1.087593   -0.000005
      9          8           0        2.208797   -0.934497   -0.000026
     10          1           0       -2.504082    1.035663    0.000469
     11          1           0       -3.183450   -0.335671   -0.882820
     12          1           0       -3.183908   -0.336416    0.882256
     13          1           0       -1.425984   -1.848605    0.000036
     14          1           0       -0.165079   -0.710280    2.083089
     15          1           0       -0.379217    1.878221    1.358703
     16          1           0       -0.379295    1.878221   -1.358655
     17          1           0       -0.165167   -0.710278   -2.083061
     18          1           0        0.641401   -2.163292   -0.000002
     19          1           0        2.364863    0.020347   -0.000039
 ---------------------------------------------------------------------

 SCF Done:  E(RB3LYP) =  -423.139398794     A.U. after    1 cycles

 The electronic state is 1-A.
 Alpha  occ. eigenvalues --  -19.16347 -19.11833 -10.24215 -10.24181 -10.23438
 Alpha  occ. eigenvalues --  -10.20497 -10.19704 -10.19704 -10.18398  -1.08066
 Alpha  occ. eigenvalues --   -1.00761  -0.87469  -0.73370  -0.69823  -0.68400
 Alpha  occ. eigenvalues --   -0.60732  -0.57255  -0.57083  -0.53264  -0.48297
 Alpha  occ. eigenvalues --   -0.46894  -0.43894  -0.43225  -0.40455  -0.39531
 Alpha  occ. eigenvalues --   -0.38634  -0.37201  -0.36190  -0.35932  -0.32755
 Alpha  occ. eigenvalues --   -0.31490  -0.29152  -0.25773  -0.24783
 Alpha virt. eigenvalues --    0.07281   0.07297   0.09270   0.11619   0.13115
 Alpha virt. eigenvalues --    0.13995   0.14498   0.15786   0.16169   0.16618
 Alpha virt. eigenvalues --    0.17646   0.19036   0.20169   0.20272   0.22409

 Mulliken charges:
               1
     1  C   -0.432848
     2  C    0.045444
     3  C   -0.166826
     4  C    0.044440
     5  O   -0.284818
     6  C    0.044446
     7  C   -0.166818
     8  C    0.192533
     9  O   -0.449237
    10  H    0.117688
    11  H    0.120866
    12  H    0.120864
    13  H    0.079763
    14  H    0.066236
    15  H    0.109931
    16  H    0.109931
    17  H    0.066233
    18  H    0.088441
    19  H    0.293730
 Sum of Mulliken charges =   0.00000

 Dipole moment (field-independent basis, Debye):
    X=             -3.0641    Y=              0.5570    Z=              0.0000  Tot=              3.1143
 Quadrupole moment (field-independent basis, Debye-Ang):
   XX=            -58.3975   YY=            -53.5139   ZZ=            -50.8777
   XY=              1.5632   XZ=              0.0002   YZ=              0.0000

  Exact polarizability:  78.887   0.585  71.799   0.000   0.000  68.851
 Approx polarizability: 113.701   4.064 107.814   0.000   0.000 109.907

                      1                      2                      3
                      A                      A                      A
 Frequencies --    214.1517               234.2279               239.4385
 Red. masses --      1.0727                 2.9633                 3.1925
 Frc consts  --      0.0290                 0.0958                 0.1078
 IR Inten    --      0.0031                 0.3761                 0.5122

                      4                      5                      6
                      A                      A                      A
 Frequencies --    297.8340               327.0378               459.5152
 Red. masses --      3.7074                 5.8876                 7.2964
 Frc consts  --      0.1938                 0.3710                 0.9077
 IR Inten    --      0.0007                 5.9172                14.4730

                      7                      8                      9
                      A                      A                      A
 Frequencies --    495.7121               517.7841               645.4848
 Red. masses --      2.6881                 4.3425                 1.1307
 Frc consts  --      0.3892                 0.6859                 0.2776
 IR Inten    --      0.0701                 0.9543                67.5822

                     10                     11                     12
                      A                      A                      A
 Frequencies --    671.6896               711.5937               731.5639
 Red. masses --      3.6385                 4.8514                 2.5256
 Frc consts  --      0.9672                 1.4474                 0.7964
 IR Inten    --      0.6290                 0.2712                 1.0956

                     13                     14                     15
                      A                      A                      A
 Frequencies --    777.7813               807.8610               812.5792
 Red. masses --      3.9528                 3.0826                 2.6785
 Frc consts  --      1.4088                 1.1853                 1.0420
 IR Inten    --      1.6320                 0.0218                 8.8758

                     16                     17                     18
                      A                      A                      A
 Frequencies --    880.6467               882.2048               933.8843
 Red. masses --      2.3943                 3.0252                 2.6477
 Frc consts  --      1.0940                 1.3872                 1.3605
 IR Inten    --     47.7132                14.6324                11.4553

                     19                     20                     21
                      A                      A                      A
 Frequencies --    952.8359               982.4078              1015.7198
 Red. masses --      2.0076                 1.7651                 3.3219
 Frc consts  --      1.0739                 1.0037                 2.0192
 IR Inten    --      0.2825                 2.3715                 7.6635

                     22                     23                     24
                      A                      A                      A
 Frequencies --   1046.3517              1063.2280              1076.0626
 Red. masses --      1.7970                 1.1872                 1.3520
 Frc consts  --      1.1592                 0.7907                 0.9224
 IR Inten    --     20.2506                 1.0985                 2.1530

                     25                     26                     27
                      A                      A                      A
 Frequencies --   1108.7304              1119.2114              1164.9841
 Red. masses --      2.0606                 1.4461                 1.6467
 Frc consts  --      1.4924                 1.0672                 1.3168
 IR Inten    --     45.7672                 4.5043                 0.0250

                     28                     29                     30
                      A                      A                      A
 Frequencies --   1201.3982              1202.0788              1211.8305
 Red. masses --      1.3909                 2.4687                 1.6190
 Frc consts  --      1.1828                 2.1018                 1.4008
 IR Inten    --      0.0472                60.9969                94.7959

                     31                     32                     33
                      A                      A                      A
 Frequencies --   1260.5579              1265.8532              1275.6847
 Red. masses --      2.1326                 1.6688                 1.2578
 Frc consts  --      1.9966                 1.5755                 1.2060
 IR Inten    --     23.0115                 4.0507                 0.0653

                     34                     35                     36
                      A                      A                      A
 Frequencies --   1329.1996              1333.7797              1394.2697
 Red. masses --      1.5501                 1.4422                 1.4122
 Frc consts  --      1.6136                 1.5116                 1.6175
 IR Inten    --      1.6923                39.1397                28.3272

                     37                     38                     39
                      A                      A                      A
 Frequencies --   1417.2636              1419.7384              1494.0983
 Red. masses --      1.3076                 2.2032                 1.1176
 Frc consts  --      1.5475                 2.6165                 1.4700
 IR Inten    --     10.1099                 7.1721                54.6841

                     40                     41                     42
                      A                      A                      A
 Frequencies --   1501.2237              1501.2688              3035.0171
 Red. masses --      1.0476                 1.0884                 1.0386
 Frc consts  --      1.3910                 1.4453                 5.6366
 IR Inten    --      2.3394                24.4716                27.2179

                     43                     44                     45
                      A                      A                      A
 Frequencies --   3050.5389              3087.3940              3093.0188
 Red. masses --      1.0829                 1.0862                 1.1008
 Frc consts  --      5.9375                 6.1000                 6.2045
 IR Inten    --     15.6613                33.9251                18.6238

                     46                     47                     48
                      A                      A                      A
 Frequencies --   3118.0402              3120.7376              3123.8489
 Red. masses --      1.0980                 1.0883                 1.0915
 Frc consts  --      6.2897                 6.2450                 6.2756
 IR Inten    --     17.0462                55.8728                25.9349

                     49                     50                     51
                      A                      A                      A
 Frequencies --   3177.0355              3188.6443              3725.5219
 Red. masses --      1.0881                 1.0979                 1.0637
 Frc consts  --      6.4709                 6.5769                 8.6981
 IR Inten    --     14.5312                16.2486               102.8311

 - Thermochemistry -
 -------------------
 Temperature   298.150 Kelvin.  Pressure   1.00000 Atm.
 Atom     1 has atomic number  6 and mass  12.00000

 Molecular mass:   126.06808 amu.
 Principal axes and moments of inertia in atomic units:
                           1         2         3
     Eigenvalues --   619.416751065.923381307.87040
           X            1.00000  -0.00209   0.00000
           Y            0.00209   1.00000   0.00000
           Z            0.00000   0.00000   1.00000
 This molecule is an asymmetric top.
 Rotational symmetry number  1.
 Warning -- assumption of classical behavior for rotation
           may cause significant error
 Rotational temperatures (Kelvin)      0.13983     0.08126     0.06623
 Rotational constants (GHZ):           2.91361     1.69312     1.37991
 Zero-point vibrational energy     422871.3 (Joules/Mol)
                                  101.06867 (Kcal/Mol)
 Warning -- explicit consideration of   8 degrees of freedom as
           vibrations may cause significant error
 Vibrational temperatures:    308.12   337.00   344.50   428.52   470.53
          (Kelvin)            661.14   713.22   744.97   928.71   966.41
                             1023.82  1052.56  1119.05  1162.33  1169.12
                             1267.05  1269.29  1343.65  1370.92  1413.46
                             1461.39  1505.46  1529.75  1548.21  1595.21
                             1610.29  1676.15  1728.54  1729.52  1743.55
                             1813.66  1821.28  1835.42  1912.42  1919.01
                             2006.04  2039.12  2042.68  2149.67  2159.92
                             2159.99  4366.71  4389.04  4442.07  4450.16
                             4486.16  4490.04  4494.52  4571.04  4587.74
                             5360.19

 Zero-point correction=                           0.161063 (Hartree/Particle)
 Thermal correction to Energy=                    0.168234
 Thermal correction to Enthalpy=                  0.169178
 Thermal correction to Gibbs Free Energy=         0.130009
 Sum of electronic and zero-point Energies=           -422.978336
 Sum of electronic and thermal Energies=              -422.971164
 Sum of electronic and thermal Enthalpies=            -422.970220
 Sum of electronic and thermal Free Energies=         -423.009390

                     E (Thermal)             CV                S
                      KCal/Mol        Cal/Mol-Kelvin    Cal/Mol-Kelvin
 Total                  105.569             30.118             82.439
 Electronic               0.000              0.000              0.000
 Translational            0.889              2.981             40.409
 Rotational               0.889              2.981             28.248
 Vibrational            103.791             24.156             13.782
 Vibration     1          0.644              1.819              2.008
 Vibration     2          0.654              1.788              1.846
 Vibration     3          0.657              1.780              1.807
 Vibration     4          0.691              1.678              1.429
 Vibration     5          0.711              1.621              1.275
 Vibration     6          0.817              1.340              0.768
 Vibration     7          0.851              1.260              0.669
 Vibration     8          0.873              1.211              0.615

 Optimization completed.
    -- Stationary point found.
 Normal termination of Gaussian 09 at Mon Jan 27 23:11:01 2020.
