 Gaussian 09, Revision D.01,
 Gaussian 09:  ES64L-G09RevD.01 24-Apr-2013

 -----------------------------
 # b3lyp 6-31G(2df,p) opt Freq
 -----------------------------

 -----
 titel
 -----
 Symbolic Z-matrix:
 Charge =  0 Multiplicity = 1

 SCF Done:  E(RB3LYP) =  -423.173415955     A.U. after   14 cycles
 SCF Done:  E(RB3LYP) =  -423.173416039     A.U. after    7 cycles
 SCF Done:  E(RB3LYP) =  -423.173414255     A.U. after    8 cycles
 SCF Done:  E(RB3LYP) =  -423.173416249     A.U. after    8 cycles
 Optimization completed.
    -- Stationary point found.
 Normal termination of Gaussian 09 at Mon Jan 27 16:48:51 2020.

 ----------------------------------------------------------------------
 #N Geom=AllCheck Guess=TCheck SCRF=Check GenChk RB3LYP/6-31G(2df,p) Fr
 eq
 ----------------------------------------------------------------------

 Structure from the checkpoint file:  "/scratch/puck/g09_cc55c2b0-3568-44be-895f-da2fbf39fd00/Gau-83976.chk"
 -----
 titel
 -----
 Charge =  0 Multiplicity = 1

                         Standard orientation:
 ---------------------------------------------------------------------
 Center     Atomic      Atomic             Coordinates (Angstroms)
 Number     Number       Type             X           Y           Z
 ---------------------------------------------------------------------
      1          6           0        1.043047    1.729545   -0.147014
      2          6           0        0.458060    0.342198    0.111615
      3          8           0       -0.451136    0.346396    1.240273
      4          6           0       -1.662939   -0.182636    0.662405
      5          6           0       -1.170911   -1.381177   -0.183529
      6          6           0       -0.494083   -0.214058   -0.977932
      7          6           0       -1.793500    0.596836   -0.666603
      8          6           0        1.607988   -0.624662    0.402874
      9          8           0        2.492289   -0.860330   -0.379227
     10          1           0        1.815929    1.660332   -0.917214
     11          1           0        0.274955    2.435079   -0.469440
     12          1           0        1.499740    2.120765    0.767201
     13          1           0       -2.435635   -0.239523    1.426863
     14          1           0       -0.542581   -2.127263    0.307733
     15          1           0       -1.966747   -1.864572   -0.751554
     16          1           0       -0.078738   -0.334180   -1.976360
     17          1           0       -1.750241    1.685814   -0.620490
     18          1           0       -2.636187    0.269669   -1.278014
     19          1           0        1.564293   -1.090920    1.412013
 ---------------------------------------------------------------------

 SCF Done:  E(RB3LYP) =  -423.173416250     A.U. after    1 cycles

 The electronic state is 1-A.
 Alpha  occ. eigenvalues --  -19.14381 -19.14334 -10.26831 -10.24554 -10.24444
 Alpha  occ. eigenvalues --  -10.20979 -10.19474 -10.19406 -10.18270  -1.05638
 Alpha  occ. eigenvalues --   -1.04385  -0.84469  -0.78081  -0.68895  -0.66632
 Alpha  occ. eigenvalues --   -0.62381  -0.58066  -0.53926  -0.52272  -0.49192
 Alpha  occ. eigenvalues --   -0.47006  -0.45231  -0.42327  -0.41175  -0.40123
 Alpha  occ. eigenvalues --   -0.38211  -0.37927  -0.36350  -0.36147  -0.34584
 Alpha  occ. eigenvalues --   -0.33243  -0.31074  -0.26928  -0.23939
 Alpha virt. eigenvalues --   -0.02866   0.09102   0.09591   0.11275   0.12469
 Alpha virt. eigenvalues --    0.13944   0.14127   0.14635   0.15339   0.16631
 Alpha virt. eigenvalues --    0.18107   0.18832   0.19025   0.19949   0.22369

 Mulliken charges:
               1
     1  C   -0.453302
     2  C    0.313059
     3  O   -0.329764
     4  C    0.113832
     5  C   -0.250720
     6  C   -0.082640
     7  C   -0.249988
     8  C    0.118923
     9  O   -0.265119
    10  H    0.140191
    11  H    0.121344
    12  H    0.131193
    13  H    0.084320
    14  H    0.105387
    15  H    0.107497
    16  H    0.091694
    17  H    0.105253
    18  H    0.106453
    19  H    0.092389
 Sum of Mulliken charges =   0.00000

 Dipole moment (field-independent basis, Debye):
    X=             -2.4284    Y=              0.3556    Z=             -0.3798  Tot=              2.4835
 Quadrupole moment (field-independent basis, Debye-Ang):
   XX=            -56.6223   YY=            -52.4213   ZZ=            -54.3451
   XY=              3.6776   XZ=              3.1265   YZ=             -1.7919

  Exact polarizability:  83.877   0.542  72.964  -0.436  -2.197  67.134
 Approx polarizability: 118.366  -2.457 104.469  -6.094  -0.521 108.988

                      1                      2                      3
                      A                      A                      A
 Frequencies --     42.8634               179.0251               200.4194
 Red. masses --      3.7670                 3.3353                 1.2393
 Frc consts  --      0.0041                 0.0630                 0.0293
 IR Inten    --      8.9316                 2.0948                 1.7057

                      4                      5                      6
                      A                      A                      A
 Frequencies --    223.5605               289.7457               312.6541
 Red. masses --      2.1345                 3.0040                 2.3888
 Frc consts  --      0.0629                 0.1486                 0.1376
 IR Inten    --      2.6497                 3.6128                 1.0811

                      7                      8                      9
                      A                      A                      A
 Frequencies --    447.6020               498.1017               510.7969
 Red. masses --      4.1065                 3.6703                 2.8325
 Frc consts  --      0.4847                 0.5365                 0.4354
 IR Inten    --      1.3204                11.8663                 0.4243

                     10                     11                     12
                      A                      A                      A
 Frequencies --    530.6570               669.8482               738.1267
 Red. masses --      2.0130                 4.0981                 2.9938
 Frc consts  --      0.3340                 1.0834                 0.9610
 IR Inten    --      0.7327                 8.5090                 7.5212

                     13                     14                     15
                      A                      A                      A
 Frequencies --    837.0296               840.4717               857.6655
 Red. masses --      2.4014                 2.0998                 2.8984
 Frc consts  --      0.9913                 0.8739                 1.2561
 IR Inten    --      2.6931                 1.6108                10.1518

                     16                     17                     18
                      A                      A                      A
 Frequencies --    872.2277               909.9383               951.7281
 Red. masses --      2.6496                 2.5727                 2.5406
 Frc consts  --      1.1877                 1.2551                 1.3559
 IR Inten    --      2.6492                16.5272                48.8998

                     19                     20                     21
                      A                      A                      A
 Frequencies --    961.0381               979.5051               992.7288
 Red. masses --      1.7361                 2.1295                 1.7080
 Frc consts  --      0.9447                 1.2037                 0.9918
 IR Inten    --      7.5375                13.8273                14.1804

                     22                     23                     24
                      A                      A                      A
 Frequencies --   1038.0339              1044.0702              1063.2388
 Red. masses --      1.4109                 1.4865                 1.6252
 Frc consts  --      0.8957                 0.9547                 1.0825
 IR Inten    --      5.7119                 4.3928                10.9712

                     25                     26                     27
                      A                      A                      A
 Frequencies --   1102.4517              1122.4941              1164.9576
 Red. masses --      1.4914                 2.1633                 1.6999
 Frc consts  --      1.0680                 1.6059                 1.3592
 IR Inten    --      3.8052                39.7065                 9.5514

                     28                     29                     30
                      A                      A                      A
 Frequencies --   1195.6685              1211.3817              1220.2131
 Red. masses --      2.4746                 1.4666                 2.3120
 Frc consts  --      2.0844                 1.2680                 2.0282
 IR Inten    --      6.5451                 0.3213                 0.9631

                     31                     32                     33
                      A                      A                      A
 Frequencies --   1249.8711              1256.8055              1288.6380
 Red. masses --      1.7075                 1.7668                 2.0600
 Frc consts  --      1.5716                 1.6442                 2.0155
 IR Inten    --     14.0948                 0.2325                 5.1030

                     34                     35                     36
                      A                      A                      A
 Frequencies --   1323.8524              1381.4494              1402.4093
 Red. masses --      1.4660                 1.2239                 1.2417
 Frc consts  --      1.5138                 1.3762                 1.4389
 IR Inten    --      6.4394                 3.0147                10.0634

                     37                     38                     39
                      A                      A                      A
 Frequencies --   1476.7293              1488.4563              1494.5170
 Red. masses --      1.0932                 1.0534                 1.0621
 Frc consts  --      1.4046                 1.3751                 1.3977
 IR Inten    --      0.8163                 4.8268                 4.4898

                     40                     41                     42
                      A                      A                      A
 Frequencies --   1517.5166              1826.9699              2890.8029
 Red. masses --      1.1203                10.9857                 1.0847
 Frc consts  --      1.5200                21.6044                 5.3409
 IR Inten    --      3.6454               132.4807                81.1880

                     43                     44                     45
                      A                      A                      A
 Frequencies --   3048.4386              3073.9400              3080.2964
 Red. masses --      1.0350                 1.0566                 1.0574
 Frc consts  --      5.6671                 5.8826                 5.9109
 IR Inten    --     11.5682                36.4829                 8.2926

                     46                     47                     48
                      A                      A                      A
 Frequencies --   3120.2001              3134.6232              3138.9451
 Red. masses --      1.1007                 1.1057                 1.1068
 Frc consts  --      6.3139                 6.4014                 6.4255
 IR Inten    --     11.5965                 4.5981                25.0649

                     49                     50                     51
                      A                      A                      A
 Frequencies --   3141.9767              3143.7855              3146.4607
 Red. masses --      1.0902                 1.1062                 1.0945
 Frc consts  --      6.3409                 6.4415                 6.3844
 IR Inten    --     61.6881                16.1401                16.3460

 - Thermochemistry -
 -------------------
 Temperature   298.150 Kelvin.  Pressure   1.00000 Atm.
 Atom     1 has atomic number  6 and mass  12.00000

 Molecular mass:   126.06808 amu.
 Principal axes and moments of inertia in atomic units:
                           1         2         3
     Eigenvalues --   618.365811188.538931351.13328
           X            0.99888   0.04397   0.01767
           Y           -0.04281   0.99721  -0.06119
           Z           -0.02031   0.06036   0.99797
 This molecule is an asymmetric top.
 Rotational symmetry number  1.
 Warning -- assumption of classical behavior for rotation
           may cause significant error
 Rotational temperatures (Kelvin)      0.14007     0.07287     0.06410
 Rotational constants (GHZ):           2.91857     1.51845     1.33572
 Zero-point vibrational energy     416509.4 (Joules/Mol)
                                   99.54812 (Kcal/Mol)
 Warning -- explicit consideration of  10 degrees of freedom as
           vibrations may cause significant error
 Vibrational temperatures:     61.67   257.58   288.36   321.65   416.88
          (Kelvin)            449.84   644.00   716.66   734.92   763.50
                              963.76  1062.00  1204.30  1209.25  1233.99
                             1254.94  1309.20  1369.32  1382.72  1409.29
                             1428.31  1493.50  1502.18  1529.76  1586.18
                             1615.02  1676.11  1720.30  1742.91  1755.61
                             1798.28  1808.26  1854.06  1904.73  1987.60
                             2017.75  2124.68  2141.55  2150.27  2183.37
                             2628.60  4159.22  4386.02  4422.71  4431.85
                             4489.27  4510.02  4516.24  4520.60  4523.20
                             4527.05

 Zero-point correction=                           0.158640 (Hartree/Particle)
 Thermal correction to Energy=                    0.166742
 Thermal correction to Enthalpy=                  0.167686
 Thermal correction to Gibbs Free Energy=         0.125690
 Sum of electronic and zero-point Energies=           -423.014776
 Sum of electronic and thermal Energies=              -423.006675
 Sum of electronic and thermal Enthalpies=            -423.005730
 Sum of electronic and thermal Free Energies=         -423.047726

                     E (Thermal)             CV                S
                      KCal/Mol        Cal/Mol-Kelvin    Cal/Mol-Kelvin
 Total                  104.632             31.407             88.387
 Electronic               0.000              0.000              0.000
 Translational            0.889              2.981             40.409
 Rotational               0.889              2.981             28.387
 Vibrational            102.855             25.445             19.592
 Vibration     1          0.595              1.980              5.122
 Vibration     2          0.629              1.868              2.339
 Vibration     3          0.638              1.839              2.129
 Vibration     4          0.649              1.805              1.930
 Vibration     5          0.686              1.693              1.475
 Vibration     6          0.701              1.650              1.348
 Vibration     7          0.807              1.366              0.803
 Vibration     8          0.854              1.254              0.663
 Vibration     9          0.866              1.226              0.632
 Vibration    10          0.886              1.182              0.586

 Normal termination of Gaussian 09 at Mon Jan 27 17:37:08 2020.
