 Gaussian 09, Revision D.01,
 Gaussian 09:  ES64L-G09RevD.01 24-Apr-2013

 -----------------------------
 # b3lyp 6-31G(2df,p) opt Freq
 -----------------------------

 -----
 titel
 -----
 Symbolic Z-matrix:
 Charge =  0 Multiplicity = 1

 SCF Done:  E(RB3LYP) =  -423.142639040     A.U. after   13 cycles
 Optimization completed.
    -- Stationary point found.
 Normal termination of Gaussian 09 at Mon Jan 27 11:18:25 2020.

 ----------------------------------------------------------------------
 #N Geom=AllCheck Guess=TCheck SCRF=Check GenChk RB3LYP/6-31G(2df,p) Fr
 eq
 ----------------------------------------------------------------------

 Structure from the checkpoint file:  "/scratch/puck/g09_384d536f-d476-4d75-8fad-4e565f96385c/Gau-49373.chk"
 -----
 titel
 -----
 Charge =  0 Multiplicity = 1

                         Standard orientation:
 ---------------------------------------------------------------------
 Center     Atomic      Atomic             Coordinates (Angstroms)
 Number     Number       Type             X           Y           Z
 ---------------------------------------------------------------------
      1          6           0        0.834681   -0.197442    1.487364
      2          6           0        0.538790   -0.821467    0.135635
      3          6           0        1.724154   -0.573898   -0.795190
      4          8           0        1.722609    0.853848   -0.504650
      5          6           0        0.555171    0.683178    0.311912
      6          6           0       -0.672009    1.533338    0.125686
      7          6           0       -1.771796    0.646290   -0.500159
      8          8           0       -1.862335   -0.621961    0.137070
      9          6           0       -0.771874   -1.489862   -0.180448
     10          1           0        0.028557   -0.278901    2.209462
     11          1           0        1.840332   -0.241963    1.895542
     12          1           0        2.681975   -1.045151   -0.544972
     13          1           0        1.489546   -0.751910   -1.851891
     14          1           0       -1.019511    1.941684    1.079752
     15          1           0       -0.442373    2.374924   -0.534838
     16          1           0       -2.756519    1.108638   -0.391562
     17          1           0       -1.573052    0.510446   -1.575747
     18          1           0       -0.951808   -2.401298    0.398060
     19          1           0       -0.802044   -1.752389   -1.251960
 ---------------------------------------------------------------------

 SCF Done:  E(RB3LYP) =  -423.142639040     A.U. after    1 cycles

 The electronic state is 1-A.
 Alpha  occ. eigenvalues --  -19.14295 -19.13751 -10.23962 -10.23775 -10.23481
 Alpha  occ. eigenvalues --  -10.23228 -10.19285 -10.18986 -10.18936  -1.05252
 Alpha  occ. eigenvalues --   -1.03059  -0.84136  -0.77730  -0.70057  -0.69401
 Alpha  occ. eigenvalues --   -0.61353  -0.59398  -0.51506  -0.50787  -0.49086
 Alpha  occ. eigenvalues --   -0.47498  -0.45680  -0.45335  -0.42650  -0.41143
 Alpha  occ. eigenvalues --   -0.39202  -0.37561  -0.36765  -0.35570  -0.32982
 Alpha  occ. eigenvalues --   -0.30036  -0.26493  -0.25755  -0.22854
 Alpha virt. eigenvalues --    0.06808   0.08607   0.09394   0.11700   0.12782
 Alpha virt. eigenvalues --    0.13234   0.14222   0.15376   0.15810   0.16757
 Alpha virt. eigenvalues --    0.17342   0.17924   0.18857   0.20016   0.22695

 Mulliken charges:
               1
     1  C   -0.375972
     2  C    0.151553
     3  C   -0.145369
     4  O   -0.329145
     5  C    0.435242
     6  C   -0.319180
     7  C   -0.073488
     8  O   -0.251097
     9  C   -0.176594
    10  H    0.126794
    11  H    0.112382
    12  H    0.105216
    13  H    0.104800
    14  H    0.112254
    15  H    0.120311
    16  H    0.110669
    17  H    0.091807
    18  H    0.111168
    19  H    0.088650
 Sum of Mulliken charges =   0.00000

 Dipole moment (field-independent basis, Debye):
    X=             -0.2891    Y=             -0.5729    Z=             -0.3329  Tot=              0.7229
 Quadrupole moment (field-independent basis, Debye-Ang):
   XX=            -57.0343   YY=            -52.2538   ZZ=            -51.5181
   XY=             -5.6152   XZ=              1.4800   YZ=              1.3192

  Exact polarizability:  76.972  -5.060  73.283   0.299   1.584  71.518
 Approx polarizability: 106.159  -3.273 111.406  -2.905   1.143 108.388

                      1                      2                      3
                      A                      A                      A
 Frequencies --    113.7832               224.8748               313.0885
 Red. masses --      2.5951                 2.7513                 2.7249
 Frc consts  --      0.0198                 0.0820                 0.1574
 IR Inten    --      2.9259                 4.3262                 3.8652

                      4                      5                      6
                      A                      A                      A
 Frequencies --    345.4342               371.3102               388.5847
 Red. masses --      2.6217                 2.2564                 2.4311
 Frc consts  --      0.1843                 0.1833                 0.2163
 IR Inten    --      0.0842                 2.3343                 3.1430

                      7                      8                      9
                      A                      A                      A
 Frequencies --    465.1896               499.6217               561.8943
 Red. masses --      3.2430                 3.2819                 3.3580
 Frc consts  --      0.4135                 0.4827                 0.6247
 IR Inten    --      2.6729                 2.6690                 7.7614

                     10                     11                     12
                      A                      A                      A
 Frequencies --    669.4797               745.2408               789.8931
 Red. masses --      2.3913                 4.0234                 3.6752
 Frc consts  --      0.6315                 1.3166                 1.3510
 IR Inten    --      6.4814                 6.6816                 2.5290

                     13                     14                     15
                      A                      A                      A
 Frequencies --    835.7217               860.6566               910.2467
 Red. masses --      2.2530                 3.5049                 2.3121
 Frc consts  --      0.9271                 1.5296                 1.1287
 IR Inten    --     15.8973                 6.0436                 2.1369

                     16                     17                     18
                      A                      A                      A
 Frequencies --    923.9985               958.8792               973.6824
 Red. masses --      1.7835                 2.5632                 2.6370
 Frc consts  --      0.8972                 1.3886                 1.4730
 IR Inten    --     16.6415                10.2540                43.0493

                     19                     20                     21
                      A                      A                      A
 Frequencies --    979.0692               999.7633              1041.2870
 Red. masses --      2.4315                 1.9150                 1.9252
 Frc consts  --      1.3732                 1.1278                 1.2299
 IR Inten    --     14.6194                 2.5230                15.6548

                     22                     23                     24
                      A                      A                      A
 Frequencies --   1050.2463              1083.1388              1099.1343
 Red. masses --      1.5025                 1.7762                 5.9305
 Frc consts  --      0.9764                 1.2277                 4.2213
 IR Inten    --     13.7895                 4.9606                68.3119

                     25                     26                     27
                      A                      A                      A
 Frequencies --   1154.3587              1162.1873              1193.0355
 Red. masses --      1.3272                 1.8699                 1.9498
 Frc consts  --      1.0420                 1.4881                 1.6351
 IR Inten    --      6.5825                22.6682                 1.4777

                     28                     29                     30
                      A                      A                      A
 Frequencies --   1253.4245              1270.7463              1292.3816
 Red. masses --      1.3630                 1.5939                 1.9549
 Frc consts  --      1.2617                 1.5165                 1.9238
 IR Inten    --      8.1537                20.3950                 8.8350

                     31                     32                     33
                      A                      A                      A
 Frequencies --   1314.6986              1329.1815              1366.9673
 Red. masses --      1.3454                 1.4221                 1.4164
 Frc consts  --      1.3701                 1.4803                 1.5594
 IR Inten    --      9.5672                12.0950                 3.0239

                     34                     35                     36
                      A                      A                      A
 Frequencies --   1387.2876              1401.6135              1416.8443
 Red. masses --      1.5892                 1.5081                 1.5424
 Frc consts  --      1.8021                 1.7456                 1.8243
 IR Inten    --      6.8003                 3.6517                12.9001

                     37                     38                     39
                      A                      A                      A
 Frequencies --   1467.8802              1479.6885              1491.7511
 Red. masses --      1.1538                 1.5006                 1.1088
 Frc consts  --      1.4647                 1.9358                 1.4537
 IR Inten    --      4.5588                 7.8818                 1.2079

                     40                     41                     42
                      A                      A                      A
 Frequencies --   1498.0087              1518.1272              2958.0679
 Red. masses --      1.1369                 1.1418                 1.0704
 Frc consts  --      1.5031                 1.5504                 5.5184
 IR Inten    --      5.0960                 0.0661                53.1826

                     43                     44                     45
                      A                      A                      A
 Frequencies --   2975.1971              3016.2847              3049.8541
 Red. masses --      1.0698                 1.0549                 1.0607
 Frc consts  --      5.5794                 5.6545                 5.8131
 IR Inten    --     54.0708                81.9751                20.2111

                     46                     47                     48
                      A                      A                      A
 Frequencies --   3065.9464              3071.5985              3090.8057
 Red. masses --      1.1100                 1.0928                 1.0927
 Frc consts  --      6.1477                 6.0748                 6.1503
 IR Inten    --     39.4598                44.7621                30.9159

                     49                     50                     51
                      A                      A                      A
 Frequencies --   3102.3079              3117.5745              3215.5827
 Red. masses --      1.1042                 1.0546                 1.1165
 Frc consts  --      6.2614                 6.0391                 6.8022
 IR Inten    --     20.6496                10.7907                 5.1615

 - Thermochemistry -
 -------------------
 Temperature   298.150 Kelvin.  Pressure   1.00000 Atm.
 Atom     1 has atomic number  6 and mass  12.00000

 Molecular mass:   126.06808 amu.
 Principal axes and moments of inertia in atomic units:
                           1         2         3
     Eigenvalues --   637.860881043.893771242.17712
           X            0.99767  -0.06670   0.01432
           Y            0.06628   0.99740   0.02843
           Z           -0.01618  -0.02741   0.99949
 This molecule is an asymmetric top.
 Rotational symmetry number  1.
 Warning -- assumption of classical behavior for rotation
           may cause significant error
 Rotational temperatures (Kelvin)      0.13579     0.08297     0.06973
 Rotational constants (GHZ):           2.82936     1.72886     1.45289
 Zero-point vibrational energy     423870.5 (Joules/Mol)
                                  101.30749 (Kcal/Mol)
 Warning -- explicit consideration of   9 degrees of freedom as
           vibrations may cause significant error
 Vibrational temperatures:    163.71   323.54   450.46   497.00   534.23
          (Kelvin)            559.09   669.30   718.84   808.44   963.23
                             1072.23  1136.48  1202.42  1238.29  1309.64
                             1329.43  1379.61  1400.91  1408.66  1438.43
                             1498.18  1511.07  1558.39  1581.41  1660.86
                             1672.13  1716.51  1803.40  1828.32  1859.45
                             1891.56  1912.39  1966.76  1995.99  2016.61
                             2038.52  2111.95  2128.94  2146.29  2155.30
                             2184.24  4255.99  4280.64  4339.76  4388.05
                             4411.21  4419.34  4446.97  4463.52  4485.49
                             4626.50

 Zero-point correction=                           0.161444 (Hartree/Particle)
 Thermal correction to Energy=                    0.168575
 Thermal correction to Enthalpy=                  0.169520
 Thermal correction to Gibbs Free Energy=         0.130172
 Sum of electronic and zero-point Energies=           -422.981195
 Sum of electronic and thermal Energies=              -422.974064
 Sum of electronic and thermal Enthalpies=            -422.973120
 Sum of electronic and thermal Free Energies=         -423.012467

                     E (Thermal)             CV                S
                      KCal/Mol        Cal/Mol-Kelvin    Cal/Mol-Kelvin
 Total                  105.783             29.166             82.814
 Electronic               0.000              0.000              0.000
 Translational            0.889              2.981             40.409
 Rotational               0.889              2.981             28.205
 Vibrational            104.005             23.204             14.200
 Vibration     1          0.607              1.938              3.203
 Vibration     2          0.650              1.803              1.919
 Vibration     3          0.701              1.649              1.346
 Vibration     4          0.724              1.585              1.187
 Vibration     5          0.743              1.531              1.074
 Vibration     6          0.757              1.495              1.006
 Vibration     7          0.823              1.327              0.751
 Vibration     8          0.855              1.251              0.659
 Vibration     9          0.918              1.114              0.520

 Optimization completed.
    -- Stationary point found.
 Normal termination of Gaussian 09 at Mon Jan 27 12:09:18 2020.
