 Gaussian 09, Revision D.01,
 Gaussian 09:  ES64L-G09RevD.01 24-Apr-2013

 -----------------------------
 # b3lyp 6-31G(2df,p) opt Freq
 -----------------------------

 -----
 titel
 -----
 Symbolic Z-matrix:
 Charge =  0 Multiplicity = 1

 SCF Done:  E(RB3LYP) =  -423.154355086     A.U. after   14 cycles
 Optimization completed.
    -- Stationary point found.
 Normal termination of Gaussian 09 at Mon Jan 27 12:06:42 2020.

 ----------------------------------------------------------------------
 #N Geom=AllCheck Guess=TCheck SCRF=Check GenChk RB3LYP/6-31G(2df,p) Fr
 eq
 ----------------------------------------------------------------------

 Structure from the checkpoint file:  "/scratch/puck/g09_e4b44b37-c91f-436e-ac80-42b9ad5e1ec2/Gau-22286.chk"
 -----
 titel
 -----
 Charge =  0 Multiplicity = 1

                         Standard orientation:
 ---------------------------------------------------------------------
 Center     Atomic      Atomic             Coordinates (Angstroms)
 Number     Number       Type             X           Y           Z
 ---------------------------------------------------------------------
      1          6           0        2.331098    0.029311   -0.552036
      2          8           0        1.951238    0.219379    0.809668
      3          6           0        0.918569   -0.048361   -0.159699
      4          6           0        0.264789   -1.416521   -0.060891
      5          8           0       -1.014603   -1.361738    0.544120
      6          6           0       -1.940470   -0.650614   -0.260446
      7          6           0       -1.512378    0.787532   -0.477161
      8          6           0       -0.940512    1.553545    0.679937
      9          6           0       -0.026083    1.086718   -0.434596
     10          1           0        2.695505    0.916680   -1.069882
     11          1           0        2.890419   -0.883306   -0.762934
     12          1           0        0.180263   -1.855870   -1.070151
     13          1           0        0.884263   -2.071081    0.557326
     14          1           0       -2.059619   -1.158576   -1.233472
     15          1           0       -2.899299   -0.700237    0.265705
     16          1           0       -2.106492    1.331409   -1.205717
     17          1           0       -1.140635    2.616489    0.750131
     18          1           0       -0.857246    1.038477    1.630127
     19          1           0        0.349668    1.855225   -1.102080
 ---------------------------------------------------------------------

 SCF Done:  E(RB3LYP) =  -423.154355086     A.U. after    1 cycles

 The electronic state is 1-A.
 Alpha  occ. eigenvalues --  -19.14458 -19.14446 -10.24120 -10.23243 -10.23222
 Alpha  occ. eigenvalues --  -10.23075 -10.19685 -10.19616 -10.18457  -1.06712
 Alpha  occ. eigenvalues --   -1.03789  -0.86413  -0.75426  -0.68732  -0.65587
 Alpha  occ. eigenvalues --   -0.63727  -0.58496  -0.53795  -0.51558  -0.50493
 Alpha  occ. eigenvalues --   -0.47915  -0.46234  -0.45128  -0.42352  -0.40496
 Alpha  occ. eigenvalues --   -0.39741  -0.37731  -0.35846  -0.33836  -0.31403
 Alpha  occ. eigenvalues --   -0.28863  -0.27794  -0.26975  -0.24726
 Alpha virt. eigenvalues --    0.07254   0.09881   0.10398   0.11323   0.11600
 Alpha virt. eigenvalues --    0.13110   0.13698   0.15081   0.16299   0.16894
 Alpha virt. eigenvalues --    0.17523   0.18371   0.19104   0.20930   0.22757

 Mulliken charges:
               1
     1  C   -0.242459
     2  O   -0.273589
     3  C    0.410595
     4  C   -0.153832
     5  O   -0.241396
     6  C   -0.107539
     7  C   -0.040998
     8  C   -0.280549
     9  C   -0.119997
    10  H    0.110925
    11  H    0.108582
    12  H    0.089334
    13  H    0.121216
    14  H    0.087574
    15  H    0.112256
    16  H    0.086376
    17  H    0.111215
    18  H    0.136492
    19  H    0.085792
 Sum of Mulliken charges =   0.00000

 Dipole moment (field-independent basis, Debye):
    X=             -0.5588    Y=              0.4358    Z=             -2.5351  Tot=              2.6323
 Quadrupole moment (field-independent basis, Debye-Ang):
   XX=            -51.8075   YY=            -52.0319   ZZ=            -54.3759
   XY=             -2.8004   XZ=             -2.4480   YZ=              0.2506

  Exact polarizability:  88.353  -2.234  73.092  -2.510   1.577  63.334
 Approx polarizability: 118.993  -1.247 100.571  -2.103   1.924 104.464

                      1                      2                      3
                      A                      A                      A
 Frequencies --     81.4616               213.2284               284.7304
 Red. masses --      3.1968                 3.2877                 4.3073
 Frc consts  --      0.0125                 0.0881                 0.2057
 IR Inten    --      0.9032                 2.5772                 2.2324

                      4                      5                      6
                      A                      A                      A
 Frequencies --    301.2687               331.0957               422.9914
 Red. masses --      2.4484                 2.7130                 2.5454
 Frc consts  --      0.1309                 0.1752                 0.2683
 IR Inten    --      0.4786                 0.8517                 5.3816

                      7                      8                      9
                      A                      A                      A
 Frequencies --    433.0183               456.2644               543.8758
 Red. masses --      2.5781                 4.0391                 4.1972
 Frc consts  --      0.2848                 0.4954                 0.7315
 IR Inten    --      1.8442                 6.7818                 6.1487

                     10                     11                     12
                      A                      A                      A
 Frequencies --    654.5148               740.9648               780.9569
 Red. masses --      3.6095                 2.2249                 3.1565
 Frc consts  --      0.9110                 0.7197                 1.1343
 IR Inten    --      4.6123                17.1046                 7.7151

                     13                     14                     15
                      A                      A                      A
 Frequencies --    817.9757               839.4499               899.9064
 Red. masses --      3.0273                 1.3818                 1.5986
 Frc consts  --      1.1934                 0.5737                 0.7627
 IR Inten    --     13.3721                 9.3464                 4.8751

                     16                     17                     18
                      A                      A                      A
 Frequencies --    913.0367               937.8134               974.0648
 Red. masses --      2.4639                 2.9282                 4.2327
 Frc consts  --      1.2102                 1.5174                 2.3662
 IR Inten    --      2.4528                26.3358                22.1721

                     19                     20                     21
                      A                      A                      A
 Frequencies --   1017.1348              1042.9152              1056.5874
 Red. masses --      2.3387                 2.5640                 1.7059
 Frc consts  --      1.4255                 1.6431                 1.1221
 IR Inten    --     23.0353                10.6253                 0.1582

                     22                     23                     24
                      A                      A                      A
 Frequencies --   1074.5956              1097.3436              1107.6723
 Red. masses --      1.3708                 1.7217                 1.5176
 Frc consts  --      0.9326                 1.2215                 1.0971
 IR Inten    --      3.0260                24.0984                 3.1261

                     25                     26                     27
                      A                      A                      A
 Frequencies --   1128.4812              1131.0293              1151.4170
 Red. masses --      1.2794                 1.3927                 2.6875
 Frc consts  --      0.9599                 1.0497                 2.0992
 IR Inten    --      1.3415                 1.4356                56.4086

                     28                     29                     30
                      A                      A                      A
 Frequencies --   1172.5985              1206.4007              1259.4110
 Red. masses --      1.4801                 1.6860                 1.1650
 Frc consts  --      1.1990                 1.4457                 1.0887
 IR Inten    --      3.4497                 1.6193                 6.4656

                     31                     32                     33
                      A                      A                      A
 Frequencies --   1297.8889              1325.8027              1334.9835
 Red. masses --      1.7766                 1.4978                 1.7518
 Frc consts  --      1.7632                 1.5512                 1.8394
 IR Inten    --     23.9405                 1.5321                15.9671

                     34                     35                     36
                      A                      A                      A
 Frequencies --   1367.2837              1384.0109              1417.4564
 Red. masses --      1.4250                 2.0580                 1.3158
 Frc consts  --      1.5696                 2.3226                 1.5576
 IR Inten    --      9.6423                 5.5396                 5.9929

                     37                     38                     39
                      A                      A                      A
 Frequencies --   1447.0080              1475.2902              1489.5926
 Red. masses --      1.8657                 1.1005                 1.3967
 Frc consts  --      2.3017                 1.4112                 1.8260
 IR Inten    --      1.4002                 1.5636                 5.8568

                     40                     41                     42
                      A                      A                      A
 Frequencies --   1498.2871              1531.3125              2952.2006
 Red. masses --      1.1013                 1.3569                 1.0709
 Frc consts  --      1.4566                 1.8746                 5.4992
 IR Inten    --      1.2339                 2.7288                25.0751

                     43                     44                     45
                      A                      A                      A
 Frequencies --   2956.7428              3066.3627              3071.5226
 Red. masses --      1.0701                 1.0506                 1.0911
 Frc consts  --      5.5121                 5.8202                 6.0648
 IR Inten    --     96.2564                33.9079                34.7160

                     46                     47                     48
                      A                      A                      A
 Frequencies --   3101.4683              3140.9483              3147.3801
 Red. masses --      1.0925                 1.0542                 1.1038
 Frc consts  --      6.1914                 6.1276                 6.4425
 IR Inten    --     14.9740                10.8837                19.9201

                     49                     50                     51
                      A                      A                      A
 Frequencies --   3149.7661              3159.6713              3231.4237
 Red. masses --      1.1016                 1.0915                 1.1169
 Frc consts  --      6.4391                 6.4202                 6.8713
 IR Inten    --     13.6678                22.8323                 5.7910

 - Thermochemistry -
 -------------------
 Temperature   298.150 Kelvin.  Pressure   1.00000 Atm.
 Atom     1 has atomic number  6 and mass  12.00000

 Molecular mass:   126.06808 amu.
 Principal axes and moments of inertia in atomic units:
                           1         2         3
     Eigenvalues --   627.855411121.469021455.21047
           X            0.99954  -0.02737  -0.01342
           Y            0.02762   0.99944   0.01904
           Z            0.01290  -0.01940   0.99973
 This molecule is an asymmetric top.
 Rotational symmetry number  1.
 Warning -- assumption of classical behavior for rotation
           may cause significant error
 Rotational temperatures (Kelvin)      0.13795     0.07723     0.05952
 Rotational constants (GHZ):           2.87445     1.60927     1.24019
 Zero-point vibrational energy     422393.1 (Joules/Mol)
                                  100.95437 (Kcal/Mol)
 Warning -- explicit consideration of   9 degrees of freedom as
           vibrations may cause significant error
 Vibrational temperatures:    117.20   306.79   409.66   433.46   476.37
          (Kelvin)            608.59   623.02   656.46   782.51   941.70
                             1066.08  1123.62  1176.88  1207.78  1294.76
                             1313.65  1349.30  1401.46  1463.43  1500.52
                             1520.19  1546.10  1578.83  1593.69  1623.63
                             1627.30  1656.63  1687.11  1735.74  1812.01
                             1867.37  1907.53  1920.74  1967.21  1991.28
                             2039.40  2081.92  2122.61  2143.19  2155.70
                             2203.21  4247.55  4254.09  4411.81  4419.23
                             4462.32  4519.12  4528.37  4531.81  4546.06
                             4649.29

 Zero-point correction=                           0.160881 (Hartree/Particle)
 Thermal correction to Energy=                    0.168297
 Thermal correction to Enthalpy=                  0.169241
 Thermal correction to Gibbs Free Energy=         0.129066
 Sum of electronic and zero-point Energies=           -422.993474
 Sum of electronic and thermal Energies=              -422.986058
 Sum of electronic and thermal Enthalpies=            -422.985114
 Sum of electronic and thermal Free Energies=         -423.025289

                     E (Thermal)             CV                S
                      KCal/Mol        Cal/Mol-Kelvin    Cal/Mol-Kelvin
 Total                  105.608             29.805             84.555
 Electronic               0.000              0.000              0.000
 Translational            0.889              2.981             40.409
 Rotational               0.889              2.981             28.418
 Vibrational            103.831             23.843             15.729
 Vibration     1          0.600              1.962              3.855
 Vibration     2          0.644              1.821              2.016
 Vibration     3          0.683              1.702              1.505
 Vibration     4          0.693              1.671              1.410
 Vibration     5          0.713              1.613              1.255
 Vibration     6          0.785              1.420              0.882
 Vibration     7          0.794              1.398              0.849
 Vibration     8          0.814              1.347              0.777
 Vibration     9          0.899              1.153              0.557

 Optimization completed.
    -- Stationary point found.
 Normal termination of Gaussian 09 at Mon Jan 27 12:50:30 2020.
