 Gaussian 09, Revision D.01,
 Gaussian 09:  ES64L-G09RevD.01 24-Apr-2013

 -----------------------------
 # b3lyp 6-31G(2df,p) opt Freq
 -----------------------------

 -----
 titel
 -----
 Symbolic Z-matrix:
 Charge =  0 Multiplicity = 1

 SCF Done:  E(RB3LYP) =  -423.123333425     A.U. after   13 cycles
 Optimization completed.
    -- Stationary point found.
 Normal termination of Gaussian 09 at Tue Jan 28 11:57:29 2020.

 ----------------------------------------------------------------------
 #N Geom=AllCheck Guess=TCheck SCRF=Check GenChk RB3LYP/6-31G(2df,p) Fr
 eq
 ----------------------------------------------------------------------

 Structure from the checkpoint file:  "/scratch/puck/g09_6716f8d4-b848-4dad-a19e-2beb227e9b1e/Gau-24964.chk"
 -----
 titel
 -----
 Charge =  0 Multiplicity = 1

                         Standard orientation:
 ---------------------------------------------------------------------
 Center     Atomic      Atomic             Coordinates (Angstroms)
 Number     Number       Type             X           Y           Z
 ---------------------------------------------------------------------
      1          8           0       -0.573920    2.304276   -0.051908
      2          6           0        0.717410    1.788709    0.207330
      3          6           0        0.892964    0.399789   -0.384318
      4          8           0        2.243433   -0.105062   -0.266835
      5          6           0        1.768234   -1.375588    0.221628
      6          6           0        0.342855   -0.816493    0.400706
      7          6           0       -0.846998   -1.591312   -0.172947
      8          6           0       -2.086406   -0.826803   -0.070038
      9          6           0       -3.082275   -0.160089    0.039663
     10          1           0       -1.226299    1.652648    0.235855
     11          1           0        1.431591    2.472424   -0.264088
     12          1           0        0.950541    1.760694    1.284340
     13          1           0        0.561636    0.414772   -1.433898
     14          1           0        1.848312   -2.162720   -0.542521
     15          1           0        2.300109   -1.698042    1.122977
     16          1           0        0.140111   -0.553577    1.443322
     17          1           0       -0.653676   -1.842975   -1.223693
     18          1           0       -0.960727   -2.545199    0.358287
     19          1           0       -3.982413    0.398985    0.117219
 ---------------------------------------------------------------------

 SCF Done:  E(RB3LYP) =  -423.123333425     A.U. after    1 cycles

 The electronic state is 1-A.
 Alpha  occ. eigenvalues --  -19.13752 -19.12925 -10.23777 -10.23417 -10.22467
 Alpha  occ. eigenvalues --  -10.22259 -10.20789 -10.20012 -10.18856  -1.04428
 Alpha  occ. eigenvalues --   -1.01018  -0.82074  -0.75163  -0.73162  -0.69044
 Alpha  occ. eigenvalues --   -0.63840  -0.56524  -0.54358  -0.51415  -0.49129
 Alpha  occ. eigenvalues --   -0.48300  -0.46886  -0.44896  -0.43849  -0.41313
 Alpha  occ. eigenvalues --   -0.39487  -0.37853  -0.35739  -0.32104  -0.30518
 Alpha  occ. eigenvalues --   -0.28100  -0.28072  -0.27101  -0.24855
 Alpha virt. eigenvalues --    0.03384   0.03980   0.06633   0.09202   0.09826
 Alpha virt. eigenvalues --    0.11642   0.12135   0.12886   0.14664   0.15522
 Alpha virt. eigenvalues --    0.17029   0.17760   0.18417   0.19605   0.20473

 Mulliken charges:
               1
     1  O   -0.421040
     2  C   -0.091476
     3  C    0.124854
     4  O   -0.291616
     5  C   -0.102517
     6  C   -0.048215
     7  C   -0.376337
     8  C    0.293720
     9  C   -0.438794
    10  H    0.286102
    11  H    0.117974
    12  H    0.084584
    13  H    0.079611
    14  H    0.097048
    15  H    0.109520
    16  H    0.093188
    17  H    0.137721
    18  H    0.137660
    19  H    0.208014
 Sum of Mulliken charges =   0.00000

 Dipole moment (field-independent basis, Debye):
    X=             -1.1036    Y=             -2.4714    Z=              0.8723  Tot=              2.8437
 Quadrupole moment (field-independent basis, Debye-Ang):
   XX=            -54.3521   YY=            -55.0770   ZZ=            -52.8656
   XY=             -1.5588   XZ=              0.3988   YZ=              0.7072

  Exact polarizability:  91.892  -8.902  79.617   0.588   0.148  58.927
 Approx polarizability: 131.464 -19.816 114.040  -1.405   0.136  90.874

                      1                      2                      3
                      A                      A                      A
 Frequencies --     52.6685                88.7649               111.4407
 Red. masses --      3.9365                 4.1448                 3.6908
 Frc consts  --      0.0064                 0.0192                 0.0270
 IR Inten    --      0.6150                 1.1543                 1.0520

                      4                      5                      6
                      A                      A                      A
 Frequencies --    149.8910               218.3803               275.8147
 Red. masses --      3.0850                 3.5020                 2.2145
 Frc consts  --      0.0408                 0.0984                 0.0993
 IR Inten    --      0.5907                 2.5812                 3.7537

                      7                      8                      9
                      A                      A                      A
 Frequencies --    319.6275               348.6446               390.3246
 Red. masses --      3.6657                 2.8175                 1.1345
 Frc consts  --      0.2206                 0.2018                 0.1018
 IR Inten    --      4.1900                 2.3394               109.9468

                     10                     11                     12
                      A                      A                      A
 Frequencies --    416.2206               464.0286               519.1951
 Red. masses --      4.8192                 3.7969                 3.7588
 Frc consts  --      0.4919                 0.4817                 0.5970
 IR Inten    --      2.8739                 0.2992                 0.8428

                     13                     14                     15
                      A                      A                      A
 Frequencies --    630.4615               655.4682               739.3473
 Red. masses --      1.2130                 1.2245                 3.3328
 Frc consts  --      0.2841                 0.3100                 1.0734
 IR Inten    --     45.8079                49.0833                 8.6131

                     16                     17                     18
                      A                      A                      A
 Frequencies --    798.2331               899.4570               945.2341
 Red. masses --      2.2613                 1.5797                 1.7867
 Frc consts  --      0.8489                 0.7530                 0.9406
 IR Inten    --     10.5165                 3.1707                 3.7087

                     19                     20                     21
                      A                      A                      A
 Frequencies --    952.9281              1003.4547              1028.0234
 Red. masses --      2.2766                 3.6808                 8.9541
 Frc consts  --      1.2180                 2.1837                 5.5754
 IR Inten    --      1.4392                19.6627                79.8815

                     22                     23                     24
                      A                      A                      A
 Frequencies --   1057.2511              1071.8178              1102.6201
 Red. masses --      2.8782                 4.8692                 2.9910
 Frc consts  --      1.8955                 3.2957                 2.1425
 IR Inten    --      2.5636                86.2569                10.7746

                     25                     26                     27
                      A                      A                      A
 Frequencies --   1114.5537              1145.9902              1167.9157
 Red. masses --      2.2383                 2.0808                 1.1543
 Frc consts  --      1.6382                 1.6101                 0.9276
 IR Inten    --      2.4038                 3.5000                 0.2608

                     28                     29                     30
                      A                      A                      A
 Frequencies --   1173.0716              1243.8799              1274.5371
 Red. masses --      1.1261                 1.3100                 1.2430
 Frc consts  --      0.9130                 1.1942                 1.1896
 IR Inten    --      3.2502                 8.6811                 6.4956

                     31                     32                     33
                      A                      A                      A
 Frequencies --   1276.8839              1309.3312              1338.3863
 Red. masses --      1.2583                 1.3373                 1.3229
 Frc consts  --      1.2088                 1.3508                 1.3962
 IR Inten    --      1.3718                 7.1221                 2.8710

                     34                     35                     36
                      A                      A                      A
 Frequencies --   1358.4324              1384.1192              1409.5460
 Red. masses --      1.4245                 1.3142                 1.5157
 Frc consts  --      1.5488                 1.4834                 1.7743
 IR Inten    --      4.2218                 8.3498                 8.6830

                     37                     38                     39
                      A                      A                      A
 Frequencies --   1429.5315              1471.9446              1508.0482
 Red. masses --      1.3615                 1.0933                 1.0885
 Frc consts  --      1.6393                 1.3957                 1.4585
 IR Inten    --     15.7107                 4.5900                 0.8950

                     40                     41                     42
                      A                      A                      A
 Frequencies --   1523.5970              2229.1003              2970.8150
 Red. masses --      1.1092                 5.9374                 1.0709
 Frc consts  --      1.5171                17.3822                 5.5684
 IR Inten    --      0.9863                 2.3238                29.3757

                     43                     44                     45
                      A                      A                      A
 Frequencies --   2990.5194              2998.3736              3020.2397
 Red. masses --      1.0738                 1.0731                 1.0585
 Frc consts  --      5.6580                 5.6841                 5.6889
 IR Inten    --     73.1556                57.1960                20.9252

                     46                     47                     48
                      A                      A                      A
 Frequencies --   3048.4735              3059.8978              3073.2598
 Red. masses --      1.0952                 1.0977                 1.0930
 Frc consts  --      5.9967                 6.0556                 6.0823
 IR Inten    --      5.9940                11.1269                22.4836

                     49                     50                     51
                      A                      A                      A
 Frequencies --   3075.6276              3500.2217              3756.6132
 Red. masses --      1.0940                 1.1617                 1.0666
 Frc consts  --      6.0970                 8.3857                 8.8686
 IR Inten    --     64.6797                74.7227                84.9871

 - Thermochemistry -
 -------------------
 Temperature   298.150 Kelvin.  Pressure   1.00000 Atm.
 Atom     1 has atomic number  8 and mass  15.99491

 Molecular mass:   126.06808 amu.
 Principal axes and moments of inertia in atomic units:
                           1         2         3
     Eigenvalues --   859.821551292.307392040.85426
           X            0.99978  -0.02068   0.00452
           Y            0.02065   0.99977   0.00583
           Z           -0.00464  -0.00573   0.99997
 This molecule is an asymmetric top.
 Rotational symmetry number  1.
 Warning -- assumption of classical behavior for rotation
           may cause significant error
 Rotational temperatures (Kelvin)      0.10073     0.06702     0.04244
 Rotational constants (GHZ):           2.09897     1.39653     0.88431
 Zero-point vibrational energy     413263.2 (Joules/Mol)
                                   98.77227 (Kcal/Mol)
 Warning -- explicit consideration of  12 degrees of freedom as
           vibrations may cause significant error
 Vibrational temperatures:     75.78   127.71   160.34   215.66   314.20
          (Kelvin)            396.84   459.87   501.62   561.59   598.85
                              667.63   747.00   907.09   943.07  1063.75
                             1148.48  1294.12  1359.98  1371.05  1443.75
                             1479.09  1521.15  1542.10  1586.42  1603.59
                             1648.82  1680.37  1687.79  1789.66  1833.77
                             1837.15  1883.83  1925.64  1954.48  1991.44
                             2028.02  2056.77  2117.80  2169.74  2192.11
                             3207.17  4274.33  4302.69  4313.99  4345.45
                             4386.07  4402.51  4421.73  4425.14  5036.03
                             5404.92

 Zero-point correction=                           0.157404 (Hartree/Particle)
 Thermal correction to Energy=                    0.166931
 Thermal correction to Enthalpy=                  0.167875
 Thermal correction to Gibbs Free Energy=         0.122421
 Sum of electronic and zero-point Energies=           -422.965930
 Sum of electronic and thermal Energies=              -422.956403
 Sum of electronic and thermal Enthalpies=            -422.955459
 Sum of electronic and thermal Free Energies=         -423.000912

                     E (Thermal)             CV                S
                      KCal/Mol        Cal/Mol-Kelvin    Cal/Mol-Kelvin
 Total                  104.751             34.632             95.665
 Electronic               0.000              0.000              0.000
 Translational            0.889              2.981             40.409
 Rotational               0.889              2.981             29.207
 Vibrational            102.973             28.671             26.049
 Vibration     1          0.596              1.977              4.715
 Vibration     2          0.602              1.957              3.687
 Vibration     3          0.607              1.940              3.244
 Vibration     4          0.618              1.903              2.674
 Vibration     5          0.646              1.813              1.972
 Vibration     6          0.677              1.718              1.559
 Vibration     7          0.706              1.636              1.312
 Vibration     8          0.726              1.578              1.172
 Vibration     9          0.758              1.491              0.999
 Vibration    10          0.779              1.435              0.905
 Vibration    11          0.822              1.330              0.754
 Vibration    12          0.874              1.207              0.612

 Optimization completed.
    -- Stationary point found.
 Normal termination of Gaussian 09 at Tue Jan 28 12:36:43 2020.
