 Gaussian 09, Revision D.01,
 Gaussian 09:  ES64L-G09RevD.01 24-Apr-2013

 -----------------------------
 # b3lyp 6-31G(2df,p) opt Freq
 -----------------------------

 -----
 titel
 -----
 Symbolic Z-matrix:
 Charge =  0 Multiplicity = 1

 SCF Done:  E(RB3LYP) =  -423.130862145     A.U. after   13 cycles
 Optimization completed.
    -- Stationary point found.
 Normal termination of Gaussian 09 at Mon Jan 27 22:59:11 2020.

 ----------------------------------------------------------------------
 #N Geom=AllCheck Guess=TCheck SCRF=Check GenChk RB3LYP/6-31G(2df,p) Fr
 eq
 ----------------------------------------------------------------------

 Structure from the checkpoint file:  "/scratch/puck/g09_d816809e-59ae-42ed-984c-76ddb288e264/Gau-65374.chk"
 -----
 titel
 -----
 Charge =  0 Multiplicity = 1

                         Standard orientation:
 ---------------------------------------------------------------------
 Center     Atomic      Atomic             Coordinates (Angstroms)
 Number     Number       Type             X           Y           Z
 ---------------------------------------------------------------------
      1          6           0       -2.386713   -0.779579   -0.183458
      2          6           0       -0.927052   -0.620159   -0.574990
      3          6           0        0.123868   -1.202587    0.421812
      4          8           0       -0.026164   -0.008599    1.227563
      5          6           0       -0.197628    0.673827   -0.049534
      6          6           0       -0.803112    2.044861    0.027415
      7          6           0        1.209736    0.475526   -0.698362
      8          8           0        2.228838    0.125284    0.239974
      9          6           0        1.449087   -0.921191   -0.341510
     10          1           0       -3.026499   -0.113758   -0.772866
     11          1           0       -2.727028   -1.804751   -0.364158
     12          1           0       -2.532829   -0.550781    0.875065
     13          1           0       -0.763904   -0.858937   -1.632825
     14          1           0       -0.005899   -2.136632    0.967736
     15          1           0       -0.182084    2.693147    0.653585
     16          1           0       -0.863952    2.491194   -0.970810
     17          1           0       -1.808886    2.013147    0.454821
     18          1           0        1.516264    0.969693   -1.614117
     19          1           0        1.964319   -1.659984   -0.944973
 ---------------------------------------------------------------------

 SCF Done:  E(RB3LYP) =  -423.130862145     A.U. after    1 cycles

 The electronic state is 1-A.
 Alpha  occ. eigenvalues --  -19.14972 -19.13589 -10.24640 -10.24060 -10.23295
 Alpha  occ. eigenvalues --  -10.23158 -10.19986 -10.18407 -10.17980  -1.09042
 Alpha  occ. eigenvalues --   -1.03104  -0.78982  -0.75627  -0.72227  -0.66267
 Alpha  occ. eigenvalues --   -0.62249  -0.57754  -0.54500  -0.51055  -0.49627
 Alpha  occ. eigenvalues --   -0.46131  -0.45256  -0.42573  -0.39929  -0.39495
 Alpha  occ. eigenvalues --   -0.39287  -0.38124  -0.36847  -0.35876  -0.32895
 Alpha  occ. eigenvalues --   -0.30608  -0.29240  -0.26446  -0.24300
 Alpha virt. eigenvalues --    0.07815   0.08346   0.09639   0.11579   0.12386
 Alpha virt. eigenvalues --    0.13307   0.14760   0.15203   0.15379   0.16540
 Alpha virt. eigenvalues --    0.16797   0.17023   0.17914   0.20739   0.21388

 Mulliken charges:
               1
     1  C   -0.429926
     2  C   -0.018772
     3  C    0.002402
     4  O   -0.297029
     5  C    0.367578
     6  C   -0.513231
     7  C   -0.019660
     8  O   -0.229552
     9  C    0.021663
    10  H    0.116983
    11  H    0.116299
    12  H    0.136500
    13  H    0.065383
    14  H    0.083158
    15  H    0.143016
    16  H    0.121158
    17  H    0.130047
    18  H    0.100739
    19  H    0.103245
 Sum of Mulliken charges =   0.00000

 Dipole moment (field-independent basis, Debye):
    X=             -1.7268    Y=             -0.6039    Z=             -2.4932  Tot=              3.0924
 Quadrupole moment (field-independent basis, Debye-Ang):
   XX=            -56.9004   YY=            -48.1806   ZZ=            -54.4498
   XY=             -1.5487   XZ=             -2.4223   YZ=             -0.9890

  Exact polarizability:  79.920  -0.943  78.711  -1.305  -1.810  62.987
 Approx polarizability: 109.418  -0.429 115.474   2.098  -2.510 103.825

                      1                      2                      3
                      A                      A                      A
 Frequencies --    203.4354               213.8730               222.2174
 Red. masses --      1.1231                 2.4129                 2.3629
 Frc consts  --      0.0274                 0.0650                 0.0687
 IR Inten    --      0.3911                 1.0384                 1.5272

                      4                      5                      6
                      A                      A                      A
 Frequencies --    241.6284               269.3439               317.6664
 Red. masses --      1.0803                 3.3729                 2.6552
 Frc consts  --      0.0372                 0.1442                 0.1579
 IR Inten    --      0.1987                 1.6928                 2.1148

                      7                      8                      9
                      A                      A                      A
 Frequencies --    428.4904               463.6677               506.3567
 Red. masses --      4.9133                 3.1222                 5.6964
 Frc consts  --      0.5315                 0.3955                 0.8605
 IR Inten    --      0.1111                 0.7074                 4.4942

                     10                     11                     12
                      A                      A                      A
 Frequencies --    621.9787               700.8877               724.9318
 Red. masses --      3.9338                 4.2298                 4.3158
 Frc consts  --      0.8966                 1.2242                 1.3363
 IR Inten    --      2.7135                23.7272                 1.2231

                     13                     14                     15
                      A                      A                      A
 Frequencies --    805.7673               819.9108               836.1126
 Red. masses --      2.0742                 2.6751                 2.2832
 Frc consts  --      0.7934                 1.0596                 0.9404
 IR Inten    --     10.0766                 3.1150                 0.6509

                     16                     17                     18
                      A                      A                      A
 Frequencies --    858.0979               882.2055               899.8217
 Red. masses --      2.7237                 3.5123                 2.2327
 Frc consts  --      1.1816                 1.6106                 1.0651
 IR Inten    --      7.0931                14.9723                29.8092

                     19                     20                     21
                      A                      A                      A
 Frequencies --    917.6825               970.0866               998.6405
 Red. masses --      3.2318                 2.4948                 3.2724
 Frc consts  --      1.6035                 1.3833                 1.9228
 IR Inten    --      8.0798                22.9995                25.7674

                     22                     23                     24
                      A                      A                      A
 Frequencies --   1041.5945              1065.5468              1077.5259
 Red. masses --      1.2808                 1.3368                 2.0724
 Frc consts  --      0.8187                 0.8943                 1.4177
 IR Inten    --      3.4024                 3.3182                 4.4992

                     25                     26                     27
                      A                      A                      A
 Frequencies --   1112.6608              1127.2575              1160.6306
 Red. masses --      2.0920                 1.9846                 1.9998
 Frc consts  --      1.5260                 1.4858                 1.5872
 IR Inten    --      2.3839                 9.6411                 5.5139

                     28                     29                     30
                      A                      A                      A
 Frequencies --   1212.8644              1225.8713              1239.9392
 Red. masses --      1.5158                 1.5837                 1.5257
 Frc consts  --      1.3138                 1.4022                 1.3820
 IR Inten    --      3.7054                 1.6902                 4.0782

                     31                     32                     33
                      A                      A                      A
 Frequencies --   1267.0723              1277.1420              1318.6945
 Red. masses --      1.5535                 1.5891                 2.5452
 Frc consts  --      1.4695                 1.5271                 2.6077
 IR Inten    --      3.0769                 6.2429                11.6272

                     34                     35                     36
                      A                      A                      A
 Frequencies --   1367.7134              1404.6478              1409.2172
 Red. masses --      1.7594                 1.4846                 1.5788
 Frc consts  --      1.9391                 1.7258                 1.8473
 IR Inten    --     11.0961                 7.9647                 2.8155

                     37                     38                     39
                      A                      A                      A
 Frequencies --   1420.1407              1479.4381              1490.4059
 Red. masses --      1.9689                 1.0499                 1.0499
 Frc consts  --      2.3395                 1.3540                 1.3741
 IR Inten    --     13.4468                 2.7061                 8.5060

                     40                     41                     42
                      A                      A                      A
 Frequencies --   1499.0694              1506.1072              3032.5343
 Red. masses --      1.0488                 1.0488                 1.0587
 Frc consts  --      1.3887                 1.4017                 5.7361
 IR Inten    --      0.3033                 4.7337                26.7555

                     43                     44                     45
                      A                      A                      A
 Frequencies --   3037.9809              3040.3072              3094.1000
 Red. masses --      1.0516                 1.0450                 1.1007
 Frc consts  --      5.7185                 5.6910                 6.2085
 IR Inten    --     26.0840                20.7502                20.9287

                     46                     47                     48
                      A                      A                      A
 Frequencies --   3108.7976              3118.9909              3125.2392
 Red. masses --      1.1003                 1.1016                 1.0998
 Frc consts  --      6.2655                 6.3139                 6.3289
 IR Inten    --     10.9078                13.8586                15.7698

                     49                     50                     51
                      A                      A                      A
 Frequencies --   3126.7248              3170.6594              3185.6017
 Red. masses --      1.0912                 1.0879                 1.0979
 Frc consts  --      6.2852                 6.4440                 6.5643
 IR Inten    --     37.6854                14.0344                17.8794

 - Thermochemistry -
 -------------------
 Temperature   298.150 Kelvin.  Pressure   1.00000 Atm.
 Atom     1 has atomic number  6 and mass  12.00000

 Molecular mass:   126.06808 amu.
 Principal axes and moments of inertia in atomic units:
                           1         2         3
     Eigenvalues --   633.194201042.032791325.48213
           X            0.99993  -0.00707  -0.00933
           Y            0.00706   0.99997  -0.00201
           Z            0.00935   0.00195   0.99995
 This molecule is an asymmetric top.
 Rotational symmetry number  1.
 Warning -- assumption of classical behavior for rotation
           may cause significant error
 Rotational temperatures (Kelvin)      0.13679     0.08312     0.06535
 Rotational constants (GHZ):           2.85022     1.73194     1.36157
 Zero-point vibrational energy     416583.2 (Joules/Mol)
                                   99.56578 (Kcal/Mol)
 Warning -- explicit consideration of   9 degrees of freedom as
           vibrations may cause significant error
 Vibrational temperatures:    292.70   307.72   319.72   347.65   387.53
          (Kelvin)            457.05   616.50   667.11   728.53   894.89
                             1008.42  1043.01  1159.32  1179.67  1202.98
                             1234.61  1269.30  1294.64  1320.34  1395.74
                             1436.82  1498.62  1533.08  1550.32  1600.87
                             1621.87  1669.89  1745.04  1763.75  1783.99
                             1823.03  1837.52  1897.30  1967.83  2020.97
                             2027.55  2043.26  2128.58  2144.36  2156.82
                             2166.95  4363.14  4370.97  4374.32  4451.71
                             4472.86  4487.53  4496.52  4498.65  4561.87
                             4583.36

 Zero-point correction=                           0.158668 (Hartree/Particle)
 Thermal correction to Energy=                    0.166403
 Thermal correction to Enthalpy=                  0.167347
 Thermal correction to Gibbs Free Energy=         0.127078
 Sum of electronic and zero-point Energies=           -422.972194
 Sum of electronic and thermal Energies=              -422.964459
 Sum of electronic and thermal Enthalpies=            -422.963515
 Sum of electronic and thermal Free Energies=         -423.003784

                     E (Thermal)             CV                S
                      KCal/Mol        Cal/Mol-Kelvin    Cal/Mol-Kelvin
 Total                  104.419             31.307             84.753
 Electronic               0.000              0.000              0.000
 Translational            0.889              2.981             40.409
 Rotational               0.889              2.981             28.260
 Vibrational            102.642             25.346             16.084
 Vibration     1          0.639              1.835              2.102
 Vibration     2          0.644              1.820              2.010
 Vibration     3          0.648              1.807              1.941
 Vibration     4          0.658              1.777              1.791
 Vibration     5          0.674              1.730              1.600
 Vibration     6          0.704              1.640              1.322
 Vibration     7          0.790              1.408              0.864
 Vibration     8          0.821              1.331              0.756
 Vibration     9          0.862              1.236              0.642

 Optimization completed.
    -- Stationary point found.
 Normal termination of Gaussian 09 at Mon Jan 27 23:44:32 2020.
