 Gaussian 09, Revision D.01,
 Gaussian 09:  ES64L-G09RevD.01 24-Apr-2013

 -----------------------------
 # b3lyp 6-31G(2df,p) opt Freq
 -----------------------------

 -----
 titel
 -----
 Symbolic Z-matrix:
 Charge =  0 Multiplicity = 1

 SCF Done:  E(RB3LYP) =  -423.220259095     A.U. after   14 cycles
 Optimization completed.
    -- Stationary point found.
 Normal termination of Gaussian 09 at Tue Jan 28 00:42:11 2020.

 ----------------------------------------------------------------------
 #N Geom=AllCheck Guess=TCheck SCRF=Check GenChk RB3LYP/6-31G(2df,p) Fr
 eq
 ----------------------------------------------------------------------

 Structure from the checkpoint file:  "/scratch/puck/g09_d3363930-c2d3-483b-a9d6-c6336683d63d/Gau-36885.chk"
 -----
 titel
 -----
 Charge =  0 Multiplicity = 1

                         Standard orientation:
 ---------------------------------------------------------------------
 Center     Atomic      Atomic             Coordinates (Angstroms)
 Number     Number       Type             X           Y           Z
 ---------------------------------------------------------------------
      1          6           0       -2.348736    0.974182    0.313733
      2          6           0       -0.876475    0.557155    0.356128
      3          6           0        0.001141    1.491976   -0.453180
      4          6           0        1.328886    1.469864   -0.389238
      5          6           0        2.051723    0.442455    0.444784
      6          6           0        1.795344   -0.980809   -0.050407
      7          8           0        0.474892   -1.527198    0.103143
      8          6           0       -0.725712   -0.912236   -0.060164
      9          8           0       -1.658681   -1.580308   -0.415122
     10          1           0       -2.960705    0.325474    0.942554
     11          1           0       -2.453441    2.006414    0.661955
     12          1           0       -2.739332    0.908324   -0.705123
     13          1           0       -0.526769    0.592666    1.399254
     14          1           0       -0.513407    2.208632   -1.087688
     15          1           0        1.918984    2.172701   -0.969751
     16          1           0        3.134370    0.600575    0.401538
     17          1           0        1.768494    0.520734    1.503695
     18          1           0        2.054569   -1.045108   -1.114682
     19          1           0        2.430520   -1.685885    0.494147
 ---------------------------------------------------------------------

 SCF Done:  E(RB3LYP) =  -423.220259095     A.U. after    1 cycles

 The electronic state is 1-A.
 Alpha  occ. eigenvalues --  -19.16947 -19.11742 -10.30296 -10.25217 -10.20879
 Alpha  occ. eigenvalues --  -10.20425 -10.19601 -10.19426 -10.17745  -1.08661
 Alpha  occ. eigenvalues --   -1.00866  -0.83245  -0.79150  -0.73136  -0.67104
 Alpha  occ. eigenvalues --   -0.64593  -0.55736  -0.54654  -0.49906  -0.49712
 Alpha  occ. eigenvalues --   -0.48882  -0.44732  -0.42824  -0.41970  -0.41360
 Alpha  occ. eigenvalues --   -0.39168  -0.38464  -0.36699  -0.36000  -0.33457
 Alpha  occ. eigenvalues --   -0.32426  -0.29498  -0.27566  -0.24407
 Alpha virt. eigenvalues --   -0.00404   0.01833   0.08519   0.09343   0.11573
 Alpha virt. eigenvalues --    0.11935   0.13474   0.15183   0.16085   0.16765
 Alpha virt. eigenvalues --    0.17009   0.17829   0.19856   0.20964   0.22786

 Mulliken charges:
               1
     1  C   -0.402692
     2  C   -0.157820
     3  C   -0.045698
     4  C   -0.084347
     5  C   -0.280063
     6  C   -0.045890
     7  O   -0.242655
     8  C    0.404810
     9  O   -0.302202
    10  H    0.131715
    11  H    0.109343
    12  H    0.134369
    13  H    0.110863
    14  H    0.100380
    15  H    0.098961
    16  H    0.111621
    17  H    0.121341
    18  H    0.117620
    19  H    0.120344
 Sum of Mulliken charges =   0.00000

 Dipole moment (field-independent basis, Debye):
    X=              2.8303    Y=              2.7688    Z=              0.7313  Tot=              4.0264
 Quadrupole moment (field-independent basis, Debye-Ang):
   XX=            -51.1450   YY=            -58.3885   ZZ=            -52.0267
   XY=             -4.8187   XZ=             -1.4644   YZ=             -1.9863

  Exact polarizability: 100.131   0.032  73.377   1.532  -2.888  58.768
 Approx polarizability: 145.764   5.702 104.476   6.053  -3.119  92.451

                      1                      2                      3
                      A                      A                      A
 Frequencies --     73.9061                79.7874               216.2249
 Red. masses --      6.5287                 3.0161                 1.7992
 Frc consts  --      0.0210                 0.0113                 0.0496
 IR Inten    --      1.3413                 3.6230                 1.3535

                      4                      5                      6
                      A                      A                      A
 Frequencies --    223.3400               280.6293               293.8016
 Red. masses --      1.3008                 2.3494                 3.2290
 Frc consts  --      0.0382                 0.1090                 0.1642
 IR Inten    --      0.9383                 1.6470                 2.0677

                      7                      8                      9
                      A                      A                      A
 Frequencies --    342.5343               362.4333               475.9133
 Red. masses --      3.3415                 3.3742                 3.5520
 Frc consts  --      0.2310                 0.2611                 0.4740
 IR Inten    --      0.3801                 3.4013                 0.1133

                     10                     11                     12
                      A                      A                      A
 Frequencies --    558.9252               570.3266               611.6984
 Red. masses --      4.1934                 4.2419                 2.3198
 Frc consts  --      0.7718                 0.8129                 0.5114
 IR Inten    --      9.8823                 1.0622                 2.4716

                     13                     14                     15
                      A                      A                      A
 Frequencies --    709.9090               725.6086               822.4480
 Red. masses --      1.8098                 3.3446                 2.3301
 Frc consts  --      0.5374                 1.0375                 0.9286
 IR Inten    --     26.6091                10.3162                 9.7774

                     16                     17                     18
                      A                      A                      A
 Frequencies --    861.1702               889.8802               959.8349
 Red. masses --      2.5965                 2.5792                 1.7512
 Frc consts  --      1.1345                 1.2034                 0.9506
 IR Inten    --      1.9674                 4.0213                 6.4897

                     19                     20                     21
                      A                      A                      A
 Frequencies --    990.3928              1018.6195              1034.1911
 Red. masses --      1.3207                 2.2946                 1.8392
 Frc consts  --      0.7633                 1.4028                 1.1590
 IR Inten    --      1.9102                15.2362                 7.3762

                     22                     23                     24
                      A                      A                      A
 Frequencies --   1073.2713              1082.0179              1116.1463
 Red. masses --      1.9184                 3.0457                 2.8330
 Frc consts  --      1.3020                 2.1009                 2.0794
 IR Inten    --      7.3676                35.4001                51.9283

                     25                     26                     27
                      A                      A                      A
 Frequencies --   1144.0951              1173.2249              1230.0046
 Red. masses --      1.7230                 3.2907                 1.3060
 Frc consts  --      1.3288                 2.6687                 1.1642
 IR Inten    --      2.2464               197.4016                30.5654

                     28                     29                     30
                      A                      A                      A
 Frequencies --   1249.9768              1284.0364              1305.8091
 Red. masses --      1.1133                 1.5412                 1.2139
 Frc consts  --      1.0249                 1.4971                 1.2195
 IR Inten    --      2.2046                13.1541                40.5903

                     31                     32                     33
                      A                      A                      A
 Frequencies --   1323.4961              1361.5352              1404.8509
 Red. masses --      1.3931                 1.3721                 1.4662
 Frc consts  --      1.4377                 1.4986                 1.7049
 IR Inten    --      1.7912                10.0148                 1.9652

                     34                     35                     36
                      A                      A                      A
 Frequencies --   1416.2215              1438.3117              1475.4792
 Red. masses --      1.2851                 1.3220                 1.1033
 Frc consts  --      1.5187                 1.6113                 1.4152
 IR Inten    --     11.4545                13.4386                 5.6316

                     37                     38                     39
                      A                      A                      A
 Frequencies --   1490.1952              1493.4061              1505.6527
 Red. masses --      1.0437                 1.0493                 1.0973
 Frc consts  --      1.3656                 1.3788                 1.4656
 IR Inten    --      5.4336                 4.9846                 6.4512

                     40                     41                     42
                      A                      A                      A
 Frequencies --   1721.8462              1825.9610              2989.5627
 Red. masses --      7.1249                12.2863                 1.0806
 Frc consts  --     12.4457                24.1355                 5.6902
 IR Inten    --      2.9758               289.6761                13.9944

                     43                     44                     45
                      A                      A                      A
 Frequencies --   3013.6641              3027.8277              3048.6229
 Red. masses --      1.0682                 1.0615                 1.0369
 Frc consts  --      5.7160                 5.7336                 5.6779
 IR Inten    --     11.9597                42.6060                19.4473

                     46                     47                     48
                      A                      A                      A
 Frequencies --   3077.5432              3085.9626              3119.6846
 Red. masses --      1.0955                 1.1017                 1.1010
 Frc consts  --      6.1130                 6.1815                 6.3134
 IR Inten    --     23.7862                35.9685                18.1465

                     49                     50                     51
                      A                      A                      A
 Frequencies --   3139.3857              3157.8004              3181.6654
 Red. masses --      1.1011                 1.0840                 1.0982
 Frc consts  --      6.3941                 6.3686                 6.5502
 IR Inten    --     13.0048                 2.7339                20.6502

 - Thermochemistry -
 -------------------
 Temperature   298.150 Kelvin.  Pressure   1.00000 Atm.
 Atom     1 has atomic number  6 and mass  12.00000

 Molecular mass:   126.06808 amu.
 Principal axes and moments of inertia in atomic units:
                           1         2         3
     Eigenvalues --   748.545361116.609141706.49735
           X            0.99621  -0.08682  -0.00594
           Y            0.08678   0.99620  -0.00714
           Z            0.00654   0.00660   0.99996
 This molecule is an asymmetric top.
 Rotational symmetry number  1.
 Warning -- assumption of classical behavior for rotation
           may cause significant error
 Rotational temperatures (Kelvin)      0.11571     0.07757     0.05076
 Rotational constants (GHZ):           2.41100     1.61627     1.05757
 Zero-point vibrational energy     419044.9 (Joules/Mol)
                                  100.15413 (Kcal/Mol)
 Warning -- explicit consideration of  12 degrees of freedom as
           vibrations may cause significant error
 Vibrational temperatures:    106.33   114.80   311.10   321.34   403.76
          (Kelvin)            422.71   492.83   521.46   684.73   804.17
                              820.57   880.10  1021.40  1043.99  1183.32
                             1239.03  1280.34  1380.99  1424.95  1465.56
                             1487.97  1544.20  1556.78  1605.88  1646.10
                             1688.01  1769.70  1798.44  1847.44  1878.77
                             1904.21  1958.94  2021.26  2037.62  2069.41
                             2122.88  2144.06  2148.68  2166.30  2477.35
                             2627.15  4301.31  4335.99  4356.36  4386.28
                             4427.89  4440.01  4488.52  4516.87  4543.36
                             4577.70

 Zero-point correction=                           0.159606 (Hartree/Particle)
 Thermal correction to Energy=                    0.168189
 Thermal correction to Enthalpy=                  0.169133
 Thermal correction to Gibbs Free Energy=         0.126128
 Sum of electronic and zero-point Energies=           -423.060653
 Sum of electronic and thermal Energies=              -423.052071
 Sum of electronic and thermal Enthalpies=            -423.051126
 Sum of electronic and thermal Free Energies=         -423.094131

                     E (Thermal)             CV                S
                      KCal/Mol        Cal/Mol-Kelvin    Cal/Mol-Kelvin
 Total                  105.540             32.275             90.511
 Electronic               0.000              0.000              0.000
 Translational            0.889              2.981             40.409
 Rotational               0.889              2.981             28.746
 Vibrational            103.762             26.314             21.356
 Vibration     1          0.599              1.966              4.047
 Vibration     2          0.600              1.963              3.896
 Vibration     3          0.645              1.816              1.990
 Vibration     4          0.649              1.806              1.932
 Vibration     5          0.680              1.709              1.530
 Vibration     6          0.689              1.685              1.452
 Vibration     7          0.722              1.590              1.200
 Vibration     8          0.736              1.550              1.112
 Vibration     9          0.833              1.303              0.721
 Vibration    10          0.915              1.120              0.526
 Vibration    11          0.926              1.095              0.504
 Vibration    12          0.971              1.007              0.430

 Normal termination of Gaussian 09 at Tue Jan 28 02:50:26 2020.
