 Gaussian 09, Revision D.01,
 Gaussian 09:  ES64L-G09RevD.01 24-Apr-2013

 -----------------------------
 # b3lyp 6-31G(2df,p) opt Freq
 -----------------------------

 -----
 titel
 -----
 Symbolic Z-matrix:
 Charge =  0 Multiplicity = 1

 SCF Done:  E(RB3LYP) =  -423.220841317     A.U. after   14 cycles
 Optimization completed.
    -- Stationary point found.
 Normal termination of Gaussian 09 at Mon Jan 27 13:10:35 2020.

 ----------------------------------------------------------------------
 #N Geom=AllCheck Guess=TCheck SCRF=Check GenChk RB3LYP/6-31G(2df,p) Fr
 eq
 ----------------------------------------------------------------------

 Structure from the checkpoint file:  "/scratch/puck/g09_5003caf9-7e70-4278-842b-e10ff694d9ca/Gau-169254.chk"
 -----
 titel
 -----
 Charge =  0 Multiplicity = 1

                         Standard orientation:
 ---------------------------------------------------------------------
 Center     Atomic      Atomic             Coordinates (Angstroms)
 Number     Number       Type             X           Y           Z
 ---------------------------------------------------------------------
      1          8           0       -0.180017   -1.758184    1.183902
      2          6           0       -0.490327   -1.198268    0.167882
      3          6           0       -1.799851   -0.516539   -0.132003
      4          6           0       -1.515459    0.929168   -0.591409
      5          6           0       -0.609359    1.752471    0.347208
      6          6           0        0.905976    1.614435    0.396458
      7          6           0        1.820689    0.694076    0.073335
      8          6           0        1.700170   -0.686707   -0.504139
      9          8           0        0.359921   -0.990255   -0.877984
     10          1           0       -2.327475   -1.057194   -0.925746
     11          1           0       -2.416637   -0.550503    0.769401
     12          1           0       -1.082942    0.906908   -1.594394
     13          1           0       -2.474438    1.453897   -0.667144
     14          1           0       -0.791109    2.808957    0.112294
     15          1           0       -0.974567    1.640437    1.380572
     16          1           0        1.335122    2.508887    0.848694
     17          1           0        2.857816    0.953083    0.285874
     18          1           0        2.297301   -0.780330   -1.417209
     19          1           0        2.066671   -1.428445    0.216327
 ---------------------------------------------------------------------

 SCF Done:  E(RB3LYP) =  -423.220841317     A.U. after    1 cycles

 The electronic state is 1-A.
 Alpha  occ. eigenvalues --  -19.16902 -19.12622 -10.30176 -10.24212 -10.19613
 Alpha  occ. eigenvalues --  -10.19496 -10.19259 -10.19157 -10.18812  -1.09511
 Alpha  occ. eigenvalues --   -1.01351  -0.81179  -0.79527  -0.71686  -0.70072
 Alpha  occ. eigenvalues --   -0.61099  -0.57879  -0.51363  -0.50172  -0.49441
 Alpha  occ. eigenvalues --   -0.47188  -0.45333  -0.43384  -0.42151  -0.41144
 Alpha  occ. eigenvalues --   -0.39815  -0.38531  -0.35775  -0.34619  -0.33568
 Alpha  occ. eigenvalues --   -0.33073  -0.28800  -0.26710  -0.24898
 Alpha virt. eigenvalues --    0.00652   0.02119   0.07885   0.11205   0.12604
 Alpha virt. eigenvalues --    0.13959   0.14490   0.15207   0.15770   0.16330
 Alpha virt. eigenvalues --    0.17030   0.18839   0.19497   0.20438   0.23140

 Mulliken charges:
               1
     1  O   -0.341645
     2  C    0.431958
     3  C   -0.308581
     4  C   -0.200815
     5  C   -0.252030
     6  C   -0.039369
     7  C   -0.058817
     8  C   -0.144932
     9  O   -0.236265
    10  H    0.127945
    11  H    0.124427
    12  H    0.120527
    13  H    0.098412
    14  H    0.110760
    15  H    0.123526
    16  H    0.091520
    17  H    0.090618
    18  H    0.122518
    19  H    0.140241
 Sum of Mulliken charges =   0.00000

 Dipole moment (field-independent basis, Debye):
    X=             -0.1782    Y=              1.8802    Z=             -1.2103  Tot=              2.2432
 Quadrupole moment (field-independent basis, Debye-Ang):
   XX=            -46.6914   YY=            -54.9204   ZZ=            -56.5258
   XY=             -0.7881   XZ=             -0.0196   YZ=              3.9717

  Exact polarizability:  89.152  -6.084  78.970  -1.692   2.143  62.732
 Approx polarizability: 122.830 -14.542 114.031  -4.878   0.652 105.622

                      1                      2                      3
                      A                      A                      A
 Frequencies --     71.9629                98.1648               209.7833
 Red. masses --      2.8236                 3.6554                 3.9775
 Frc consts  --      0.0086                 0.0208                 0.1031
 IR Inten    --      1.6550                 0.8603                 2.5220

                      4                      5                      6
                      A                      A                      A
 Frequencies --    259.0037               297.0415               358.2121
 Red. masses --      3.9069                 1.9970                 3.6979
 Frc consts  --      0.1544                 0.1038                 0.2796
 IR Inten    --      2.5802                 4.3862                 2.8180

                      7                      8                      9
                      A                      A                      A
 Frequencies --    390.8128               414.2134               525.8266
 Red. masses --      2.2460                 3.4759                 2.4569
 Frc consts  --      0.2021                 0.3514                 0.4002
 IR Inten    --      0.1015                 1.1171                 7.7457

                     10                     11                     12
                      A                      A                      A
 Frequencies --    615.3310               674.8556               680.4546
 Red. masses --      3.0750                 1.5270                 2.1866
 Frc consts  --      0.6860                 0.4097                 0.5965
 IR Inten    --      8.1609                16.8554                 8.0893

                     13                     14                     15
                      A                      A                      A
 Frequencies --    734.3331               780.4502               843.7038
 Red. masses --      3.4956                 4.5561                 3.2239
 Frc consts  --      1.1106                 1.6351                 1.3521
 IR Inten    --      5.2026                 3.4717                 2.3037

                     16                     17                     18
                      A                      A                      A
 Frequencies --    873.6068               881.4814               952.4955
 Red. masses --      2.7584                 1.8167                 2.7562
 Frc consts  --      1.2403                 0.8317                 1.4733
 IR Inten    --      0.8437                 3.8255                12.8356

                     19                     20                     21
                      A                      A                      A
 Frequencies --    978.3343              1016.3469              1037.0606
 Red. masses --      2.0293                 1.1945                 2.0870
 Frc consts  --      1.1444                 0.7270                 1.3225
 IR Inten    --     13.4363                 0.7016                10.9081

                     22                     23                     24
                      A                      A                      A
 Frequencies --   1061.7408              1065.0294              1124.2274
 Red. masses --      2.2569                 2.5011                 3.3409
 Frc consts  --      1.4990                 1.6715                 2.4878
 IR Inten    --      1.6715                13.1973                69.7088

                     25                     26                     27
                      A                      A                      A
 Frequencies --   1163.0302              1225.5035              1234.7701
 Red. masses --      1.5607                 1.5541                 1.8018
 Frc consts  --      1.2438                 1.3751                 1.6186
 IR Inten    --     66.0457                55.2149                77.3992

                     28                     29                     30
                      A                      A                      A
 Frequencies --   1282.8204              1293.0028              1304.4599
 Red. masses --      1.1284                 1.1762                 1.0811
 Frc consts  --      1.0941                 1.1585                 1.0839
 IR Inten    --      3.5824                13.5830                 5.2839

                     31                     32                     33
                      A                      A                      A
 Frequencies --   1356.0931              1381.7057              1394.9808
 Red. masses --      1.3743                 1.4757                 1.3900
 Frc consts  --      1.4890                 1.6599                 1.5937
 IR Inten    --      7.0289                 6.3575                22.4641

                     34                     35                     36
                      A                      A                      A
 Frequencies --   1406.7788              1438.6656              1462.0044
 Red. masses --      1.3861                 1.3423                 1.0896
 Frc consts  --      1.6161                 1.6369                 1.3722
 IR Inten    --     11.8334                 4.4815                 3.4444

                     37                     38                     39
                      A                      A                      A
 Frequencies --   1470.8939              1477.9102              1486.3755
 Red. masses --      1.0841                 1.0897                 1.1039
 Frc consts  --      1.3819                 1.4024                 1.4369
 IR Inten    --      6.9409                 7.2991                11.9315

                     40                     41                     42
                      A                      A                      A
 Frequencies --   1730.8353              1841.8700              2990.8559
 Red. masses --      6.9635                11.5693                 1.0691
 Frc consts  --     12.2911                23.1247                 5.6347
 IR Inten    --      2.7737               220.8236                17.5611

                     43                     44                     45
                      A                      A                      A
 Frequencies --   3029.5214              3034.4838              3045.7575
 Red. masses --      1.0847                 1.0593                 1.0689
 Frc consts  --      5.8655                 5.7469                 5.8423
 IR Inten    --      7.0839                30.9254                33.7843

                     46                     47                     48
                      A                      A                      A
 Frequencies --   3055.0214              3077.9699              3098.7162
 Red. masses --      1.0653                 1.1027                 1.0980
 Frc consts  --      5.8580                 6.1550                 6.2118
 IR Inten    --     27.2537                13.6788                 2.1037

                     49                     50                     51
                      A                      A                      A
 Frequencies --   3109.5519              3117.5232              3136.2162
 Red. masses --      1.0827                 1.0995                 1.0910
 Frc consts  --      6.1679                 6.2958                 6.3226
 IR Inten    --      9.3984                23.8286                32.7042

 - Thermochemistry -
 -------------------
 Temperature   298.150 Kelvin.  Pressure   1.00000 Atm.
 Atom     1 has atomic number  8 and mass  15.99491

 Molecular mass:   126.06808 amu.
 Principal axes and moments of inertia in atomic units:
                           1         2         3
     Eigenvalues --   900.49465 924.573031431.50692
           X            0.72559  -0.68807   0.00887
           Y            0.68770   0.72553   0.02620
           Z           -0.02446  -0.01291   0.99962
 This molecule is an asymmetric top.
 Rotational symmetry number  1.
 Warning -- assumption of classical behavior for rotation
           may cause significant error
 Rotational temperatures (Kelvin)      0.09618     0.09368     0.06051
 Rotational constants (GHZ):           2.00417     1.95197     1.26073
 Zero-point vibrational energy     422232.7 (Joules/Mol)
                                  100.91603 (Kcal/Mol)
 Warning -- explicit consideration of  10 degrees of freedom as
           vibrations may cause significant error
 Vibrational temperatures:    103.54   141.24   301.83   372.65   427.38
          (Kelvin)            515.39   562.29   595.96   756.55   885.32
                              970.97   979.02  1056.54  1122.89  1213.90
                             1256.92  1268.25  1370.43  1407.60  1462.29
                             1492.10  1527.61  1532.34  1617.51  1673.34
                             1763.22  1776.56  1845.69  1860.34  1876.82
                             1951.11  1987.96  2007.06  2024.04  2069.92
                             2103.50  2116.29  2126.38  2138.56  2490.28
                             2650.04  4303.17  4358.80  4365.94  4382.16
                             4395.49  4428.51  4458.36  4473.95  4485.41
                             4512.31

 Zero-point correction=                           0.160820 (Hartree/Particle)
 Thermal correction to Energy=                    0.168937
 Thermal correction to Enthalpy=                  0.169881
 Thermal correction to Gibbs Free Energy=         0.127902
 Sum of electronic and zero-point Energies=           -423.060021
 Sum of electronic and thermal Energies=              -423.051904
 Sum of electronic and thermal Enthalpies=            -423.050960
 Sum of electronic and thermal Free Energies=         -423.092940

                     E (Thermal)             CV                S
                      KCal/Mol        Cal/Mol-Kelvin    Cal/Mol-Kelvin
 Total                  106.010             31.047             88.354
 Electronic               0.000              0.000              0.000
 Translational            0.889              2.981             40.409
 Rotational               0.889              2.981             28.568
 Vibrational            104.232             25.085             19.377
 Vibration     1          0.598              1.967              4.099
 Vibration     2          0.604              1.950              3.490
 Vibration     3          0.642              1.826              2.046
 Vibration     4          0.668              1.748              1.668
 Vibration     5          0.691              1.679              1.434
 Vibration     6          0.733              1.558              1.130
 Vibration     7          0.758              1.490              0.997
 Vibration     8          0.778              1.439              0.912
 Vibration     9          0.881              1.193              0.597
 Vibration    10          0.975              0.999              0.424

 Optimization completed.
    -- Stationary point found.
 Normal termination of Gaussian 09 at Mon Jan 27 13:53:45 2020.
