 Gaussian 09, Revision D.01,
 Gaussian 09:  ES64L-G09RevD.01 24-Apr-2013

 -----------------------------
 # b3lyp 6-31G(2df,p) opt Freq
 -----------------------------

 -----
 titel
 -----
 Symbolic Z-matrix:
 Charge =  0 Multiplicity = 1

 SCF Done:  E(RB3LYP) =  -423.146168467     A.U. after   14 cycles
 Optimization completed.
    -- Stationary point found.
 Normal termination of Gaussian 09 at Mon Jan 27 22:04:44 2020.

 ----------------------------------------------------------------------
 #N Geom=AllCheck Guess=TCheck SCRF=Check GenChk RB3LYP/6-31G(2df,p) Fr
 eq
 ----------------------------------------------------------------------

 Structure from the checkpoint file:  "/scratch/puck/g09_63815ba0-2de2-47c7-9335-70caa15dec10/Gau-53041.chk"
 -----
 titel
 -----
 Charge =  0 Multiplicity = 1

                         Standard orientation:
 ---------------------------------------------------------------------
 Center     Atomic      Atomic             Coordinates (Angstroms)
 Number     Number       Type             X           Y           Z
 ---------------------------------------------------------------------
      1          6           0        0.141218    2.183651    0.482518
      2          6           0       -0.012494    0.775967   -0.070339
      3          6           0        1.110431    0.324392   -1.023668
      4          8           0        1.925580   -0.565615   -0.263238
      5          6           0        1.067049   -1.337494    0.577056
      6          6           0       -0.055336   -0.379947    0.998792
      7          6           0       -1.506609   -0.671123    0.559905
      8          8           0       -1.478056   -0.982099   -0.838972
      9          6           0       -1.468990    0.395115   -0.450426
     10          1           0        0.051223    2.932948   -0.312602
     11          1           0       -0.624303    2.404926    1.234842
     12          1           0        1.122326    2.306505    0.952647
     13          1           0        0.693642   -0.185320   -1.902822
     14          1           0        1.753605    1.144204   -1.356481
     15          1           0        0.658427   -2.198149    0.029808
     16          1           0        1.673537   -1.701041    1.410626
     17          1           0        0.024002   -0.022811    2.027451
     18          1           0       -2.330387   -1.073286    1.138004
     19          1           0       -2.253875    1.030367   -0.846827
 ---------------------------------------------------------------------

 SCF Done:  E(RB3LYP) =  -423.146168467     A.U. after    1 cycles

 The electronic state is 1-A.
 Alpha  occ. eigenvalues --  -19.15768 -19.12923 -10.24120 -10.23913 -10.22032
 Alpha  occ. eigenvalues --  -10.21796 -10.20134 -10.19359 -10.18491  -1.08362
 Alpha  occ. eigenvalues --   -1.02368  -0.82372  -0.74914  -0.69422  -0.66105
 Alpha  occ. eigenvalues --   -0.63729  -0.58027  -0.54282  -0.51542  -0.48366
 Alpha  occ. eigenvalues --   -0.47853  -0.44829  -0.43200  -0.41471  -0.39955
 Alpha  occ. eigenvalues --   -0.39784  -0.37711  -0.35606  -0.34123  -0.32189
 Alpha  occ. eigenvalues --   -0.31933  -0.28105  -0.26311  -0.23835
 Alpha virt. eigenvalues --    0.07437   0.09351   0.10283   0.10506   0.12415
 Alpha virt. eigenvalues --    0.13730   0.14357   0.14744   0.15760   0.16268
 Alpha virt. eigenvalues --    0.16711   0.17677   0.18729   0.19559   0.21287

 Mulliken charges:
               1
     1  C   -0.486005
     2  C    0.304585
     3  C   -0.144874
     4  O   -0.256756
     5  C   -0.099265
     6  C   -0.109701
     7  C    0.008586
     8  O   -0.241204
     9  C   -0.038575
    10  H    0.118951
    11  H    0.115610
    12  H    0.131012
    13  H    0.103458
    14  H    0.101064
    15  H    0.102827
    16  H    0.103674
    17  H    0.079658
    18  H    0.105678
    19  H    0.101275
 Sum of Mulliken charges =   0.00000

 Dipole moment (field-independent basis, Debye):
    X=             -1.3722    Y=              1.5363    Z=              1.4898  Tot=              2.5422
 Quadrupole moment (field-independent basis, Debye-Ang):
   XX=            -56.5825   YY=            -52.2368   ZZ=            -51.7975
   XY=             -0.4424   XZ=             -1.0988   YZ=             -3.5491

  Exact polarizability:  73.622   0.761  76.767   0.271  -5.065  69.042
 Approx polarizability: 104.706   2.318 110.697   2.046  -6.757 108.937

                      1                      2                      3
                      A                      A                      A
 Frequencies --    152.3069               176.9761               253.3022
 Red. masses --      3.1621                 3.5987                 1.1760
 Frc consts  --      0.0432                 0.0664                 0.0445
 IR Inten    --      2.9379                 4.0344                 0.0879

                      4                      5                      6
                      A                      A                      A
 Frequencies --    269.8430               277.9228               346.1215
 Red. masses --      2.4818                 2.3926                 2.1962
 Frc consts  --      0.1065                 0.1089                 0.1550
 IR Inten    --      1.2113                 1.7600                 3.4234

                      7                      8                      9
                      A                      A                      A
 Frequencies --    462.1887               525.5900               628.5853
 Red. masses --      2.8208                 4.1741                 3.5512
 Frc consts  --      0.3550                 0.6794                 0.8267
 IR Inten    --      0.2480                 3.9653                 4.3400

                     10                     11                     12
                      A                      A                      A
 Frequencies --    648.9909               680.1989               794.4656
 Red. masses --      6.6651                 4.5044                 3.4232
 Frc consts  --      1.6540                 1.2279                 1.2730
 IR Inten    --     14.1779                 0.6491                 2.3845

                     13                     14                     15
                      A                      A                      A
 Frequencies --    852.5457               866.5559               869.9315
 Red. masses --      2.9210                 1.8622                 2.5351
 Frc consts  --      1.2509                 0.8239                 1.1304
 IR Inten    --      4.4430                23.8522                 6.7873

                     16                     17                     18
                      A                      A                      A
 Frequencies --    917.7997               935.0309               949.1699
 Red. masses --      2.3332                 3.1795                 2.0431
 Frc consts  --      1.1580                 1.6378                 1.0845
 IR Inten    --      4.8627                24.4361                 1.9081

                     19                     20                     21
                      A                      A                      A
 Frequencies --    976.6651               992.0431              1030.0414
 Red. masses --      1.6872                 1.8481                 1.8304
 Frc consts  --      0.9482                 1.0716                 1.1442
 IR Inten    --      3.1570                 6.0645                11.5353

                     22                     23                     24
                      A                      A                      A
 Frequencies --   1046.2661              1078.2988              1083.7581
 Red. masses --      1.3625                 3.0143                 5.0228
 Frc consts  --      0.8788                 2.0650                 3.4758
 IR Inten    --      4.8917                10.8716                49.1825

                     25                     26                     27
                      A                      A                      A
 Frequencies --   1134.6131              1172.9089              1196.1722
 Red. masses --      2.1503                 2.1578                 1.4214
 Frc consts  --      1.6310                 1.7490                 1.1983
 IR Inten    --     14.1282                 4.9350                 4.4422

                     28                     29                     30
                      A                      A                      A
 Frequencies --   1219.9291              1236.8885              1253.4658
 Red. masses --      1.2570                 1.5677                 1.8892
 Frc consts  --      1.1022                 1.4131                 1.7489
 IR Inten    --      3.1662                 2.3596                 4.0933

                     31                     32                     33
                      A                      A                      A
 Frequencies --   1273.1536              1303.5251              1327.4845
 Red. masses --      1.2788                 1.8081                 1.7268
 Frc consts  --      1.2213                 1.8101                 1.7929
 IR Inten    --      2.6638                 6.7657                 1.0839

                     34                     35                     36
                      A                      A                      A
 Frequencies --   1362.2045              1374.9053              1398.6830
 Red. masses --      1.3649                 2.3457                 1.4938
 Frc consts  --      1.4923                 2.6125                 1.7218
 IR Inten    --      0.8859                10.8058                 1.9820

                     37                     38                     39
                      A                      A                      A
 Frequencies --   1415.2987              1492.0520              1497.0167
 Red. masses --      1.3599                 1.0510                 1.0526
 Frc consts  --      1.6049                 1.3786                 1.3898
 IR Inten    --      7.4244                 4.2086                 4.3570

                     40                     41                     42
                      A                      A                      A
 Frequencies --   1502.1808              1514.0892              3009.3512
 Red. masses --      1.0808                 1.1010                 1.0648
 Frc consts  --      1.4369                 1.4871                 5.6814
 IR Inten    --      0.1819                 1.8732                50.8927

                     43                     44                     45
                      A                      A                      A
 Frequencies --   3014.2327              3023.0177              3082.9019
 Red. masses --      1.0656                 1.0357                 1.0987
 Frc consts  --      5.7041                 5.5768                 6.1522
 IR Inten    --     46.5629                21.2736                 7.0690

                     46                     47                     48
                      A                      A                      A
 Frequencies --   3084.7261              3088.0880              3100.3976
 Red. masses --      1.0944                 1.0997                 1.0988
 Frc consts  --      6.1357                 6.1787                 6.2229
 IR Inten    --     20.6924                32.3688                12.7103

                     49                     50                     51
                      A                      A                      A
 Frequencies --   3101.3224              3171.6397              3190.3429
 Red. masses --      1.0955                 1.0877                 1.1003
 Frc consts  --      6.2083                 6.4465                 6.5981
 IR Inten    --     49.1966                17.9943                25.1508

 - Thermochemistry -
 -------------------
 Temperature   298.150 Kelvin.  Pressure   1.00000 Atm.
 Atom     1 has atomic number  6 and mass  12.00000

 Molecular mass:   126.06808 amu.
 Principal axes and moments of inertia in atomic units:
                           1         2         3
     Eigenvalues --   763.83657 933.328941225.09164
           X            0.99970  -0.02092  -0.01302
           Y            0.02069   0.99963  -0.01761
           Z            0.01339   0.01734   0.99976
 This molecule is an asymmetric top.
 Rotational symmetry number  1.
 Warning -- assumption of classical behavior for rotation
           may cause significant error
 Rotational temperatures (Kelvin)      0.11339     0.09280     0.07070
 Rotational constants (GHZ):           2.36273     1.93366     1.47315
 Zero-point vibrational energy     420817.5 (Joules/Mol)
                                  100.57779 (Kcal/Mol)
 Warning -- explicit consideration of   8 degrees of freedom as
           vibrations may cause significant error
 Vibrational temperatures:    219.14   254.63   364.44   388.24   399.87
          (Kelvin)            497.99   664.99   756.21   904.39   933.75
                              978.65  1143.06  1226.62  1246.78  1251.64
                             1320.51  1345.30  1365.64  1405.20  1427.33
                             1482.00  1505.34  1551.43  1559.28  1632.45
                             1687.55  1721.02  1755.20  1779.60  1803.46
                             1831.78  1875.48  1909.95  1959.91  1978.18
                             2012.39  2036.30  2146.73  2153.87  2161.30
                             2178.43  4329.78  4336.80  4349.44  4435.60
                             4438.23  4443.06  4460.77  4462.11  4563.28
                             4590.19

 Zero-point correction=                           0.160281 (Hartree/Particle)
 Thermal correction to Energy=                    0.167756
 Thermal correction to Enthalpy=                  0.168700
 Thermal correction to Gibbs Free Energy=         0.128703
 Sum of electronic and zero-point Energies=           -422.985888
 Sum of electronic and thermal Energies=              -422.978413
 Sum of electronic and thermal Enthalpies=            -422.977469
 Sum of electronic and thermal Free Energies=         -423.017466

                     E (Thermal)             CV                S
                      KCal/Mol        Cal/Mol-Kelvin    Cal/Mol-Kelvin
 Total                  105.268             29.968             84.181
 Electronic               0.000              0.000              0.000
 Translational            0.889              2.981             40.409
 Rotational               0.889              2.981             28.259
 Vibrational            103.491             24.007             15.513
 Vibration     1          0.619              1.900              2.643
 Vibration     2          0.628              1.871              2.360
 Vibration     3          0.664              1.757              1.707
 Vibration     4          0.674              1.729              1.597
 Vibration     5          0.679              1.714              1.546
 Vibration     6          0.724              1.583              1.184
 Vibration     7          0.820              1.334              0.760
 Vibration     8          0.881              1.193              0.597

 Optimization completed.
    -- Stationary point found.
 Normal termination of Gaussian 09 at Mon Jan 27 22:56:54 2020.
