 Gaussian 09, Revision D.01,
 Gaussian 09:  ES64L-G09RevD.01 24-Apr-2013

 -----------------------------
 # b3lyp 6-31G(2df,p) opt Freq
 -----------------------------

 -----
 titel
 -----
 Symbolic Z-matrix:
 Charge =  0 Multiplicity = 1

 SCF Done:  E(RB3LYP) =  -423.125565099     A.U. after   13 cycles
 Optimization completed.
    -- Stationary point found.
 Normal termination of Gaussian 09 at Mon Jan 27 12:52:47 2020.

 ----------------------------------------------------------------------
 #N Geom=AllCheck Guess=TCheck SCRF=Check GenChk RB3LYP/6-31G(2df,p) Fr
 eq
 ----------------------------------------------------------------------

 Structure from the checkpoint file:  "/scratch/puck/g09_db76873f-2cef-4b75-a8a4-e030e2b5dbbb/Gau-73118.chk"
 -----
 titel
 -----
 Charge =  0 Multiplicity = 1

                         Standard orientation:
 ---------------------------------------------------------------------
 Center     Atomic      Atomic             Coordinates (Angstroms)
 Number     Number       Type             X           Y           Z
 ---------------------------------------------------------------------
      1          6           0       -0.000151    1.548894   -0.357213
      2          6           0       -1.332780    1.190049    0.356513
      3          8           0       -2.146876    0.252425   -0.349647
      4          6           0       -2.007856   -1.103115    0.044806
      5          6           0       -0.601862   -1.503396    0.033465
      6          6           0        0.602289   -1.503441    0.033312
      7          6           0        2.008172   -1.102810    0.044616
      8          8           0        2.146820    0.252883   -0.349528
      9          6           0        1.332372    1.190128    0.356757
     10          1           0       -0.000046    1.073879   -1.340958
     11          1           0       -0.000182    2.628684   -0.541624
     12          1           0       -1.145031    0.838459    1.381105
     13          1           0       -1.955724    2.086793    0.431847
     14          1           0       -2.433939   -1.262621    1.049376
     15          1           0       -2.609715   -1.684382   -0.661160
     16          1           0        2.434401   -1.262491    1.049099
     17          1           0        2.610074   -1.683770   -0.661563
     18          1           0        1.144419    0.838142    1.381167
     19          1           0        1.955089    2.086989    0.432581
 ---------------------------------------------------------------------

 SCF Done:  E(RB3LYP) =  -423.125565099     A.U. after    1 cycles

 The electronic state is 1-A.
 Alpha  occ. eigenvalues --  -19.14372 -19.14372 -10.25353 -10.25352 -10.23024
 Alpha  occ. eigenvalues --  -10.23023 -10.17990 -10.17865 -10.17743  -1.03407
 Alpha  occ. eigenvalues --   -1.03154  -0.79061  -0.76200  -0.74543  -0.66395
 Alpha  occ. eigenvalues --   -0.65063  -0.59103  -0.51359  -0.50310  -0.49643
 Alpha  occ. eigenvalues --   -0.47981  -0.46699  -0.46538  -0.43388  -0.40384
 Alpha  occ. eigenvalues --   -0.39141  -0.36727  -0.34821  -0.33110  -0.31491
 Alpha  occ. eigenvalues --   -0.28098  -0.26420  -0.25442  -0.25280
 Alpha virt. eigenvalues --    0.01180   0.05286   0.08959   0.10143   0.10853
 Alpha virt. eigenvalues --    0.11661   0.13166   0.15323   0.15779   0.16395
 Alpha virt. eigenvalues --    0.17353   0.17664   0.19512   0.20517   0.23995

 Mulliken charges:
               1
     1  C   -0.198176
     2  C   -0.074262
     3  O   -0.236584
     4  C   -0.207891
     5  C    0.048099
     6  C    0.047628
     7  C   -0.207846
     8  O   -0.236612
     9  C   -0.074261
    10  H    0.132923
    11  H    0.096197
    12  H    0.094690
    13  H    0.107627
    14  H    0.116060
    15  H    0.137010
    16  H    0.116064
    17  H    0.137008
    18  H    0.094701
    19  H    0.107624
 Sum of Mulliken charges =   0.00000

 Dipole moment (field-independent basis, Debye):
    X=             -0.0003    Y=              0.0738    Z=              1.5128  Tot=              1.5146
 Quadrupole moment (field-independent basis, Debye-Ang):
   XX=            -54.4914   YY=            -50.3369   ZZ=            -53.4019
   XY=             -0.0011   XZ=             -0.0007   YZ=              1.1890

  Exact polarizability:  96.034  -0.001  78.941  -0.002   0.345  58.459
 Approx polarizability: 149.116  -0.002 107.809  -0.006  -0.785  92.025

                      1                      2                      3
                      A                      A                      A
 Frequencies --     67.2127               102.0592               205.6072
 Red. masses --      2.3182                 3.5375                 4.6607
 Frc consts  --      0.0062                 0.0217                 0.1161
 IR Inten    --      0.4724                 1.7945                 0.9754

                      4                      5                      6
                      A                      A                      A
 Frequencies --    210.5725               313.5766               342.2330
 Red. masses --      2.5706                 2.7928                 2.8065
 Frc consts  --      0.0672                 0.1618                 0.1937
 IR Inten    --      6.8198                 0.3251                 9.2540

                      7                      8                      9
                      A                      A                      A
 Frequencies --    358.3941               364.3386               381.9728
 Red. masses --      3.9455                 2.4159                 1.9034
 Frc consts  --      0.2986                 0.1889                 0.1636
 IR Inten    --      0.9725                 0.0113                 2.5277

                     10                     11                     12
                      A                      A                      A
 Frequencies --    456.9108               556.1011               623.7601
 Red. masses --      4.8914                 6.4630                 6.8013
 Frc consts  --      0.6016                 1.1776                 1.5591
 IR Inten    --      6.5229                 1.3617                44.1272

                     13                     14                     15
                      A                      A                      A
 Frequencies --    702.1530               788.1109               878.2917
 Red. masses --      2.0351                 3.8674                 3.6627
 Frc consts  --      0.5912                 1.4153                 1.6647
 IR Inten    --      6.9687                 2.2101                 6.4475

                     16                     17                     18
                      A                      A                      A
 Frequencies --    927.5576               935.9185              1009.0274
 Red. masses --      1.7120                 4.1823                 2.7763
 Frc consts  --      0.8678                 2.1585                 1.6654
 IR Inten    --      0.1827                 7.4912                29.1935

                     19                     20                     21
                      A                      A                      A
 Frequencies --   1027.8866              1028.6612              1050.1170
 Red. masses --      2.0396                 1.8370                 2.4230
 Frc consts  --      1.2697                 1.1453                 1.5743
 IR Inten    --      1.1616                 5.3206                 6.6037

                     22                     23                     24
                      A                      A                      A
 Frequencies --   1083.9024              1106.8635              1137.8615
 Red. masses --      5.5797                 3.1373                 4.7617
 Frc consts  --      3.8623                 2.2646                 3.6324
 IR Inten    --     20.6120               107.7293                31.3755

                     25                     26                     27
                      A                      A                      A
 Frequencies --   1147.9536              1217.4383              1260.2255
 Red. masses --      3.3102                 1.1351                 1.1123
 Frc consts  --      2.5701                 0.9912                 1.0408
 IR Inten    --    135.3105                 0.4998                 1.6505

                     28                     29                     30
                      A                      A                      A
 Frequencies --   1266.1435              1327.8906              1332.9174
 Red. masses --      1.0826                 1.1798                 1.1376
 Frc consts  --      1.0225                 1.2257                 1.1908
 IR Inten    --     15.3788                 0.4776                10.3264

                     31                     32                     33
                      A                      A                      A
 Frequencies --   1364.3142              1377.2065              1391.0524
 Red. masses --      1.2654                 1.2765                 1.2327
 Frc consts  --      1.3877                 1.4265                 1.4053
 IR Inten    --      1.7823                22.2791                 5.1104

                     34                     35                     36
                      A                      A                      A
 Frequencies --   1405.4305              1419.1036              1472.3850
 Red. masses --      1.2262                 1.2327                 1.0669
 Frc consts  --      1.4270                 1.4626                 1.3627
 IR Inten    --     23.2839                 6.7802                 5.5378

                     37                     38                     39
                      A                      A                      A
 Frequencies --   1482.5227              1485.6886              1488.1187
 Red. masses --      1.0771                 1.0857                 1.0899
 Frc consts  --      1.3948                 1.4120                 1.4220
 IR Inten    --      0.0695                 3.1345                 1.5898

                     40                     41                     42
                      A                      A                      A
 Frequencies --   1496.9035              2357.5034              2966.2081
 Red. masses --      1.0843                11.7894                 1.0713
 Frc consts  --      1.4315                38.6052                 5.5534
 IR Inten    --      8.1885                 0.0465                55.7473

                     43                     44                     45
                      A                      A                      A
 Frequencies --   2966.4838              3002.0364              3006.2190
 Red. masses --      1.0716                 1.0659                 1.0646
 Frc consts  --      5.5559                 5.6596                 5.6687
 IR Inten    --     59.8054                 2.6657                77.9270

                     46                     47                     48
                      A                      A                      A
 Frequencies --   3039.1870              3069.9170              3071.6843
 Red. masses --      1.0740                 1.0973                 1.0883
 Frc consts  --      5.8447                 6.0931                 6.0502
 IR Inten    --      5.1702                12.6657                32.5599

                     49                     50                     51
                      A                      A                      A
 Frequencies --   3072.2744              3078.5690              3113.0972
 Red. masses --      1.0896                 1.0929                 1.0951
 Frc consts  --      6.0593                 6.1027                 6.2532
 IR Inten    --     34.4118                59.7094                14.1584

 - Thermochemistry -
 -------------------
 Temperature   298.150 Kelvin.  Pressure   1.00000 Atm.
 Atom     1 has atomic number  6 and mass  12.00000

 Molecular mass:   126.06808 amu.
 Principal axes and moments of inertia in atomic units:
                           1         2         3
     Eigenvalues --   690.501421248.063491810.41041
           X            1.00000  -0.00001   0.00000
           Y            0.00001   0.99998   0.00571
           Z            0.00000  -0.00571   0.99998
 This molecule is an asymmetric top.
 Rotational symmetry number  1.
 Warning -- assumption of classical behavior for rotation
           may cause significant error
 Rotational temperatures (Kelvin)      0.12544     0.06940     0.04784
 Rotational constants (GHZ):           2.61367     1.44603     0.99687
 Zero-point vibrational energy     420712.1 (Joules/Mol)
                                  100.55259 (Kcal/Mol)
 Warning -- explicit consideration of  11 degrees of freedom as
           vibrations may cause significant error
 Vibrational temperatures:     96.70   146.84   295.82   302.97   451.17
          (Kelvin)            492.40   515.65   524.20   549.57   657.39
                              800.10   897.45  1010.24  1133.91  1263.66
                             1334.55  1346.58  1451.76  1478.90  1480.01
                             1510.88  1559.49  1592.53  1637.13  1651.65
                             1751.62  1813.18  1821.70  1910.54  1917.77
                             1962.94  1981.49  2001.41  2022.10  2041.77
                             2118.43  2133.02  2137.57  2141.07  2153.71
                             3391.92  4267.71  4268.10  4319.26  4325.27
                             4372.71  4416.92  4419.46  4420.31  4429.37
                             4479.05

 Zero-point correction=                           0.160241 (Hartree/Particle)
 Thermal correction to Energy=                    0.168789
 Thermal correction to Enthalpy=                  0.169733
 Thermal correction to Gibbs Free Energy=         0.126814
 Sum of electronic and zero-point Energies=           -422.965324
 Sum of electronic and thermal Energies=              -422.956776
 Sum of electronic and thermal Enthalpies=            -422.955832
 Sum of electronic and thermal Free Energies=         -422.998751

                     E (Thermal)             CV                S
                      KCal/Mol        Cal/Mol-Kelvin    Cal/Mol-Kelvin
 Total                  105.916             31.970             90.331
 Electronic               0.000              0.000              0.000
 Translational            0.889              2.981             40.409
 Rotational               0.889              2.981             28.836
 Vibrational            104.139             26.008             21.087
 Vibration     1          0.598              1.970              4.233
 Vibration     2          0.604              1.948              3.415
 Vibration     3          0.640              1.832              2.082
 Vibration     4          0.643              1.825              2.039
 Vibration     5          0.701              1.648              1.343
 Vibration     6          0.721              1.591              1.202
 Vibration     7          0.733              1.558              1.129
 Vibration     8          0.738              1.546              1.104
 Vibration     9          0.751              1.509              1.031
 Vibration    10          0.815              1.346              0.775
 Vibration    11          0.912              1.126              0.532

 Optimization completed.
    -- Stationary point found.
 Normal termination of Gaussian 09 at Mon Jan 27 13:35:04 2020.
