 Gaussian 09, Revision D.01,
 Gaussian 09:  ES64L-G09RevD.01 24-Apr-2013

 -----------------------------
 # b3lyp 6-31G(2df,p) opt Freq
 -----------------------------

 -----
 titel
 -----
 Symbolic Z-matrix:
 Charge =  0 Multiplicity = 1

 SCF Done:  E(RB3LYP) =  -423.216758382     A.U. after   14 cycles
 Optimization completed.
    -- Stationary point found.
 Normal termination of Gaussian 09 at Mon Jan 27 17:12:53 2020.

 ----------------------------------------------------------------------
 #N Geom=AllCheck Guess=TCheck SCRF=Check GenChk RB3LYP/6-31G(2df,p) Fr
 eq
 ----------------------------------------------------------------------

 Structure from the checkpoint file:  "/scratch/puck/g09_b0ac2418-5731-4486-9022-ff508f4cecba/Gau-86357.chk"
 -----
 titel
 -----
 Charge =  0 Multiplicity = 1

                         Standard orientation:
 ---------------------------------------------------------------------
 Center     Atomic      Atomic             Coordinates (Angstroms)
 Number     Number       Type             X           Y           Z
 ---------------------------------------------------------------------
      1          6           0       -2.418943    0.074763   -0.449576
      2          6           0       -1.024852   -0.273336   -0.006457
      3          6           0       -0.479901   -1.677732   -0.259225
      4          6           0        1.024806   -1.588760    0.070647
      5          6           0        1.375219   -0.103931   -0.062996
      6          8           0        2.459092    0.364195   -0.304429
      7          6           0        0.097253    0.692224    0.097213
      8          6           0        0.091653    2.162065   -0.193840
      9          8           0       -0.609448    0.217551    1.274252
     10          1           0       -2.526789   -0.061741   -1.530531
     11          1           0       -3.145231   -0.579913    0.044797
     12          1           0       -2.670123    1.107097   -0.198377
     13          1           0       -1.009367   -2.417984    0.348739
     14          1           0       -0.635545   -1.944946   -1.310441
     15          1           0        1.228139   -1.897370    1.100906
     16          1           0        1.661858   -2.185914   -0.584112
     17          1           0        0.369120    2.345825   -1.236191
     18          1           0       -0.889836    2.600141   -0.003247
     19          1           0        0.829213    2.669081    0.435278
 ---------------------------------------------------------------------

 SCF Done:  E(RB3LYP) =  -423.216758382     A.U. after    1 cycles

 The electronic state is 1-A.
 Alpha  occ. eigenvalues --  -19.15807 -19.13369 -10.26768 -10.25194 -10.24323
 Alpha  occ. eigenvalues --  -10.19821 -10.19322 -10.19314 -10.18673  -1.08078
 Alpha  occ. eigenvalues --   -1.04113  -0.81003  -0.75786  -0.75274  -0.66511
 Alpha  occ. eigenvalues --   -0.64993  -0.56768  -0.52866  -0.48289  -0.47566
 Alpha  occ. eigenvalues --   -0.45316  -0.45177  -0.42624  -0.42023  -0.41225
 Alpha  occ. eigenvalues --   -0.39888  -0.38979  -0.37959  -0.36597  -0.35793
 Alpha  occ. eigenvalues --   -0.35029  -0.29545  -0.28733  -0.23505
 Alpha virt. eigenvalues --   -0.02355   0.08494   0.09422   0.09983   0.12854
 Alpha virt. eigenvalues --    0.13509   0.14341   0.14816   0.15484   0.16993
 Alpha virt. eigenvalues --    0.17894   0.18936   0.19668   0.20629   0.21932

 Mulliken charges:
               1
     1  C   -0.483855
     2  C    0.341921
     3  C   -0.283973
     4  C   -0.340159
     5  C    0.382698
     6  O   -0.317047
     7  C    0.225034
     8  C   -0.497441
     9  O   -0.328186
    10  H    0.126879
    11  H    0.132769
    12  H    0.134568
    13  H    0.113745
    14  H    0.111014
    15  H    0.144920
    16  H    0.128861
    17  H    0.134246
    18  H    0.128195
    19  H    0.145811
 Sum of Mulliken charges =   0.00000

 Dipole moment (field-independent basis, Debye):
    X=             -2.5656    Y=             -0.9975    Z=             -1.2340  Tot=              3.0166
 Quadrupole moment (field-independent basis, Debye-Ang):
   XX=            -58.7461   YY=            -49.2096   ZZ=            -54.3868
   XY=             -1.7423   XZ=              2.7502   YZ=             -0.2863

  Exact polarizability:  86.062   3.825  80.860  -0.381  -0.429  59.670
 Approx polarizability: 124.923  11.977 109.349  -6.097  -0.857 100.248

                      1                      2                      3
                      A                      A                      A
 Frequencies --     95.6870               134.3352               169.9513
 Red. masses --      3.7046                 1.0740                 1.0767
 Frc consts  --      0.0200                 0.0114                 0.0183
 IR Inten    --      4.2197                 0.1360                 0.1774

                      4                      5                      6
                      A                      A                      A
 Frequencies --    176.1252               239.6258               261.9193
 Red. masses --      1.8362                 2.4014                 3.1538
 Frc consts  --      0.0336                 0.0812                 0.1275
 IR Inten    --      1.1035                 0.5025                 4.5573

                      7                      8                      9
                      A                      A                      A
 Frequencies --    302.7796               388.8773               458.2158
 Red. masses --      2.9663                 3.4705                 3.3222
 Frc consts  --      0.1602                 0.3092                 0.4110
 IR Inten    --      0.5113                 3.8143                10.2721

                     10                     11                     12
                      A                      A                      A
 Frequencies --    498.2306               508.3021               580.8283
 Red. masses --      4.6700                 3.6742                 2.6410
 Frc consts  --      0.6830                 0.5593                 0.5249
 IR Inten    --      1.6956                11.7308                 3.3734

                     13                     14                     15
                      A                      A                      A
 Frequencies --    656.2378               673.5657               697.1096
 Red. masses --      4.2868                 3.7275                 4.8596
 Frc consts  --      1.0877                 0.9964                 1.3914
 IR Inten    --      0.9685                 2.6139                 9.2283

                     16                     17                     18
                      A                      A                      A
 Frequencies --    811.6106               818.9071               892.8754
 Red. masses --      2.7910                 1.7934                 2.3959
 Frc consts  --      1.0832                 0.7086                 1.1254
 IR Inten    --     12.1929                 1.2258                 7.3708

                     19                     20                     21
                      A                      A                      A
 Frequencies --    942.9699               995.2429              1004.8370
 Red. masses --      2.0496                 2.0051                 1.7021
 Frc consts  --      1.0738                 1.1702                 1.0126
 IR Inten    --      5.5918                 1.5411                 2.5702

                     22                     23                     24
                      A                      A                      A
 Frequencies --   1051.9992              1074.4478              1106.6594
 Red. masses --      1.9659                 2.3631                 1.9303
 Frc consts  --      1.2819                 1.6073                 1.3928
 IR Inten    --     20.8179                35.6580                 6.6725

                     25                     26                     27
                      A                      A                      A
 Frequencies --   1125.2926              1179.1939              1216.1472
 Red. masses --      2.0901                 1.4184                 2.5400
 Frc consts  --      1.5594                 1.1620                 2.2134
 IR Inten    --     13.7656                 2.0937                11.1925

                     28                     29                     30
                      A                      A                      A
 Frequencies --   1241.8296              1282.2910              1302.1242
 Red. masses --      1.3961                 1.5692                 2.7546
 Frc consts  --      1.2685                 1.5202                 2.7518
 IR Inten    --      3.1978                 4.2297                18.3122

                     31                     32                     33
                      A                      A                      A
 Frequencies --   1341.8055              1410.5274              1412.8067
 Red. masses --      1.9239                 1.4039                 1.2785
 Frc consts  --      2.0409                 1.6457                 1.5035
 IR Inten    --      4.5700                 4.3081                 6.5015

                     34                     35                     36
                      A                      A                      A
 Frequencies --   1447.3504              1453.7552              1473.3692
 Red. masses --      1.6762                 1.3352                 1.0464
 Frc consts  --      2.0689                 1.6626                 1.3384
 IR Inten    --      9.7831                 4.3361                 4.1459

                     37                     38                     39
                      A                      A                      A
 Frequencies --   1483.0852              1486.2244              1491.0053
 Red. masses --      1.0652                 1.0815                 1.0926
 Frc consts  --      1.3804                 1.4074                 1.4311
 IR Inten    --      1.7911                 2.5252                 9.3954

                     40                     41                     42
                      A                      A                      A
 Frequencies --   1508.3710              1839.5537              3037.5837
 Red. masses --      1.3646                12.6566                 1.0394
 Frc consts  --      1.8292                25.2343                 5.6503
 IR Inten    --     10.7074               219.4905                 8.7253

                     43                     44                     45
                      A                      A                      A
 Frequencies --   3045.3965              3050.1057              3065.8826
 Red. masses --      1.0574                 1.0361                 1.0664
 Frc consts  --      5.7778                 5.6791                 5.9057
 IR Inten    --     42.1819                10.2812                 5.2628

                     46                     47                     48
                      A                      A                      A
 Frequencies --   3087.1007              3099.7518              3114.2042
 Red. masses --      1.1006                 1.1000                 1.1004
 Frc consts  --      6.1798                 6.2275                 6.2875
 IR Inten    --     11.2901                18.0624                 9.5992

                     49                     50                     51
                      A                      A                      A
 Frequencies --   3125.1653              3131.2547              3138.7741
 Red. masses --      1.1004                 1.1007                 1.1008
 Frc consts  --      6.3323                 6.3585                 6.3898
 IR Inten    --      8.6483                11.8961                14.9496

 - Thermochemistry -
 -------------------
 Temperature   298.150 Kelvin.  Pressure   1.00000 Atm.
 Atom     1 has atomic number  6 and mass  12.00000

 Molecular mass:   126.06808 amu.
 Principal axes and moments of inertia in atomic units:
                           1         2         3
     Eigenvalues --   742.067491047.248551512.82726
           X            0.99932  -0.02825   0.02389
           Y            0.02845   0.99956  -0.00802
           Z           -0.02365   0.00869   0.99968
 This molecule is an asymmetric top.
 Rotational symmetry number  1.
 Warning -- assumption of classical behavior for rotation
           may cause significant error
 Rotational temperatures (Kelvin)      0.11672     0.08271     0.05725
 Rotational constants (GHZ):           2.43204     1.72332     1.19296
 Zero-point vibrational energy     413496.9 (Joules/Mol)
                                   98.82814 (Kcal/Mol)
 Warning -- explicit consideration of  12 degrees of freedom as
           vibrations may cause significant error
 Vibrational temperatures:    137.67   193.28   244.52   253.40   344.77
          (Kelvin)            376.84   435.63   559.51   659.27   716.84
                              731.33   835.68   944.18   969.11  1002.98
                             1167.73  1178.22  1284.65  1356.72  1431.93
                             1445.73  1513.59  1545.89  1592.23  1619.04
                             1696.59  1749.76  1786.71  1844.93  1873.46
                             1930.56  2029.43  2032.71  2082.41  2091.63
                             2119.85  2133.83  2138.34  2145.22  2170.21
                             2646.70  4370.40  4381.64  4388.42  4411.12
                             4441.64  4459.85  4480.64  4496.41  4505.17
                             4515.99

 Zero-point correction=                           0.157493 (Hartree/Particle)
 Thermal correction to Energy=                    0.166458
 Thermal correction to Enthalpy=                  0.167402
 Thermal correction to Gibbs Free Energy=         0.124144
 Sum of electronic and zero-point Energies=           -423.059266
 Sum of electronic and thermal Energies=              -423.050301
 Sum of electronic and thermal Enthalpies=            -423.049356
 Sum of electronic and thermal Free Energies=         -423.092615

                     E (Thermal)             CV                S
                      KCal/Mol        Cal/Mol-Kelvin    Cal/Mol-Kelvin
 Total                  104.454             33.741             91.045
 Electronic               0.000              0.000              0.000
 Translational            0.889              2.981             40.409
 Rotational               0.889              2.981             28.554
 Vibrational            102.676             27.779             22.082
 Vibration     1          0.603              1.952              3.540
 Vibration     2          0.613              1.919              2.883
 Vibration     3          0.625              1.879              2.436
 Vibration     4          0.628              1.872              2.369
 Vibration     5          0.657              1.780              1.806
 Vibration     6          0.669              1.743              1.649
 Vibration     7          0.694              1.668              1.401
 Vibration     8          0.757              1.494              1.004
 Vibration     9          0.816              1.343              0.771
 Vibration    10          0.854              1.254              0.663
 Vibration    11          0.863              1.232              0.638
 Vibration    12          0.938              1.073              0.484

 Optimization completed.
    -- Stationary point found.
 Normal termination of Gaussian 09 at Mon Jan 27 17:56:41 2020.
