 Gaussian 09, Revision D.01,
 Gaussian 09:  ES64L-G09RevD.01 24-Apr-2013

 -----------------------------
 # b3lyp 6-31G(2df,p) opt Freq
 -----------------------------

 -----
 titel
 -----
 Symbolic Z-matrix:
 Charge =  0 Multiplicity = 1

 SCF Done:  E(RB3LYP) =  -423.103029787     A.U. after   14 cycles
 Optimization completed.
    -- Stationary point found.
 Normal termination of Gaussian 09 at Tue Jan 28 02:34:53 2020.

 ----------------------------------------------------------------------
 #N Geom=AllCheck Guess=TCheck SCRF=Check GenChk RB3LYP/6-31G(2df,p) Fr
 eq
 ----------------------------------------------------------------------

 Structure from the checkpoint file:  "/scratch/puck/g09_3afac375-1337-454b-8dae-0e10d5d110d1/Gau-87415.chk"
 -----
 titel
 -----
 Charge =  0 Multiplicity = 1

                         Standard orientation:
 ---------------------------------------------------------------------
 Center     Atomic      Atomic             Coordinates (Angstroms)
 Number     Number       Type             X           Y           Z
 ---------------------------------------------------------------------
      1          6           0        2.985062   -0.232685    0.492000
      2          6           0        1.846098    0.034891   -0.469116
      3          6           0        0.860230    1.180763   -0.140502
      4          6           0       -0.186040    0.069427   -0.097272
      5          8           0        0.776883   -0.949365   -0.346364
      6          6           0       -1.304407   -0.092975    0.961814
      7          6           0       -2.011877   -1.109234    0.034523
      8          6           0       -1.560460    0.101122   -0.815809
      9          8           0       -2.013907    1.007368    0.266186
     10          1           0        3.754214    0.541478    0.394699
     11          1           0        2.627913   -0.240335    1.526607
     12          1           0        3.446870   -1.202115    0.280566
     13          1           0        2.213526    0.054869   -1.502990
     14          1           0        1.041068    1.676947    0.815211
     15          1           0        0.719042    1.934710   -0.915559
     16          1           0       -1.254227   -0.052737    2.050466
     17          1           0       -1.519689   -2.067429   -0.141470
     18          1           0       -3.089659   -1.189406    0.181180
     19          1           0       -1.814493    0.372135   -1.841120
 ---------------------------------------------------------------------

 SCF Done:  E(RB3LYP) =  -423.103029787     A.U. after    1 cycles

 The electronic state is 1-A.
 Alpha  occ. eigenvalues --  -19.13732 -19.13520 -10.24511 -10.24205 -10.24187
 Alpha  occ. eigenvalues --  -10.23903 -10.18932 -10.18720 -10.18042  -1.06452
 Alpha  occ. eigenvalues --   -1.03585  -0.78513  -0.76101  -0.72378  -0.65333
 Alpha  occ. eigenvalues --   -0.64531  -0.57881  -0.52119  -0.50738  -0.49155
 Alpha  occ. eigenvalues --   -0.46877  -0.46423  -0.41832  -0.40459  -0.39847
 Alpha  occ. eigenvalues --   -0.38690  -0.36942  -0.35147  -0.34083  -0.32558
 Alpha  occ. eigenvalues --   -0.31738  -0.30542  -0.24698  -0.24040
 Alpha virt. eigenvalues --    0.07634   0.09517   0.11047   0.11517   0.12683
 Alpha virt. eigenvalues --    0.13070   0.13884   0.15023   0.15343   0.15444
 Alpha virt. eigenvalues --    0.16369   0.17553   0.18145   0.18583   0.19968

 Mulliken charges:
               1
     1  C   -0.396875
     2  C    0.145372
     3  C   -0.398901
     4  C    0.529211
     5  O   -0.346897
     6  C   -0.030248
     7  C   -0.238111
     8  C   -0.033180
     9  O   -0.319187
    10  H    0.118374
    11  H    0.119182
    12  H    0.128412
    13  H    0.079468
    14  H    0.114862
    15  H    0.117735
    16  H    0.091647
    17  H    0.120249
    18  H    0.106425
    19  H    0.092461
 Sum of Mulliken charges =   0.00000

 Dipole moment (field-independent basis, Debye):
    X=              1.3910    Y=             -0.0106    Z=             -0.1763  Tot=              1.4021
 Quadrupole moment (field-independent basis, Debye-Ang):
   XX=            -52.8618   YY=            -56.1274   ZZ=            -49.9585
   XY=              4.8211   XZ=              0.8208   YZ=             -1.4481

  Exact polarizability:  90.496   2.789  68.232   0.104  -1.129  69.105
 Approx polarizability: 113.207  -1.489 107.331  -1.164   0.048 107.143

                      1                      2                      3
                      A                      A                      A
 Frequencies --     56.0619               172.0341               215.4402
 Red. masses --      3.4079                 3.4263                 1.7367
 Frc consts  --      0.0063                 0.0597                 0.0475
 IR Inten    --      0.1677                 3.0283                 2.3754

                      4                      5                      6
                      A                      A                      A
 Frequencies --    248.9910               340.8713               350.7860
 Red. masses --      1.4880                 3.0786                 2.3753
 Frc consts  --      0.0544                 0.2108                 0.1722
 IR Inten    --      2.5677                 1.2345                 2.0000

                      7                      8                      9
                      A                      A                      A
 Frequencies --    408.7240               473.9494               557.4842
 Red. masses --      3.6347                 2.3704                 2.7016
 Frc consts  --      0.3578                 0.3137                 0.4947
 IR Inten    --      2.2340                 1.3089                 1.5421

                     10                     11                     12
                      A                      A                      A
 Frequencies --    636.9213               746.9748               776.1826
 Red. masses --      4.2801                 3.9110                 2.8461
 Frc consts  --      1.0230                 1.2857                 1.0103
 IR Inten    --      6.0150                13.1227                 8.0468

                     13                     14                     15
                      A                      A                      A
 Frequencies --    815.6551               860.3594               879.8632
 Red. masses --      2.6365                 2.3606                 2.7464
 Frc consts  --      1.0334                 1.0295                 1.2527
 IR Inten    --      0.6549                 3.3819                22.4703

                     16                     17                     18
                      A                      A                      A
 Frequencies --    901.0672               916.3893               918.6262
 Red. masses --      2.6355                 2.6541                 3.4528
 Frc consts  --      1.2608                 1.3132                 1.7167
 IR Inten    --     29.7921                 4.4780                 1.7572

                     19                     20                     21
                      A                      A                      A
 Frequencies --    932.0650              1012.9382              1015.5200
 Red. masses --      1.4106                 1.6514                 1.1075
 Frc consts  --      0.7220                 0.9983                 0.6729
 IR Inten    --      1.2487                 1.2446                 0.1676

                     22                     23                     24
                      A                      A                      A
 Frequencies --   1052.7483              1098.2005              1111.7457
 Red. masses --      3.7636                 1.7872                 2.7582
 Frc consts  --      2.4575                 1.2699                 2.0086
 IR Inten    --    211.1328                 2.5419                 9.9678

                     25                     26                     27
                      A                      A                      A
 Frequencies --   1120.4743              1148.0257              1152.6117
 Red. masses --      1.5751                 3.1116                 1.9203
 Frc consts  --      1.1651                 2.4163                 1.5031
 IR Inten    --     11.6943                41.2953                 5.2004

                     28                     29                     30
                      A                      A                      A
 Frequencies --   1172.5812              1198.1669              1201.3520
 Red. masses --      1.3495                 1.8590                 1.6814
 Frc consts  --      1.0932                 1.5724                 1.4297
 IR Inten    --      0.0926                 5.0988                 1.3038

                     31                     32                     33
                      A                      A                      A
 Frequencies --   1218.4346              1250.9483              1271.3662
 Red. masses --      1.5608                 1.5479                 1.5380
 Frc consts  --      1.3652                 1.4271                 1.4647
 IR Inten    --      9.9064                 3.6641                 1.4898

                     34                     35                     36
                      A                      A                      A
 Frequencies --   1314.0338              1348.4343              1391.8803
 Red. masses --      1.5266                 2.5263                 1.3955
 Frc consts  --      1.5530                 2.7064                 1.5929
 IR Inten    --     19.0430                56.2449                 0.1502

                     37                     38                     39
                      A                      A                      A
 Frequencies --   1411.7077              1478.0278              1481.6547
 Red. masses --      1.4547                 1.1461                 1.0691
 Frc consts  --      1.7081                 1.4752                 1.3829
 IR Inten    --     10.5649                 2.4201                 5.5641

                     40                     41                     42
                      A                      A                      A
 Frequencies --   1487.8977              1495.7733              3020.4529
 Red. masses --      1.1548                 1.0562                 1.0853
 Frc consts  --      1.5062                 1.3922                 5.8335
 IR Inten    --      5.2905                 1.7198                46.3748

                     43                     44                     45
                      A                      A                      A
 Frequencies --   3033.3827              3076.0284              3079.9670
 Red. masses --      1.0353                 1.0539                 1.0603
 Frc consts  --      5.6124                 5.8751                 5.9264
 IR Inten    --     15.9294                27.9065                12.5001

                     46                     47                     48
                      A                      A                      A
 Frequencies --   3105.9705              3112.2808              3112.9460
 Red. masses --      1.1008                 1.0938                 1.0986
 Frc consts  --      6.2566                 6.2423                 6.2725
 IR Inten    --     20.5091                43.4814                66.6046

                     49                     50                     51
                      A                      A                      A
 Frequencies --   3119.5333              3135.7681              3157.0689
 Red. masses --      1.0964                 1.1075                 1.1125
 Frc consts  --      6.2865                 6.4164                 6.5330
 IR Inten    --      1.6750                15.7470                18.1197

 - Thermochemistry -
 -------------------
 Temperature   298.150 Kelvin.  Pressure   1.00000 Atm.
 Atom     1 has atomic number  6 and mass  12.00000

 Molecular mass:   126.06808 amu.
 Principal axes and moments of inertia in atomic units:
                           1         2         3
     Eigenvalues --   426.133351529.497811655.56515
           X            0.99971   0.02206   0.01002
           Y           -0.02158   0.99873  -0.04551
           Z           -0.01101   0.04528   0.99891
 This molecule is an asymmetric top.
 Rotational symmetry number  1.
 Rotational temperatures (Kelvin)      0.20326     0.05663     0.05232
 Rotational constants (GHZ):           4.23516     1.17996     1.09011
 Zero-point vibrational energy     416278.7 (Joules/Mol)
                                   99.49300 (Kcal/Mol)
 Warning -- explicit consideration of   9 degrees of freedom as
           vibrations may cause significant error
 Vibrational temperatures:     80.66   247.52   309.97   358.24   490.44
          (Kelvin)            504.70   588.06   681.91   802.09   916.39
                             1074.73  1116.75  1173.54  1237.86  1265.93
                             1296.43  1318.48  1321.70  1341.03  1457.39
                             1461.10  1514.67  1580.06  1599.55  1612.11
                             1651.75  1658.35  1687.08  1723.89  1728.48
                             1753.05  1799.83  1829.21  1890.60  1940.09
                             2002.60  2031.13  2126.55  2131.77  2140.75
                             2152.08  4345.75  4364.36  4425.71  4431.38
                             4468.79  4477.87  4478.83  4488.31  4511.67
                             4542.31

 Zero-point correction=                           0.158552 (Hartree/Particle)
 Thermal correction to Energy=                    0.166381
 Thermal correction to Enthalpy=                  0.167325
 Thermal correction to Gibbs Free Energy=         0.125999
 Sum of electronic and zero-point Energies=           -422.944478
 Sum of electronic and thermal Energies=              -422.936649
 Sum of electronic and thermal Enthalpies=            -422.935705
 Sum of electronic and thermal Free Energies=         -422.977031

                     E (Thermal)             CV                S
                      KCal/Mol        Cal/Mol-Kelvin    Cal/Mol-Kelvin
 Total                  104.405             30.750             86.978
 Electronic               0.000              0.000              0.000
 Translational            0.889              2.981             40.409
 Rotational               0.889              2.981             28.469
 Vibrational            102.628             24.788             18.100
 Vibration     1          0.596              1.975              4.591
 Vibration     2          0.626              1.877              2.413
 Vibration     3          0.645              1.817              1.997
 Vibration     4          0.662              1.764              1.738
 Vibration     5          0.720              1.594              1.208
 Vibration     6          0.728              1.574              1.163
 Vibration     7          0.773              1.451              0.931
 Vibration     8          0.831              1.308              0.727
 Vibration     9          0.913              1.123              0.529

 Normal termination of Gaussian 09 at Tue Jan 28 03:16:55 2020.
