 Gaussian 09, Revision D.01,
 Gaussian 09:  ES64L-G09RevD.01 24-Apr-2013

 -----------------------------
 # b3lyp 6-31G(2df,p) opt Freq
 -----------------------------

 -----
 titel
 -----
 Symbolic Z-matrix:
 Charge =  0 Multiplicity = 1

 SCF Done:  E(RB3LYP) =  -423.208556585     A.U. after   14 cycles
 Optimization completed.
    -- Stationary point found.
 Normal termination of Gaussian 09 at Tue Jan 28 00:44:06 2020.

 ----------------------------------------------------------------------
 #N Geom=AllCheck Guess=TCheck SCRF=Check GenChk RB3LYP/6-31G(2df,p) Fr
 eq
 ----------------------------------------------------------------------

 Structure from the checkpoint file:  "/scratch/puck/g09_5ad588ee-b09c-49e6-aca5-29dd8f7c70d6/Gau-81580.chk"
 -----
 titel
 -----
 Charge =  0 Multiplicity = 1

                         Standard orientation:
 ---------------------------------------------------------------------
 Center     Atomic      Atomic             Coordinates (Angstroms)
 Number     Number       Type             X           Y           Z
 ---------------------------------------------------------------------
      1          6           0        1.542786    1.952650   -0.169270
      2          6           0        0.372130    1.063739    0.102552
      3          6           0       -0.914749    1.281304   -0.181264
      4          6           0       -1.796235    0.120336    0.196954
      5          8           0       -2.143705   -0.576298   -1.006452
      6          6           0       -0.877025   -0.709191    1.128669
      7          6           0        0.563208   -0.311248    0.737763
      8          6           0        1.157053   -1.231109   -0.323374
      9          8           0        2.322023   -1.527359   -0.395748
     10          1           0        2.026753    2.258200    0.766853
     11          1           0        2.306549    1.425254   -0.752691
     12          1           0        1.248084    2.853407   -0.713356
     13          1           0       -1.302346    2.162654   -0.679479
     14          1           0       -2.714704    0.437221    0.711122
     15          1           0       -2.818276   -1.227284   -0.785457
     16          1           0       -1.052771   -0.428550    2.171587
     17          1           0       -1.074147   -1.782277    1.035859
     18          1           0        1.259301   -0.285361    1.582060
     19          1           0        0.412000   -1.582895   -1.071078
 ---------------------------------------------------------------------

 SCF Done:  E(RB3LYP) =  -423.208556585     A.U. after    1 cycles

 The electronic state is 1-A.
 Alpha  occ. eigenvalues --  -19.13967 -19.13509 -10.26435 -10.23985 -10.20254
 Alpha  occ. eigenvalues --  -10.19777 -10.19145 -10.18702 -10.18125  -1.04167
 Alpha  occ. eigenvalues --   -1.01955  -0.85597  -0.75381  -0.72882  -0.67360
 Alpha  occ. eigenvalues --   -0.60925  -0.57054  -0.53087  -0.51370  -0.48473
 Alpha  occ. eigenvalues --   -0.45937  -0.44093  -0.43488  -0.41749  -0.39672
 Alpha  occ. eigenvalues --   -0.38671  -0.38324  -0.37310  -0.36281  -0.33604
 Alpha  occ. eigenvalues --   -0.32752  -0.27361  -0.26560  -0.23640
 Alpha virt. eigenvalues --   -0.02591   0.02051   0.07898   0.10231   0.11657
 Alpha virt. eigenvalues --    0.13220   0.13772   0.14931   0.16060   0.16873
 Alpha virt. eigenvalues --    0.17394   0.18431   0.19815   0.20765   0.22857

 Mulliken charges:
               1
     1  C   -0.496153
     2  C    0.316203
     3  C   -0.165208
     4  C    0.070064
     5  O   -0.433851
     6  C   -0.274414
     7  C   -0.157996
     8  C    0.151791
     9  O   -0.259330
    10  H    0.132049
    11  H    0.148446
    12  H    0.127322
    13  H    0.097276
    14  H    0.068421
    15  H    0.281353
    16  H    0.110061
    17  H    0.098068
    18  H    0.088381
    19  H    0.097516
 Sum of Mulliken charges =   0.00000

 Dipole moment (field-independent basis, Debye):
    X=             -2.6179    Y=              0.9406    Z=              1.6621  Tot=              3.2405
 Quadrupole moment (field-independent basis, Debye-Ang):
   XX=            -55.2425   YY=            -51.5865   ZZ=            -54.4154
   XY=              7.6054   XZ=             -0.6467   YZ=             -1.4383

  Exact polarizability:  96.804   0.487  76.848   1.690  -1.084  62.611
 Approx polarizability: 149.017  -7.074 108.183   5.977  -0.222  95.769

                      1                      2                      3
                      A                      A                      A
 Frequencies --     61.4380                81.0140               138.8564
 Red. masses --      4.6468                 5.0298                 2.6332
 Frc consts  --      0.0103                 0.0195                 0.0299
 IR Inten    --      4.6364                 0.6989                 4.1059

                      4                      5                      6
                      A                      A                      A
 Frequencies --    184.0463               233.0960               269.0280
 Red. masses --      1.1789                 2.3312                 2.5694
 Frc consts  --      0.0235                 0.0746                 0.1096
 IR Inten    --      0.3961                 1.6637                 7.4590

                      7                      8                      9
                      A                      A                      A
 Frequencies --    309.6384               344.9187               396.7854
 Red. masses --      1.1647                 2.2304                 2.6415
 Frc consts  --      0.0658                 0.1563                 0.2450
 IR Inten    --     98.8496                 1.4601                 1.9274

                     10                     11                     12
                      A                      A                      A
 Frequencies --    441.3085               466.2171               565.0801
 Red. masses --      4.3596                 4.1500                 2.7970
 Frc consts  --      0.5002                 0.5315                 0.5262
 IR Inten    --      4.2535                 6.9268                22.9087

                     13                     14                     15
                      A                      A                      A
 Frequencies --    615.3808               779.0128               800.6165
 Red. masses --      3.8053                 3.7977                 2.3322
 Frc consts  --      0.8490                 1.3579                 0.8808
 IR Inten    --      3.6830                 4.6030                 6.9558

                     16                     17                     18
                      A                      A                      A
 Frequencies --    858.3790               885.4886               916.0840
 Red. masses --      1.7560                 2.4603                 2.3836
 Frc consts  --      0.7623                 1.1366                 1.1786
 IR Inten    --      7.4836                 9.0326                11.4314

                     19                     20                     21
                      A                      A                      A
 Frequencies --    964.3091               998.3487              1025.7635
 Red. masses --      2.0753                 2.7308                 1.5681
 Frc consts  --      1.1370                 1.6036                 0.9721
 IR Inten    --      4.6537                71.1061                 5.6251

                     22                     23                     24
                      A                      A                      A
 Frequencies --   1034.2665              1052.1590              1083.9532
 Red. masses --      1.7093                 1.8018                 2.0137
 Frc consts  --      1.0773                 1.1752                 1.3940
 IR Inten    --     15.4266                 0.5594                 5.0310

                     25                     26                     27
                      A                      A                      A
 Frequencies --   1102.4602              1155.7730              1213.4377
 Red. masses --      2.8413                 1.6096                 1.2915
 Frc consts  --      2.0347                 1.2668                 1.1204
 IR Inten    --     14.5266                10.2436                45.0458

                     28                     29                     30
                      A                      A                      A
 Frequencies --   1228.3836              1258.9329              1268.3268
 Red. masses --      1.1783                 2.0008                 1.5351
 Frc consts  --      1.0475                 1.8683                 1.4550
 IR Inten    --     25.7177                 9.3934                 5.3165

                     31                     32                     33
                      A                      A                      A
 Frequencies --   1294.2437              1332.7430              1351.2614
 Red. masses --      1.5064                 1.5785                 1.3774
 Frc consts  --      1.4867                 1.6519                 1.4818
 IR Inten    --      6.2269                 8.8066                 2.5932

                     34                     35                     36
                      A                      A                      A
 Frequencies --   1411.6588              1417.5045              1425.5425
 Red. masses --      1.2514                 1.2433                 1.4331
 Frc consts  --      1.4693                 1.4719                 1.7159
 IR Inten    --      2.3231                 2.1586                21.9282

                     37                     38                     39
                      A                      A                      A
 Frequencies --   1472.5914              1477.2530              1486.3356
 Red. masses --      1.0970                 1.0445                 1.0602
 Frc consts  --      1.4015                 1.3430                 1.3799
 IR Inten    --      2.0596                 8.0437                 6.6599

                     40                     41                     42
                      A                      A                      A
 Frequencies --   1713.8705              1822.9326              2896.3304
 Red. masses --      7.1557                10.1655                 1.0843
 Frc consts  --     12.3839                19.9030                 5.3591
 IR Inten    --     16.8119               202.6439                52.2040

                     43                     44                     45
                      A                      A                      A
 Frequencies --   2996.3271              3025.2791              3048.5002
 Red. masses --      1.0840                 1.0382                 1.0621
 Frc consts  --      5.7339                 5.5985                 5.8158
 IR Inten    --     63.8109                17.8395                31.0617

                     46                     47                     48
                      A                      A                      A
 Frequencies --   3065.2180              3076.1862              3094.8715
 Red. masses --      1.0840                 1.0971                 1.1041
 Frc consts  --      6.0007                 6.1169                 6.2310
 IR Inten    --     19.0251                10.7348                22.1162

                     49                     50                     51
                      A                      A                      A
 Frequencies --   3119.2196              3199.5018              3806.1838
 Red. masses --      1.1007                 1.0941                 1.0662
 Frc consts  --      6.3095                 6.5988                 9.1004
 IR Inten    --     15.3747                 9.9499                13.4848

 - Thermochemistry -
 -------------------
 Temperature   298.150 Kelvin.  Pressure   1.00000 Atm.
 Atom     1 has atomic number  6 and mass  12.00000

 Molecular mass:   126.06808 amu.
 Principal axes and moments of inertia in atomic units:
                           1         2         3
     Eigenvalues --   819.942821274.853891696.53226
           X            0.99546   0.09484  -0.00850
           Y           -0.09503   0.99513  -0.02608
           Z            0.00598   0.02677   0.99962
 This molecule is an asymmetric top.
 Rotational symmetry number  1.
 Warning -- assumption of classical behavior for rotation
           may cause significant error
 Rotational temperatures (Kelvin)      0.10563     0.06794     0.05105
 Rotational constants (GHZ):           2.20106     1.41565     1.06378
 Zero-point vibrational energy     414303.0 (Joules/Mol)
                                   99.02080 (Kcal/Mol)
 Warning -- explicit consideration of  13 degrees of freedom as
           vibrations may cause significant error
 Vibrational temperatures:     88.40   116.56   199.78   264.80   335.37
          (Kelvin)            387.07   445.50   496.26   570.88   634.94
                              670.78   813.02   885.39  1120.82  1151.91
                             1235.01  1274.02  1318.04  1387.42  1436.40
                             1475.84  1488.08  1513.82  1559.56  1586.19
                             1662.90  1745.86  1767.37  1811.32  1824.84
                             1862.13  1917.52  1944.16  2031.06  2039.47
                             2051.04  2118.73  2125.43  2138.50  2465.87
                             2622.79  4167.17  4311.04  4352.70  4386.11
                             4410.16  4425.94  4452.82  4487.86  4603.36
                             5476.24

 Zero-point correction=                           0.157800 (Hartree/Particle)
 Thermal correction to Energy=                    0.167084
 Thermal correction to Enthalpy=                  0.168028
 Thermal correction to Gibbs Free Energy=         0.123339
 Sum of electronic and zero-point Energies=           -423.050757
 Sum of electronic and thermal Energies=              -423.041473
 Sum of electronic and thermal Enthalpies=            -423.040529
 Sum of electronic and thermal Free Energies=         -423.085217

                     E (Thermal)             CV                S
                      KCal/Mol        Cal/Mol-Kelvin    Cal/Mol-Kelvin
 Total                  104.847             33.960             94.055
 Electronic               0.000              0.000              0.000
 Translational            0.889              2.981             40.409
 Rotational               0.889              2.981             28.963
 Vibrational            103.069             27.999             24.684
 Vibration     1          0.597              1.973              4.410
 Vibration     2          0.600              1.962              3.866
 Vibration     3          0.614              1.914              2.820
 Vibration     4          0.631              1.862              2.287
 Vibration     5          0.654              1.790              1.855
 Vibration     6          0.673              1.730              1.602
 Vibration     7          0.699              1.655              1.364
 Vibration     8          0.723              1.586              1.189
 Vibration     9          0.763              1.477              0.975
 Vibration    10          0.801              1.380              0.823
 Vibration    11          0.824              1.325              0.748
 Vibration    12          0.921              1.107              0.514
 Vibration    13          0.975              0.999              0.424

 Normal termination of Gaussian 09 at Tue Jan 28 01:26:49 2020.
