 Gaussian 09, Revision D.01,
 Gaussian 09:  ES64L-G09RevD.01 24-Apr-2013

 -----------------------------
 # b3lyp 6-31G(2df,p) opt Freq
 -----------------------------

 -----
 titel
 -----
 Symbolic Z-matrix:
 Charge =  0 Multiplicity = 1

 SCF Done:  E(RB3LYP) =  -423.129410275     A.U. after   14 cycles
 Optimization completed.
    -- Stationary point found.
 Normal termination of Gaussian 09 at Mon Jan 27 22:04:21 2020.

 ----------------------------------------------------------------------
 #N Geom=AllCheck Guess=TCheck SCRF=Check GenChk RB3LYP/6-31G(2df,p) Fr
 eq
 ----------------------------------------------------------------------

 Structure from the checkpoint file:  "/scratch/puck/g09_d1d612c1-2c26-434c-8899-59453472c75a/Gau-62982.chk"
 -----
 titel
 -----
 Charge =  0 Multiplicity = 1

                         Standard orientation:
 ---------------------------------------------------------------------
 Center     Atomic      Atomic             Coordinates (Angstroms)
 Number     Number       Type             X           Y           Z
 ---------------------------------------------------------------------
      1          6           0        0.085071    2.084331    0.045615
      2          6           0        0.005695    0.693587   -0.564619
      3          6           0       -1.060226   -0.303302   -0.066319
      4          6           0       -2.275181   -0.050056    0.707754
      5          8           0       -2.329030   -0.476844   -0.663511
      6          6           0       -0.022081   -1.423297    0.105264
      7          6           0        1.052650   -0.351261   -0.122972
      8          6           0        2.477339   -0.459501   -0.420009
      9          8           0        2.014933   -0.046918    0.876686
     10          1           0        0.155181    2.031871    1.135392
     11          1           0        0.967991    2.620099   -0.317267
     12          1           0       -0.796499    2.676563   -0.220041
     13          1           0       -0.039919    0.750235   -1.659186
     14          1           0       -2.611963   -0.784228    1.438763
     15          1           0       -2.604133    0.972010    0.889677
     16          1           0        0.015259   -1.927677    1.073583
     17          1           0       -0.076567   -2.168250   -0.694277
     18          1           0        2.952972   -1.439068   -0.454417
     19          1           0        2.970859    0.315527   -1.005910
 ---------------------------------------------------------------------

 SCF Done:  E(RB3LYP) =  -423.129410275     A.U. after    1 cycles

 The electronic state is 1-A.
 Alpha  occ. eigenvalues --  -19.15241 -19.15126 -10.24399 -10.24324 -10.23433
 Alpha  occ. eigenvalues --  -10.23366 -10.19439 -10.18912 -10.17972  -1.07439
 Alpha  occ. eigenvalues --   -1.07074  -0.83964  -0.73606  -0.67127  -0.66133
 Alpha  occ. eigenvalues --   -0.63538  -0.59219  -0.53286  -0.50221  -0.50071
 Alpha  occ. eigenvalues --   -0.47221  -0.46328  -0.43941  -0.41459  -0.40836
 Alpha  occ. eigenvalues --   -0.40027  -0.37323  -0.35088  -0.34178  -0.32768
 Alpha  occ. eigenvalues --   -0.31534  -0.28365  -0.26761  -0.25740
 Alpha virt. eigenvalues --    0.05734   0.09351   0.10569   0.10836   0.11717
 Alpha virt. eigenvalues --    0.12697   0.14186   0.14325   0.15424   0.15935
 Alpha virt. eigenvalues --    0.16414   0.16680   0.19002   0.19687   0.21148

 Mulliken charges:
               1
     1  C   -0.408578
     2  C   -0.151596
     3  C    0.439330
     4  C   -0.260961
     5  O   -0.276169
     6  C   -0.405706
     7  C    0.422488
     8  C   -0.269552
     9  O   -0.261355
    10  H    0.128985
    11  H    0.121801
    12  H    0.119921
    13  H    0.092349
    14  H    0.116299
    15  H    0.117694
    16  H    0.122980
    17  H    0.120590
    18  H    0.116381
    19  H    0.115099
 Sum of Mulliken charges =   0.00000

 Dipole moment (field-independent basis, Debye):
    X=              0.5785    Y=              0.0533    Z=             -0.2470  Tot=              0.6312
 Quadrupole moment (field-independent basis, Debye-Ang):
   XX=            -56.1173   YY=            -50.7146   ZZ=            -53.9585
   XY=             -2.5667   XZ=             -8.0800   YZ=             -1.0548

  Exact polarizability:  88.782  -2.314  74.726  -7.596  -0.985  63.349
 Approx polarizability: 117.263  -1.662 101.292  -5.148   1.461 104.536

                      1                      2                      3
                      A                      A                      A
 Frequencies --     44.7625               192.4855               196.2110
 Red. masses --      3.7389                 1.2543                 2.7876
 Frc consts  --      0.0044                 0.0274                 0.0632
 IR Inten    --      2.4133                 0.5546                 0.2889

                      4                      5                      6
                      A                      A                      A
 Frequencies --    205.9984               249.8170               283.3053
 Red. masses --      2.0890                 2.7515                 4.3877
 Frc consts  --      0.0522                 0.1012                 0.2075
 IR Inten    --      1.7506                 0.1109                11.3800

                      7                      8                      9
                      A                      A                      A
 Frequencies --    354.7272               365.9361               450.7308
 Red. masses --      3.1823                 2.1732                 5.8806
 Frc consts  --      0.2359                 0.1715                 0.7039
 IR Inten    --      1.3739                 1.6030                 0.2557

                     10                     11                     12
                      A                      A                      A
 Frequencies --    483.4744               549.8864               671.4704
 Red. masses --      2.4679                 3.0628                 3.1879
 Frc consts  --      0.3399                 0.5457                 0.8469
 IR Inten    --      1.8694                 6.1731                 4.6528

                     13                     14                     15
                      A                      A                      A
 Frequencies --    768.2190               806.8332               853.7043
 Red. masses --      2.8886                 2.5355                 2.7640
 Frc consts  --      1.0044                 0.9725                 1.1869
 IR Inten    --      7.8020                40.0423                 1.0602

                     16                     17                     18
                      A                      A                      A
 Frequencies --    865.5987               886.3891               915.6932
 Red. masses --      1.8557                 1.7420                 3.2680
 Frc consts  --      0.8192                 0.8064                 1.6145
 IR Inten    --      7.1456                 3.8215                34.1254

                     19                     20                     21
                      A                      A                      A
 Frequencies --    948.2651               988.9025              1046.5055
 Red. masses --      2.7086                 2.1755                 1.1834
 Frc consts  --      1.4350                 1.2535                 0.7636
 IR Inten    --      2.8980                27.7135                 0.5022

                     22                     23                     24
                      A                      A                      A
 Frequencies --   1077.3538              1108.3623              1124.1008
 Red. masses --      2.7811                 1.7509                 1.3198
 Frc consts  --      1.9019                 1.2673                 0.9826
 IR Inten    --     14.9118                 2.2004                 0.5655

                     25                     26                     27
                      A                      A                      A
 Frequencies --   1125.3176              1142.4892              1151.2492
 Red. masses --      1.3393                 1.7607                 2.1534
 Frc consts  --      0.9993                 1.3541                 1.6816
 IR Inten    --      3.4798                 0.8160                 9.7648

                     28                     29                     30
                      A                      A                      A
 Frequencies --   1161.8716              1177.1193              1214.0681
 Red. masses --      1.4242                 1.5963                 1.4374
 Frc consts  --      1.1328                 1.3032                 1.2483
 IR Inten    --      0.6474                 0.9775                 0.9284

                     31                     32                     33
                      A                      A                      A
 Frequencies --   1228.8553              1253.6842              1353.7987
 Red. masses --      2.6059                 1.5014                 1.7233
 Frc consts  --      2.3185                 1.3903                 1.8609
 IR Inten    --     12.9987                 0.6970                 0.9266

                     34                     35                     36
                      A                      A                      A
 Frequencies --   1406.5612              1416.1837              1442.1603
 Red. masses --      1.3196                 2.5662                 1.4436
 Frc consts  --      1.5382                 3.0324                 1.7689
 IR Inten    --      3.7353                37.0520                 1.7833

                     37                     38                     39
                      A                      A                      A
 Frequencies --   1470.7044              1491.5949              1496.5016
 Red. masses --      1.2939                 1.0580                 1.0654
 Frc consts  --      1.6490                 1.3869                 1.4057
 IR Inten    --      3.2058                 5.5373                 5.3794

                     40                     41                     42
                      A                      A                      A
 Frequencies --   1531.1666              1546.0569              3035.2120
 Red. masses --      1.4239                 1.9662                 1.0759
 Frc consts  --      1.9669                 2.7690                 5.8399
 IR Inten    --     13.3167                 0.4414                15.5126

                     43                     44                     45
                      A                      A                      A
 Frequencies --   3039.0616              3058.8842              3077.6301
 Red. masses --      1.0420                 1.0596                 1.0504
 Frc consts  --      5.6703                 5.8414                 5.8622
 IR Inten    --     17.5162                12.8768                27.6363

                     46                     47                     48
                      A                      A                      A
 Frequencies --   3081.8551              3103.2325              3118.0904
 Red. masses --      1.0503                 1.1011                 1.1060
 Frc consts  --      5.8774                 6.2473                 6.3356
 IR Inten    --     22.4926                22.3321                 1.7769

                     49                     50                     51
                      A                      A                      A
 Frequencies --   3119.3149              3162.8843              3168.8332
 Red. masses --      1.1022                 1.1191                 1.1193
 Frc consts  --      6.3187                 6.5962                 6.6222
 IR Inten    --     25.3876                20.8233                20.9699

 - Thermochemistry -
 -------------------
 Temperature   298.150 Kelvin.  Pressure   1.00000 Atm.
 Atom     1 has atomic number  6 and mass  12.00000

 Molecular mass:   126.06808 amu.
 Principal axes and moments of inertia in atomic units:
                           1         2         3
     Eigenvalues --   583.378441389.292781677.54710
           X            0.99937  -0.01334  -0.03298
           Y            0.01305   0.99987  -0.00916
           Z            0.03310   0.00873   0.99941
 This molecule is an asymmetric top.
 Rotational symmetry number  1.
 Warning -- assumption of classical behavior for rotation
           may cause significant error
 Rotational temperatures (Kelvin)      0.14847     0.06234     0.05163
 Rotational constants (GHZ):           3.09360     1.29904     1.07582
 Zero-point vibrational energy     412790.1 (Joules/Mol)
                                   98.65920 (Kcal/Mol)
 Warning -- explicit consideration of  11 degrees of freedom as
           vibrations may cause significant error
 Vibrational temperatures:     64.40   276.94   282.30   296.39   359.43
          (Kelvin)            407.61   510.37   526.50   648.50   695.61
                              791.16   966.09  1105.29  1160.85  1228.29
                             1245.40  1275.31  1317.48  1364.34  1422.81
                             1505.69  1550.07  1594.68  1617.33  1619.08
                             1643.79  1656.39  1671.67  1693.61  1746.77
                             1768.05  1803.77  1947.81  2023.73  2037.57
                             2074.94  2116.01  2146.07  2153.13  2203.00
                             2224.43  4366.99  4372.53  4401.05  4428.02
                             4434.10  4464.85  4486.23  4487.99  4550.68
                             4559.24

 Zero-point correction=                           0.157223 (Hartree/Particle)
 Thermal correction to Energy=                    0.165821
 Thermal correction to Enthalpy=                  0.166765
 Thermal correction to Gibbs Free Energy=         0.123779
 Sum of electronic and zero-point Energies=           -422.972187
 Sum of electronic and thermal Energies=              -422.963589
 Sum of electronic and thermal Enthalpies=            -422.962645
 Sum of electronic and thermal Free Energies=         -423.005631

                     E (Thermal)             CV                S
                      KCal/Mol        Cal/Mol-Kelvin    Cal/Mol-Kelvin
 Total                  104.054             32.697             90.472
 Electronic               0.000              0.000              0.000
 Translational            0.889              2.981             40.409
 Rotational               0.889              2.981             28.699
 Vibrational            102.277             26.735             21.364
 Vibration     1          0.595              1.979              5.036
 Vibration     2          0.634              1.850              2.204
 Vibration     3          0.636              1.845              2.168
 Vibration     4          0.640              1.831              2.079
 Vibration     5          0.663              1.763              1.732
 Vibration     6          0.682              1.705              1.514
 Vibration     7          0.731              1.566              1.145
 Vibration     8          0.739              1.542              1.097
 Vibration     9          0.810              1.359              0.794
 Vibration    10          0.840              1.287              0.701
 Vibration    11          0.905              1.140              0.544

 Normal termination of Gaussian 09 at Mon Jan 27 22:48:36 2020.
