 Gaussian 09, Revision D.01,
 Gaussian 09:  ES64L-G09RevD.01 24-Apr-2013

 -----------------------------
 # b3lyp 6-31G(2df,p) opt Freq
 -----------------------------

 -----
 titel
 -----
 Symbolic Z-matrix:
 Charge =  0 Multiplicity = 1

 SCF Done:  E(RB3LYP) =  -423.163667699     A.U. after   14 cycles
 Optimization completed.
    -- Stationary point found.
 Normal termination of Gaussian 09 at Tue Jan 28 14:27:56 2020.

 ----------------------------------------------------------------------
 #N Geom=AllCheck Guess=TCheck SCRF=Check GenChk RB3LYP/6-31G(2df,p) Fr
 eq
 ----------------------------------------------------------------------

 Structure from the checkpoint file:  "/scratch/puck/g09_c176d0c6-0b06-4c31-a2e7-6e5d0d09af10/Gau-35070.chk"
 -----
 titel
 -----
 Charge =  0 Multiplicity = 1

                         Standard orientation:
 ---------------------------------------------------------------------
 Center     Atomic      Atomic             Coordinates (Angstroms)
 Number     Number       Type             X           Y           Z
 ---------------------------------------------------------------------
      1          6           0       -2.966597   -1.606291   -0.000626
      2          6           0       -2.601719   -0.132111    0.001016
      3          8           0       -1.190870   -0.017505   -0.000856
      4          6           0       -0.744368    1.309032    0.000465
      5          6           0        0.781136    1.390149   -0.000122
      6          8           0        1.326830    2.473857   -0.000255
      7          6           0        1.515211    0.148176   -0.000409
      8          6           0        2.176646   -0.861275   -0.000967
      9          6           0        2.967936   -2.078205   -0.000062
     10          1           0       -4.053687   -1.728798    0.001034
     11          1           0       -2.562016   -2.100242   -0.888452
     12          1           0       -2.558984   -2.102929    0.884308
     13          1           0       -3.022633    0.374357   -0.883907
     14          1           0       -3.020021    0.371744    0.888669
     15          1           0       -1.100948    1.865154   -0.883225
     16          1           0       -1.100119    1.863043    0.885830
     17          1           0        3.513127   -2.182197    0.944618
     18          1           0        2.339649   -2.965507   -0.128677
     19          1           0        3.708481   -2.062286   -0.807079
 ---------------------------------------------------------------------

 SCF Done:  E(RB3LYP) =  -423.163667699     A.U. after    1 cycles

 The electronic state is 1-A.
 Alpha  occ. eigenvalues --  -19.14694 -19.12914 -10.28288 -10.23718 -10.23467
 Alpha  occ. eigenvalues --  -10.21703 -10.20231 -10.18067 -10.17998  -1.04821
 Alpha  occ. eigenvalues --   -1.03556  -0.79528  -0.77497  -0.72991  -0.69798
 Alpha  occ. eigenvalues --   -0.61418  -0.61169  -0.50963  -0.49345  -0.48220
 Alpha  occ. eigenvalues --   -0.46634  -0.44534  -0.44062  -0.43891  -0.43365
 Alpha  occ. eigenvalues --   -0.38878  -0.38625  -0.38115  -0.35277  -0.32817
 Alpha  occ. eigenvalues --   -0.27643  -0.27194  -0.26088  -0.25406
 Alpha virt. eigenvalues --   -0.04897   0.04319   0.08813   0.10166   0.10296
 Alpha virt. eigenvalues --    0.11778   0.14177   0.14770   0.16471   0.17095
 Alpha virt. eigenvalues --    0.17756   0.18062   0.19215   0.19414   0.19931

 Mulliken charges:
               1
     1  C   -0.386470
     2  C   -0.030460
     3  O   -0.239074
     4  C   -0.153503
     5  C    0.169550
     6  O   -0.288203
     7  C    0.145829
     8  C    0.006957
     9  C   -0.501943
    10  H    0.116889
    11  H    0.128419
    12  H    0.128484
    13  H    0.090149
    14  H    0.090142
    15  H    0.119290
    16  H    0.119258
    17  H    0.163086
    18  H    0.159202
    19  H    0.162397
 Sum of Mulliken charges =   0.00000

 Dipole moment (field-independent basis, Debye):
    X=             -1.2921    Y=             -3.0079    Z=              0.0119  Tot=              3.2737
 Quadrupole moment (field-independent basis, Debye-Ang):
   XX=            -45.7963   YY=            -55.6871   ZZ=            -52.2245
   XY=            -10.1491   XZ=              0.0255   YZ=             -0.0211

  Exact polarizability:  92.392 -13.873 101.128   0.014  -0.059  56.901
 Approx polarizability: 116.123 -25.334 161.679   0.033  -0.120  84.766

                      1                      2                      3
                      A                      A                      A
 Frequencies --     17.2652                25.4644                58.1594
 Red. masses --      2.0105                 1.0141                 3.6388
 Frc consts  --      0.0004                 0.0004                 0.0073
 IR Inten    --      6.6830                 0.1392                 1.5853

                      4                      5                      6
                      A                      A                      A
 Frequencies --     73.5135               118.9914               144.6792
 Red. masses --      3.4720                 2.3815                 4.2470
 Frc consts  --      0.0111                 0.0199                 0.0524
 IR Inten    --      0.1098                 3.4581                 0.8940

                      7                      8                      9
                      A                      A                      A
 Frequencies --    145.3570               244.1038               277.2636
 Red. masses --      4.4315                 1.1520                 3.9985
 Frc consts  --      0.0552                 0.0404                 0.1811
 IR Inten    --      2.0421                 0.2566                 0.5190

                     10                     11                     12
                      A                      A                      A
 Frequencies --    348.2353               381.9294               387.5531
 Red. masses --      4.6599                 5.2403                 4.1048
 Frc consts  --      0.3329                 0.4504                 0.3632
 IR Inten    --     13.5849                 1.2551                 2.6377

                     13                     14                     15
                      A                      A                      A
 Frequencies --    480.9771               605.0800               639.3501
 Red. masses --      4.2089                 2.9943                 7.7933
 Frc consts  --      0.5737                 0.6459                 1.8769
 IR Inten    --      0.1144                 6.2414                 0.6357

                     16                     17                     18
                      A                      A                      A
 Frequencies --    673.6740               821.1080               907.5623
 Red. masses --      4.0185                 1.0835                 2.0890
 Frc consts  --      1.0745                 0.4304                 1.0138
 IR Inten    --     35.2372                 0.2957                19.1211

                     19                     20                     21
                      A                      A                      A
 Frequencies --   1015.7746              1017.2466              1044.5390
 Red. masses --      2.0830                 4.4596                 1.4458
 Frc consts  --      1.2663                 2.7189                 0.9294
 IR Inten    --      0.5371                33.3484                 2.3710

                     22                     23                     24
                      A                      A                      A
 Frequencies --   1053.7980              1054.9002              1149.2284
 Red. masses --      2.0250                 1.9785                 2.4770
 Frc consts  --      1.3249                 1.2972                 1.9275
 IR Inten    --     11.7064                 7.3047                43.3606

                     25                     26                     27
                      A                      A                      A
 Frequencies --   1174.4610              1187.7397              1244.9590
 Red. masses --      7.9315                 1.5106                 1.1088
 Frc consts  --      6.4459                 1.2556                 1.0126
 IR Inten    --    214.0375                 4.3881                 6.0282

                     28                     29                     30
                      A                      A                      A
 Frequencies --   1260.5985              1296.8347              1361.2819
 Red. masses --      6.4140                 1.1040                 1.3157
 Frc consts  --      6.0052                 1.0939                 1.4365
 IR Inten    --    154.6496                 2.3432                45.4122

                     31                     32                     33
                      A                      A                      A
 Frequencies --   1402.9668              1409.1566              1434.9194
 Red. masses --      1.2440                 1.2453                 1.4087
 Frc consts  --      1.4427                 1.4569                 1.7089
 IR Inten    --      0.7879                 3.7074                21.8827

                     34                     35                     36
                      A                      A                      A
 Frequencies --   1469.0399              1473.3999              1483.6368
 Red. masses --      1.0398                 1.0403                 1.0403
 Frc consts  --      1.3222                 1.3307                 1.3491
 IR Inten    --      7.9377                 6.2673                 4.1250

                     37                     38                     39
                      A                      A                      A
 Frequencies --   1483.9559              1499.7624              1531.1308
 Red. masses --      1.1153                 1.0439                 1.0932
 Frc consts  --      1.4470                 1.3834                 1.5100
 IR Inten    --      8.5492                 1.0309                 1.3229

                     40                     41                     42
                      A                      A                      A
 Frequencies --   1759.0218              2340.2111              2952.9978
 Red. masses --     12.7890                11.9140                 1.0545
 Frc consts  --     23.3146                38.4429                 5.4175
 IR Inten    --    203.8202               163.2371                29.8587

                     43                     44                     45
                      A                      A                      A
 Frequencies --   2964.4413              2981.4692              2988.1833
 Red. masses --      1.0549                 1.1044                 1.1042
 Frc consts  --      5.4620                 5.7840                 5.8094
 IR Inten    --     61.2600                78.9591                 7.0734

                     46                     47                     48
                      A                      A                      A
 Frequencies --   3031.5816              3046.5712              3094.3666
 Red. masses --      1.0345                 1.0347                 1.0993
 Frc consts  --      5.6017                 5.6583                 6.2018
 IR Inten    --     14.1381                14.4500                 4.3013

                     49                     50                     51
                      A                      A                      A
 Frequencies --   3099.8153              3121.4116              3123.6135
 Red. masses --      1.1010                 1.1015                 1.1028
 Frc consts  --      6.2334                 6.3232                 6.3394
 IR Inten    --      6.1880                23.9970                24.8710

 - Thermochemistry -
 -------------------
 Temperature   298.150 Kelvin.  Pressure   1.00000 Atm.
 Atom     1 has atomic number  6 and mass  12.00000

 Molecular mass:   126.06808 amu.
 Principal axes and moments of inertia in atomic units:
                           1         2         3
     Eigenvalues --   986.609241894.215672835.71183
           X            0.99919  -0.04019   0.00004
           Y            0.04019   0.99919  -0.00004
           Z           -0.00003   0.00004   1.00000
 This molecule is an asymmetric top.
 Rotational symmetry number  1.
 Warning -- assumption of classical behavior for rotation
           may cause significant error
 Rotational temperatures (Kelvin)      0.08779     0.04573     0.03054
 Rotational constants (GHZ):           1.82924     0.95276     0.63643
 Zero-point vibrational energy     406151.8 (Joules/Mol)
                                   97.07261 (Kcal/Mol)
 Warning -- explicit consideration of  14 degrees of freedom as
           vibrations may cause significant error
 Vibrational temperatures:     24.84    36.64    83.68   105.77   171.20
          (Kelvin)            208.16   209.14   351.21   398.92   501.03
                              549.51   557.60   692.02   870.57   919.88
                              969.27  1181.39  1305.78  1461.47  1463.59
                             1502.86  1516.18  1517.76  1653.48  1689.79
                             1708.89  1791.22  1813.72  1865.85  1958.58
                             2018.55  2027.46  2064.53  2113.62  2119.89
                             2134.62  2135.08  2157.82  2202.95  2530.84
                             3367.04  4248.70  4265.16  4289.66  4299.32
                             4361.76  4383.33  4452.10  4459.94  4491.01
                             4494.18

 Zero-point correction=                           0.154695 (Hartree/Particle)
 Thermal correction to Energy=                    0.165985
 Thermal correction to Enthalpy=                  0.166930
 Thermal correction to Gibbs Free Energy=         0.114555
 Sum of electronic and zero-point Energies=           -423.008973
 Sum of electronic and thermal Energies=              -422.997682
 Sum of electronic and thermal Enthalpies=            -422.996738
 Sum of electronic and thermal Free Energies=         -423.049113

                     E (Thermal)             CV                S
                      KCal/Mol        Cal/Mol-Kelvin    Cal/Mol-Kelvin
 Total                  104.157             36.731            110.232
 Electronic               0.000              0.000              0.000
 Translational            0.889              2.981             40.409
 Rotational               0.889              2.981             30.051
 Vibrational            102.380             30.770             39.773
 Vibration     1          0.593              1.986              6.926
 Vibration     2          0.593              1.985              6.155
 Vibration     3          0.596              1.974              4.519
 Vibration     4          0.599              1.966              4.057
 Vibration     5          0.609              1.933              3.117
 Vibration     6          0.616              1.908              2.741
 Vibration     7          0.617              1.908              2.732
 Vibration     8          0.659              1.773              1.773
 Vibration     9          0.678              1.716              1.550
 Vibration    10          0.726              1.579              1.174
 Vibration    11          0.751              1.509              1.032
 Vibration    12          0.756              1.497              1.010
 Vibration    13          0.837              1.292              0.707
 Vibration    14          0.964              1.021              0.441

 Normal termination of Gaussian 09 at Tue Jan 28 14:57:12 2020.
