 Gaussian 09, Revision D.01,
 Gaussian 09:  ES64L-G09RevD.01 24-Apr-2013

 -----------------------------
 # b3lyp 6-31G(2df,p) opt Freq
 -----------------------------

 -----
 titel
 -----
 Symbolic Z-matrix:
 Charge =  0 Multiplicity = 1

 SCF Done:  E(RB3LYP) =  -423.143240748     A.U. after   14 cycles
 Optimization completed.
    -- Stationary point found.
 Normal termination of Gaussian 09 at Tue Jan 28 12:40:03 2020.

 ----------------------------------------------------------------------
 #N Geom=AllCheck Guess=TCheck SCRF=Check GenChk RB3LYP/6-31G(2df,p) Fr
 eq
 ----------------------------------------------------------------------

 Structure from the checkpoint file:  "/scratch/puck/g09_ef91ae55-5052-4dda-8214-a2163f34fc4b/Gau-116135.chk"
 -----
 titel
 -----
 Charge =  0 Multiplicity = 1

                         Standard orientation:
 ---------------------------------------------------------------------
 Center     Atomic      Atomic             Coordinates (Angstroms)
 Number     Number       Type             X           Y           Z
 ---------------------------------------------------------------------
      1          6           0       -3.077096   -0.604532    0.399787
      2          6           0       -2.199299   -0.016217   -0.719985
      3          6           0       -0.814903    0.311187   -0.268848
      4          6           0       -0.148900    1.470615   -0.154360
      5          6           0        1.218017    1.010877    0.323036
      6          8           0        0.881812   -0.020757    1.324009
      7          6           0        0.261934   -0.684386    0.166073
      8          6           0        1.504236   -0.182397   -0.668166
      9          8           0        2.689633   -0.875394   -0.470514
     10          1           0       -4.074647   -0.847567    0.021532
     11          1           0       -2.640186   -1.521199    0.808376
     12          1           0       -3.185336    0.107215    1.223302
     13          1           0       -2.151923   -0.737039   -1.548268
     14          1           0       -2.671199    0.886693   -1.123403
     15          1           0       -0.459227    2.479858   -0.383486
     16          1           0        1.978563    1.721388    0.643845
     17          1           0        0.030191   -1.738533    0.317372
     18          1           0        1.377555   -0.008342   -1.738482
     19          1           0        2.760712   -1.004153    0.486024
 ---------------------------------------------------------------------

 SCF Done:  E(RB3LYP) =  -423.143240748     A.U. after    1 cycles

 The electronic state is 1-A.
 Alpha  occ. eigenvalues --  -19.14281 -19.13677 -10.24254 -10.23863 -10.23811
 Alpha  occ. eigenvalues --  -10.19527 -10.19152 -10.18124 -10.18098  -1.06168
 Alpha  occ. eigenvalues --   -1.01403  -0.82177  -0.76483  -0.69402  -0.68842
 Alpha  occ. eigenvalues --   -0.62857  -0.57511  -0.53537  -0.52405  -0.48524
 Alpha  occ. eigenvalues --   -0.45665  -0.44621  -0.42891  -0.41829  -0.38493
 Alpha  occ. eigenvalues --   -0.38110  -0.37084  -0.36706  -0.34941  -0.34461
 Alpha  occ. eigenvalues --   -0.33055  -0.26105  -0.25463  -0.23623
 Alpha virt. eigenvalues --    0.00403   0.09009   0.09446   0.10833   0.12624
 Alpha virt. eigenvalues --    0.13127   0.14245   0.14715   0.15225   0.16531
 Alpha virt. eigenvalues --    0.17221   0.17763   0.19435   0.19697   0.21679

 Mulliken charges:
               1
     1  C   -0.371260
     2  C   -0.320757
     3  C    0.373945
     4  C   -0.218461
     5  C   -0.036073
     6  O   -0.312939
     7  C   -0.101410
     8  C    0.199783
     9  O   -0.445396
    10  H    0.114970
    11  H    0.122145
    12  H    0.128131
    13  H    0.109307
    14  H    0.107842
    15  H    0.108181
    16  H    0.083069
    17  H    0.080547
    18  H    0.091480
    19  H    0.286895
 Sum of Mulliken charges =   0.00000

 Dipole moment (field-independent basis, Debye):
    X=             -1.4491    Y=              0.4695    Z=             -0.7272  Tot=              1.6880
 Quadrupole moment (field-independent basis, Debye-Ang):
   XX=            -54.1680   YY=            -50.0956   ZZ=            -56.1111
   XY=              2.2872   XZ=              3.2451   YZ=             -1.4158

  Exact polarizability:  93.467   3.689  76.696   3.116  -0.583  61.722
 Approx polarizability: 123.182   7.960 124.852   5.312   0.464  98.547

                      1                      2                      3
                      A                      A                      A
 Frequencies --     66.0025               116.9224               182.6615
 Red. masses --      2.5365                 3.3832                 1.6429
 Frc consts  --      0.0065                 0.0273                 0.0323
 IR Inten    --      0.0383                 0.6862                 0.1721

                      4                      5                      6
                      A                      A                      A
 Frequencies --    242.5827               291.0595               359.4798
 Red. masses --      1.9455                 2.8120                 3.5817
 Frc consts  --      0.0675                 0.1404                 0.2727
 IR Inten    --      4.2497                 6.6348                 2.7666

                      7                      8                      9
                      A                      A                      A
 Frequencies --    393.8608               500.1867               557.9158
 Red. masses --      2.7587                 3.6160                 3.8260
 Frc consts  --      0.2521                 0.5330                 0.7017
 IR Inten    --      0.0278                 1.2376                 6.6066

                     10                     11                     12
                      A                      A                      A
 Frequencies --    573.1547               612.5472               691.8689
 Red. masses --      1.1854                 3.1963                 4.5396
 Frc consts  --      0.2294                 0.7066                 1.2803
 IR Inten    --     70.2501                 4.7856                 9.7142

                     13                     14                     15
                      A                      A                      A
 Frequencies --    771.9718               795.0521               805.0246
 Red. masses --      1.5533                 1.8416                 1.9871
 Frc consts  --      0.5454                 0.6859                 0.7587
 IR Inten    --      2.0309                12.2884                 7.9665

                     16                     17                     18
                      A                      A                      A
 Frequencies --    847.8886               863.9987               914.4459
 Red. masses --      2.1010                 5.7351                 4.2745
 Frc consts  --      0.8899                 2.5224                 2.1060
 IR Inten    --     19.1962                19.8191                54.0034

                     19                     20                     21
                      A                      A                      A
 Frequencies --    928.1054               939.1309               959.8899
 Red. masses --      2.8992                 1.9535                 2.5883
 Frc consts  --      1.4713                 1.0151                 1.4051
 IR Inten    --      9.9862                 1.4437                 0.8988

                     22                     23                     24
                      A                      A                      A
 Frequencies --   1041.3593              1055.9063              1088.4170
 Red. masses --      2.9416                 1.9740                 1.6873
 Frc consts  --      1.8795                 1.2968                 1.1777
 IR Inten    --      3.3319                 7.8975                 4.0275

                     25                     26                     27
                      A                      A                      A
 Frequencies --   1123.5587              1130.9686              1184.4238
 Red. masses --      3.1602                 1.4387                 1.4512
 Frc consts  --      2.3505                 1.0843                 1.1995
 IR Inten    --    131.4667                 9.3300                 1.0616

                     28                     29                     30
                      A                      A                      A
 Frequencies --   1198.0366              1205.5270              1233.3574
 Red. masses --      1.5726                 1.4677                 1.4242
 Frc consts  --      1.3299                 1.2568                 1.2764
 IR Inten    --     48.2531                22.9529                 2.2490

                     31                     32                     33
                      A                      A                      A
 Frequencies --   1270.5473              1296.0034              1299.0046
 Red. masses --      1.4116                 1.6251                 1.4782
 Frc consts  --      1.3426                 1.6082                 1.4696
 IR Inten    --      0.4912                 3.3362                15.8970

                     34                     35                     36
                      A                      A                      A
 Frequencies --   1333.3844              1350.1936              1409.6514
 Red. masses --      1.8027                 1.4673                 1.2171
 Frc consts  --      1.8883                 1.5760                 1.4250
 IR Inten    --      1.5004                 8.5071                 1.3092

                     37                     38                     39
                      A                      A                      A
 Frequencies --   1432.3163              1478.4792              1496.8398
 Red. masses --      1.2791                 1.0713                 1.0397
 Frc consts  --      1.5461                 1.3797                 1.3725
 IR Inten    --    126.1853                 2.6441                 5.6977

                     40                     41                     42
                      A                      A                      A
 Frequencies --   1504.9372              1668.3891              3010.3828
 Red. masses --      1.0670                 7.3729                 1.0650
 Frc consts  --      1.4238                12.0917                 5.6866
 IR Inten    --      1.9506                 4.9080                24.1880

                     43                     44                     45
                      A                      A                      A
 Frequencies --   3039.4974              3061.2376              3106.0845
 Red. masses --      1.0346                 1.0956                 1.0878
 Frc consts  --      5.6314                 6.0490                 6.1834
 IR Inten    --     25.7387                13.6186                31.7532

                     46                     47                     48
                      A                      A                      A
 Frequencies --   3109.6586              3116.4805              3128.7359
 Red. masses --      1.1014                 1.1026                 1.0907
 Frc consts  --      6.2750                 6.3093                 6.2906
 IR Inten    --     40.1935                21.9521                43.0652

                     49                     50                     51
                      A                      A                      A
 Frequencies --   3138.1169              3236.3294              3748.9090
 Red. masses --      1.0930                 1.0983                 1.0639
 Frc consts  --      6.3415                 6.7775                 8.8097
 IR Inten    --     25.1547                 4.3961                28.4412

 - Thermochemistry -
 -------------------
 Temperature   298.150 Kelvin.  Pressure   1.00000 Atm.
 Atom     1 has atomic number  6 and mass  12.00000

 Molecular mass:   126.06808 amu.
 Principal axes and moments of inertia in atomic units:
                           1         2         3
     Eigenvalues --   489.967891679.627851759.22691
           X            0.99985   0.01743   0.00066
           Y           -0.01732   0.99654  -0.08123
           Z           -0.00207   0.08121   0.99669
 This molecule is an asymmetric top.
 Rotational symmetry number  1.
 Warning -- assumption of classical behavior for rotation
           may cause significant error
 Rotational temperatures (Kelvin)      0.17677     0.05157     0.04923
 Rotational constants (GHZ):           3.68339     1.07449     1.02587
 Zero-point vibrational energy     418157.6 (Joules/Mol)
                                   99.94205 (Kcal/Mol)
 Warning -- explicit consideration of  11 degrees of freedom as
           vibrations may cause significant error
 Vibrational temperatures:     94.96   168.23   262.81   349.02   418.77
          (Kelvin)            517.21   566.68   719.66   802.72   824.64
                              881.32   995.44  1110.69  1143.90  1158.25
                             1219.92  1243.10  1315.68  1335.33  1351.20
                             1381.07  1498.28  1519.21  1565.99  1616.55
                             1627.21  1704.12  1723.71  1734.48  1774.52
                             1828.03  1864.66  1868.98  1918.44  1942.63
                             2028.17  2060.78  2127.20  2153.62  2165.27
                             2400.44  4331.26  4373.15  4404.43  4468.96
                             4474.10  4483.91  4501.55  4515.04  4656.35
                             5393.84

 Zero-point correction=                           0.159268 (Hartree/Particle)
 Thermal correction to Energy=                    0.167485
 Thermal correction to Enthalpy=                  0.168429
 Thermal correction to Gibbs Free Energy=         0.126216
 Sum of electronic and zero-point Energies=           -422.983973
 Sum of electronic and thermal Energies=              -422.975756
 Sum of electronic and thermal Enthalpies=            -422.974812
 Sum of electronic and thermal Free Energies=         -423.017025

                     E (Thermal)             CV                S
                      KCal/Mol        Cal/Mol-Kelvin    Cal/Mol-Kelvin
 Total                  105.098             31.942             88.845
 Electronic               0.000              0.000              0.000
 Translational            0.889              2.981             40.409
 Rotational               0.889              2.981             28.761
 Vibrational            103.321             25.981             19.675
 Vibration     1          0.597              1.970              4.269
 Vibration     2          0.608              1.935              3.151
 Vibration     3          0.630              1.863              2.301
 Vibration     4          0.659              1.775              1.784
 Vibration     5          0.687              1.690              1.468
 Vibration     6          0.734              1.556              1.124
 Vibration     7          0.761              1.483              0.985
 Vibration     8          0.856              1.250              0.658
 Vibration     9          0.913              1.122              0.528
 Vibration    10          0.929              1.089              0.498
 Vibration    11          0.972              1.005              0.429

 Normal termination of Gaussian 09 at Tue Jan 28 13:21:16 2020.
