 Gaussian 09, Revision D.01,
 Gaussian 09:  ES64L-G09RevD.01 24-Apr-2013

 -----------------------------
 # b3lyp 6-31G(2df,p) opt Freq
 -----------------------------

 -----
 titel
 -----
 Symbolic Z-matrix:
 Charge =  0 Multiplicity = 1

 SCF Done:  E(RB3LYP) =  -423.151580666     A.U. after   14 cycles
 Optimization completed.
    -- Stationary point found.
 Normal termination of Gaussian 09 at Mon Jan 27 22:01:38 2020.

 ----------------------------------------------------------------------
 #N Geom=AllCheck Guess=TCheck SCRF=Check GenChk RB3LYP/6-31G(2df,p) Fr
 eq
 ----------------------------------------------------------------------

 Structure from the checkpoint file:  "/scratch/puck/g09_a5faa347-e464-44b4-a74d-0b72d5449d0c/Gau-98607.chk"
 -----
 titel
 -----
 Charge =  0 Multiplicity = 1

                         Standard orientation:
 ---------------------------------------------------------------------
 Center     Atomic      Atomic             Coordinates (Angstroms)
 Number     Number       Type             X           Y           Z
 ---------------------------------------------------------------------
      1          6           0        2.463340    0.241084    0.198747
      2          6           0        1.021698   -0.189277    0.085533
      3          6           0        0.006219   -0.071599    1.281765
      4          6           0       -1.021727   -0.219644    0.126939
      5          8           0       -2.338871    0.189474    0.338340
      6          6           0       -0.674859   -1.610138   -0.411212
      7          6           0        0.661863   -1.584328   -0.441858
      8          6           0       -0.037158    0.644333   -0.746442
      9          8           0       -0.057303    2.020320   -0.467390
     10          1           0        2.989999    0.117275   -0.754273
     11          1           0        2.526076    1.295709    0.482199
     12          1           0        2.995474   -0.347282    0.954446
     13          1           0        0.022815   -0.860802    2.035887
     14          1           0        0.003096    0.922104    1.733436
     15          1           0       -2.865248   -0.057964   -0.430134
     16          1           0       -1.374893   -2.377342   -0.713823
     17          1           0        1.362418   -2.333053   -0.786813
     18          1           0       -0.043789    0.454326   -1.828584
     19          1           0       -0.962828    2.246078   -0.220771
 ---------------------------------------------------------------------

 SCF Done:  E(RB3LYP) =  -423.151580666     A.U. after    1 cycles

 The electronic state is 1-A.
 Alpha  occ. eigenvalues --  -19.15454 -19.13582 -10.24237 -10.22555 -10.19801
 Alpha  occ. eigenvalues --  -10.18233 -10.18144 -10.17688 -10.17142  -1.04193
 Alpha  occ. eigenvalues --   -1.01722  -0.88663  -0.73599  -0.71576  -0.65431
 Alpha  occ. eigenvalues --   -0.62742  -0.56218  -0.54685  -0.49939  -0.48614
 Alpha  occ. eigenvalues --   -0.47508  -0.44485  -0.42335  -0.41180  -0.39578
 Alpha  occ. eigenvalues --   -0.38375  -0.36103  -0.34096  -0.33740  -0.32851
 Alpha  occ. eigenvalues --   -0.30381  -0.27527  -0.25953  -0.22807
 Alpha virt. eigenvalues --    0.00711   0.06776   0.10258   0.11829   0.12304
 Alpha virt. eigenvalues --    0.14452   0.15264   0.15813   0.16518   0.16896
 Alpha virt. eigenvalues --    0.18200   0.19286   0.20977   0.22869   0.23343

 Mulliken charges:
               1
     1  C   -0.514575
     2  C    0.269179
     3  C   -0.290070
     4  C    0.313984
     5  O   -0.494059
     6  C   -0.184332
     7  C   -0.123187
     8  C    0.088383
     9  O   -0.459333
    10  H    0.115397
    11  H    0.133594
    12  H    0.116062
    13  H    0.092189
    14  H    0.104846
    15  H    0.283107
    16  H    0.101647
    17  H    0.102901
    18  H    0.055244
    19  H    0.289022
 Sum of Mulliken charges =   0.00000

 Dipole moment (field-independent basis, Debye):
    X=             -0.8577    Y=             -1.2132    Z=             -0.9304  Tot=              1.7531
 Quadrupole moment (field-independent basis, Debye-Ang):
   XX=            -49.2836   YY=            -54.2349   ZZ=            -53.6785
   XY=             -1.5165   XZ=              4.1857   YZ=              1.7951

  Exact polarizability:  86.415  -0.230  75.621   1.231   3.573  64.569
 Approx polarizability: 130.564  -1.430 111.921  -0.264   4.837  99.240

                      1                      2                      3
                      A                      A                      A
 Frequencies --    165.7213               196.8410               205.2027
 Red. masses --      2.5472                 1.3575                 2.2554
 Frc consts  --      0.0412                 0.0310                 0.0560
 IR Inten    --     16.4499                 2.5735                 0.5290

                      4                      5                      6
                      A                      A                      A
 Frequencies --    227.2985               266.0853               335.1430
 Red. masses --      1.8107                 2.0681                 2.0564
 Frc consts  --      0.0551                 0.0863                 0.1361
 IR Inten    --      6.4938                22.5430                30.1862

                      7                      8                      9
                      A                      A                      A
 Frequencies --    346.6021               382.2338               453.5703
 Red. masses --      1.2270                 3.2768                 2.7639
 Frc consts  --      0.0868                 0.2821                 0.3350
 IR Inten    --     89.7033                 7.6695                12.3220

                     10                     11                     12
                      A                      A                      A
 Frequencies --    464.5383               556.0818               572.7859
 Red. masses --      2.1451                 3.1994                 3.7780
 Frc consts  --      0.2727                 0.5829                 0.7303
 IR Inten    --      1.7975                 4.6935                 1.6204

                     13                     14                     15
                      A                      A                      A
 Frequencies --    613.4605               680.1003               687.2449
 Red. masses --      3.9323                 4.2698                 1.4917
 Frc consts  --      0.8719                 1.1636                 0.4151
 IR Inten    --      1.6415                 5.2381                39.2933

                     16                     17                     18
                      A                      A                      A
 Frequencies --    705.8674               839.3558               888.1408
 Red. masses --      3.0198                 2.9110                 2.8384
 Frc consts  --      0.8865                 1.2083                 1.3191
 IR Inten    --      4.7832                15.2525                 0.7981

                     19                     20                     21
                      A                      A                      A
 Frequencies --    898.5209               909.3039               965.0341
 Red. masses --      1.5178                 1.9353                 3.0572
 Frc consts  --      0.7220                 0.9428                 1.6775
 IR Inten    --      0.6751                 0.5792                15.0119

                     22                     23                     24
                      A                      A                      A
 Frequencies --   1002.1502              1027.8496              1060.1559
 Red. masses --      2.2079                 1.5272                 1.1377
 Frc consts  --      1.3064                 0.9506                 0.7534
 IR Inten    --     30.4022                 2.6956                 5.3092

                     25                     26                     27
                      A                      A                      A
 Frequencies --   1103.6997              1118.2749              1127.2297
 Red. masses --      2.5077                 1.3951                 1.9740
 Frc consts  --      1.7998                 1.0279                 1.4778
 IR Inten    --     53.9051                22.1564                65.7791

                     28                     29                     30
                      A                      A                      A
 Frequencies --   1172.1454              1190.3610              1202.7190
 Red. masses --      1.8787                 2.3456                 1.7926
 Frc consts  --      1.5208                 1.9582                 1.5278
 IR Inten    --      8.1910                25.1091                 3.4844

                     31                     32                     33
                      A                      A                      A
 Frequencies --   1240.2437              1308.7904              1323.8953
 Red. masses --      1.8060                 1.7550                 2.1570
 Frc consts  --      1.6367                 1.7712                 2.2274
 IR Inten    --     50.9818                60.2017                97.6287

                     34                     35                     36
                      A                      A                      A
 Frequencies --   1346.0286              1369.4522              1372.6662
 Red. masses --      1.5123                 1.6814                 1.7395
 Frc consts  --      1.6144                 1.8579                 1.9311
 IR Inten    --     11.4739                40.6608                 6.4201

                     37                     38                     39
                      A                      A                      A
 Frequencies --   1412.3045              1488.7687              1492.9391
 Red. masses --      1.3540                 1.1290                 1.0869
 Frc consts  --      1.5912                 1.4744                 1.4273
 IR Inten    --      1.0678                 6.7441                 4.0786

                     40                     41                     42
                      A                      A                      A
 Frequencies --   1496.7423              1622.0178              3011.3102
 Red. masses --      1.0467                 6.2312                 1.0855
 Frc consts  --      1.3815                 9.6590                 5.7997
 IR Inten    --      4.2324                 1.4354                67.2203

                     43                     44                     45
                      A                      A                      A
 Frequencies --   3028.9455              3073.0438              3090.2284
 Red. masses --      1.0364                 1.0559                 1.1009
 Frc consts  --      5.6024                 5.8749                 6.1939
 IR Inten    --     31.4819                29.7973                22.5398

                     46                     47                     48
                      A                      A                      A
 Frequencies --   3109.5423              3143.1241              3206.0573
 Red. masses --      1.1001                 1.1103                 1.0857
 Frc consts  --      6.2672                 6.4626                 6.5754
 IR Inten    --     12.4987                21.6505                 4.6099

                     49                     50                     51
                      A                      A                      A
 Frequencies --   3233.2433              3774.2337              3798.3503
 Red. masses --      1.1100                 1.0661                 1.0658
 Frc consts  --      6.8367                 8.9474                 9.0601
 IR Inten    --     10.2416                40.9556                20.5560

 - Thermochemistry -
 -------------------
 Temperature   298.150 Kelvin.  Pressure   1.00000 Atm.
 Atom     1 has atomic number  6 and mass  12.00000

 Molecular mass:   126.06808 amu.
 Principal axes and moments of inertia in atomic units:
                           1         2         3
     Eigenvalues --   729.235321013.973561383.12403
           X            0.99981   0.00660   0.01807
           Y           -0.00700   0.99974   0.02193
           Z           -0.01792  -0.02205   0.99960
 This molecule is an asymmetric top.
 Rotational symmetry number  1.
 Warning -- assumption of classical behavior for rotation
           may cause significant error
 Rotational temperatures (Kelvin)      0.11877     0.08542     0.06262
 Rotational constants (GHZ):           2.47484     1.77987     1.30483
 Zero-point vibrational energy     414539.8 (Joules/Mol)
                                   99.07739 (Kcal/Mol)
 Warning -- explicit consideration of  13 degrees of freedom as
           vibrations may cause significant error
 Vibrational temperatures:    238.44   283.21   295.24   327.03   382.84
          (Kelvin)            482.20   498.68   549.95   652.59   668.37
                              800.08   824.11   882.63   978.51   988.79
                             1015.58  1207.64  1277.83  1292.77  1308.28
                             1388.47  1441.87  1478.84  1525.33  1587.98
                             1608.95  1621.83  1686.45  1712.66  1730.44
                             1784.43  1883.06  1904.79  1936.63  1970.33
                             1974.96  2031.99  2142.00  2148.00  2153.48
                             2333.72  4332.60  4357.97  4421.42  4446.14
                             4473.93  4522.25  4612.80  4651.91  5430.27
                             5464.97

 Zero-point correction=                           0.157890 (Hartree/Particle)
 Thermal correction to Energy=                    0.166467
 Thermal correction to Enthalpy=                  0.167412
 Thermal correction to Gibbs Free Energy=         0.125627
 Sum of electronic and zero-point Energies=           -422.993691
 Sum of electronic and thermal Energies=              -422.985113
 Sum of electronic and thermal Enthalpies=            -422.984169
 Sum of electronic and thermal Free Energies=         -423.025954

                     E (Thermal)             CV                S
                      KCal/Mol        Cal/Mol-Kelvin    Cal/Mol-Kelvin
 Total                  104.460             34.384             87.944
 Electronic               0.000              0.000              0.000
 Translational            0.889              2.981             40.409
 Rotational               0.889              2.981             28.416
 Vibrational            102.682             28.422             19.119
 Vibration     1          0.624              1.885              2.483
 Vibration     2          0.636              1.844              2.162
 Vibration     3          0.640              1.832              2.086
 Vibration     4          0.651              1.799              1.900
 Vibration     5          0.672              1.735              1.622
 Vibration     6          0.716              1.605              1.235
 Vibration     7          0.725              1.582              1.182
 Vibration     8          0.752              1.508              1.030
 Vibration     9          0.812              1.353              0.785
 Vibration    10          0.822              1.329              0.753
 Vibration    11          0.912              1.126              0.532
 Vibration    12          0.929              1.090              0.499
 Vibration    13          0.973              1.003              0.427

 Optimization completed.
    -- Stationary point found.
 Normal termination of Gaussian 09 at Mon Jan 27 22:49:31 2020.
