 Gaussian 09, Revision D.01,
 Gaussian 09:  ES64L-G09RevD.01 24-Apr-2013

 -----------------------------
 # b3lyp 6-31G(2df,p) opt Freq
 -----------------------------

 -----
 titel
 -----
 Symbolic Z-matrix:
 Charge =  0 Multiplicity = 1

 SCF Done:  E(RB3LYP) =  -423.189250541     A.U. after   14 cycles
 Optimization completed.
    -- Stationary point found.
 Normal termination of Gaussian 09 at Tue Jan 28 00:04:50 2020.

 ----------------------------------------------------------------------
 #N Geom=AllCheck Guess=TCheck SCRF=Check GenChk RB3LYP/6-31G(2df,p) Fr
 eq
 ----------------------------------------------------------------------

 Structure from the checkpoint file:  "/scratch/puck/g09_221bb4fd-c2ef-41b3-a3da-6ca3b240061e/Gau-71695.chk"
 -----
 titel
 -----
 Charge =  0 Multiplicity = 1

                         Standard orientation:
 ---------------------------------------------------------------------
 Center     Atomic      Atomic             Coordinates (Angstroms)
 Number     Number       Type             X           Y           Z
 ---------------------------------------------------------------------
      1          6           0       -1.320121    2.206219    0.327738
      2          6           0       -0.150576    1.249726    0.434422
      3          6           0        0.474183    0.691652   -0.799020
      4          8           0        1.816408    0.330465   -0.832863
      5          6           0        2.099428   -0.473926    0.318014
      6          6           0        0.775386   -1.158981    0.722135
      7          6           0       -0.300067   -0.255648    0.137652
      8          6           0       -1.577639   -0.857768   -0.279547
      9          8           0       -1.839890   -2.035086   -0.176950
     10          1           0       -2.017590    2.087923    1.163448
     11          1           0       -0.957460    3.239166    0.334186
     12          1           0       -1.884680    2.065793   -0.598545
     13          1           0        0.520281    1.459098    1.263865
     14          1           0        0.095816    0.975047   -1.775596
     15          1           0        2.888393   -1.177279    0.040937
     16          1           0        2.482343    0.159170    1.129563
     17          1           0        0.670858   -2.149463    0.272400
     18          1           0        0.698552   -1.276524    1.806754
     19          1           0       -2.312219   -0.153600   -0.726864
 ---------------------------------------------------------------------

 SCF Done:  E(RB3LYP) =  -423.189250541     A.U. after    1 cycles

 The electronic state is 1-A.
 Alpha  occ. eigenvalues --  -19.15611 -19.12878 -10.26538 -10.25337 -10.23829
 Alpha  occ. eigenvalues --  -10.21229 -10.20693 -10.19567 -10.19334  -1.05876
 Alpha  occ. eigenvalues --   -1.03567  -0.87313  -0.77193  -0.72939  -0.66044
 Alpha  occ. eigenvalues --   -0.64156  -0.58625  -0.54332  -0.51119  -0.49076
 Alpha  occ. eigenvalues --   -0.47217  -0.44828  -0.42482  -0.42189  -0.41583
 Alpha  occ. eigenvalues --   -0.40352  -0.39160  -0.38340  -0.36992  -0.34015
 Alpha  occ. eigenvalues --   -0.33368  -0.28681  -0.25509  -0.23676
 Alpha virt. eigenvalues --   -0.01747   0.08043   0.08315   0.10556   0.11267
 Alpha virt. eigenvalues --    0.12753   0.14148   0.14690   0.15525   0.16420
 Alpha virt. eigenvalues --    0.16848   0.18266   0.19307   0.21277   0.22296

 Mulliken charges:
               1
     1  C   -0.429874
     2  C   -0.111226
     3  C    0.074709
     4  O   -0.248912
     5  C   -0.099949
     6  C   -0.308243
     7  C    0.188821
     8  C    0.071263
     9  O   -0.274968
    10  H    0.130009
    11  H    0.129945
    12  H    0.125308
    13  H    0.099827
    14  H    0.112887
    15  H    0.120053
    16  H    0.104422
    17  H    0.136386
    18  H    0.112718
    19  H    0.066825
 Sum of Mulliken charges =   0.00000

 Dipole moment (field-independent basis, Debye):
    X=              0.7429    Y=              2.4098    Z=              0.9869  Tot=              2.7079
 Quadrupole moment (field-independent basis, Debye-Ang):
   XX=            -56.2208   YY=            -57.4486   ZZ=            -51.9258
   XY=             -8.0373   XZ=              3.2001   YZ=             -0.2009

  Exact polarizability:  83.838  -1.252  84.722   3.424  -1.206  62.437
 Approx polarizability: 117.150   8.693 128.808   0.635  -3.732  98.831

                      1                      2                      3
                      A                      A                      A
 Frequencies --    102.2233               182.4683               194.1956
 Red. masses --      5.0923                 1.8034                 2.4262
 Frc consts  --      0.0314                 0.0354                 0.0539
 IR Inten    --      4.8535                 1.1831                 1.3630

                      4                      5                      6
                      A                      A                      A
 Frequencies --    196.6053               230.0579               259.7158
 Red. masses --      2.1077                 1.4875                 3.3228
 Frc consts  --      0.0480                 0.0464                 0.1321
 IR Inten    --      6.0520                 1.4951                 6.6112

                      7                      8                      9
                      A                      A                      A
 Frequencies --    304.1905               346.0409               463.5675
 Red. masses --      2.7784                 2.4387                 4.1259
 Frc consts  --      0.1515                 0.1721                 0.5224
 IR Inten    --      1.8771                 2.1810                 2.2797

                     10                     11                     12
                      A                      A                      A
 Frequencies --    523.4682               642.4207               689.4629
 Red. masses --      4.1327                 3.6684                 4.4322
 Frc consts  --      0.6672                 0.8920                 1.2413
 IR Inten    --      2.3445                26.5606                 3.4407

                     13                     14                     15
                      A                      A                      A
 Frequencies --    741.1465               775.5932               867.7888
 Red. masses --      2.8274                 3.4387                 1.7854
 Frc consts  --      0.9151                 1.2187                 0.7921
 IR Inten    --     43.1148                28.4526                 6.1222

                     16                     17                     18
                      A                      A                      A
 Frequencies --    890.9639               956.6877               986.7754
 Red. masses --      2.1063                 2.3348                 2.3754
 Frc consts  --      0.9851                 1.2591                 1.3628
 IR Inten    --     10.0972                 8.0554                27.8603

                     19                     20                     21
                      A                      A                      A
 Frequencies --    998.5631              1015.1416              1026.7263
 Red. masses --      1.6717                 1.4157                 2.1004
 Frc consts  --      0.9821                 0.8596                 1.3046
 IR Inten    --      8.2161                10.5888                34.4779

                     22                     23                     24
                      A                      A                      A
 Frequencies --   1057.4478              1107.7396              1119.9195
 Red. masses --      1.5608                 1.9606                 2.3414
 Frc consts  --      1.0283                 1.4175                 1.7302
 IR Inten    --      3.0966                20.1767                21.9363

                     25                     26                     27
                      A                      A                      A
 Frequencies --   1124.2771              1177.2568              1209.4415
 Red. masses --      2.6700                 2.7540                 1.3048
 Frc consts  --      1.9884                 2.2489                 1.1246
 IR Inten    --     14.9662                66.9689                 2.4020

                     28                     29                     30
                      A                      A                      A
 Frequencies --   1241.2604              1246.3370              1271.8964
 Red. masses --      1.4985                 1.5971                 1.6001
 Frc consts  --      1.3603                 1.4616                 1.5251
 IR Inten    --      6.5621                 7.2357                21.9345

                     31                     32                     33
                      A                      A                      A
 Frequencies --   1309.8117              1358.7583              1387.6512
 Red. masses --      1.3182                 1.6234                 1.5635
 Frc consts  --      1.3325                 1.7658                 1.7738
 IR Inten    --      4.4239                 9.5204                 5.1710

                     34                     35                     36
                      A                      A                      A
 Frequencies --   1417.4482              1435.4240              1446.8146
 Red. masses --      1.2806                 1.4959                 1.5876
 Frc consts  --      1.5160                 1.8160                 1.9581
 IR Inten    --      2.7586                12.3380                29.0942

                     37                     38                     39
                      A                      A                      A
 Frequencies --   1496.0695              1497.4924              1504.3314
 Red. masses --      1.0465                 1.0862                 1.1011
 Frc consts  --      1.3801                 1.4352                 1.4681
 IR Inten    --      4.4796                 4.3149                 8.8647

                     40                     41                     42
                      A                      A                      A
 Frequencies --   1528.2095              1791.1505              2893.1981
 Red. masses --      1.0894                10.3559                 1.0813
 Frc consts  --      1.4990                19.5750                 5.3329
 IR Inten    --      0.5244               247.5642                96.9366

                     43                     44                     45
                      A                      A                      A
 Frequencies --   3010.7176              3036.5460              3065.2046
 Red. masses --      1.0709                 1.0356                 1.0607
 Frc consts  --      5.7190                 5.6263                 5.8718
 IR Inten    --     48.5441                30.2296                18.5278

                     46                     47                     48
                      A                      A                      A
 Frequencies --   3094.1283              3100.3682              3106.3175
 Red. masses --      1.0948                 1.1019                 1.0993
 Frc consts  --      6.1753                 6.2404                 6.2497
 IR Inten    --     25.8077                17.5491                13.0738

                     49                     50                     51
                      A                      A                      A
 Frequencies --   3114.3287              3141.6456              3174.5851
 Red. masses --      1.1039                 1.0891                 1.0904
 Frc consts  --      6.3084                 6.3335                 6.4746
 IR Inten    --     17.3703                14.1757                12.3874

 - Thermochemistry -
 -------------------
 Temperature   298.150 Kelvin.  Pressure   1.00000 Atm.
 Atom     1 has atomic number  6 and mass  12.00000

 Molecular mass:   126.06808 amu.
 Principal axes and moments of inertia in atomic units:
                           1         2         3
     Eigenvalues --   883.591281070.396001646.36229
           X            0.95220  -0.30455   0.02396
           Y            0.30470   0.95244  -0.00303
           Z           -0.02190   0.01019   0.99971
 This molecule is an asymmetric top.
 Rotational symmetry number  1.
 Warning -- assumption of classical behavior for rotation
           may cause significant error
 Rotational temperatures (Kelvin)      0.09802     0.08092     0.05261
 Rotational constants (GHZ):           2.04251     1.68605     1.09620
 Zero-point vibrational energy     417853.1 (Joules/Mol)
                                   99.86928 (Kcal/Mol)
 Warning -- explicit consideration of  10 degrees of freedom as
           vibrations may cause significant error
 Vibrational temperatures:    147.08   262.53   279.40   282.87   331.00
          (Kelvin)            373.67   437.66   497.88   666.97   753.15
                              924.30   991.98  1066.34  1115.90  1248.55
                             1281.90  1376.46  1419.75  1436.71  1460.56
                             1477.23  1521.43  1593.79  1611.31  1617.58
                             1693.81  1740.11  1785.89  1793.20  1829.97
                             1884.52  1954.95  1996.52  2039.39  2065.25
                             2081.64  2152.51  2154.55  2164.39  2198.75
                             2577.06  4162.66  4331.75  4368.91  4410.14
                             4451.75  4460.73  4469.29  4480.82  4520.12
                             4567.51

 Zero-point correction=                           0.159152 (Hartree/Particle)
 Thermal correction to Energy=                    0.167652
 Thermal correction to Enthalpy=                  0.168596
 Thermal correction to Gibbs Free Energy=         0.126142
 Sum of electronic and zero-point Energies=           -423.030099
 Sum of electronic and thermal Energies=              -423.021598
 Sum of electronic and thermal Enthalpies=            -423.020654
 Sum of electronic and thermal Free Energies=         -423.063108

                     E (Thermal)             CV                S
                      KCal/Mol        Cal/Mol-Kelvin    Cal/Mol-Kelvin
 Total                  105.203             32.020             89.352
 Electronic               0.000              0.000              0.000
 Translational            0.889              2.981             40.409
 Rotational               0.889              2.981             28.834
 Vibrational            103.426             26.058             20.110
 Vibration     1          0.604              1.947              3.411
 Vibration     2          0.630              1.864              2.303
 Vibration     3          0.635              1.848              2.187
 Vibration     4          0.636              1.845              2.165
 Vibration     5          0.652              1.795              1.878
 Vibration     6          0.668              1.746              1.664
 Vibration     7          0.695              1.666              1.394
 Vibration     8          0.724              1.583              1.184
 Vibration     9          0.821              1.331              0.756
 Vibration    10          0.878              1.198              0.602

 Optimization completed.
    -- Stationary point found.
 Normal termination of Gaussian 09 at Tue Jan 28 00:45:57 2020.
