 Gaussian 09, Revision D.01,
 Gaussian 09:  ES64L-G09RevD.01 24-Apr-2013

 -----------------------------
 # b3lyp 6-31G(2df,p) opt Freq
 -----------------------------

 -----
 titel
 -----
 Symbolic Z-matrix:
 Charge =  0 Multiplicity = 1

 SCF Done:  E(RB3LYP) =  -423.181443261     A.U. after   14 cycles
 Optimization completed.
    -- Stationary point found.
 Normal termination of Gaussian 09 at Tue Jan 28 13:52:00 2020.

 ----------------------------------------------------------------------
 #N Geom=AllCheck Guess=TCheck SCRF=Check GenChk RB3LYP/6-31G(2df,p) Fr
 eq
 ----------------------------------------------------------------------

 Structure from the checkpoint file:  "/scratch/puck/g09_219e65c3-f6d6-4d23-8de6-af154454f6b7/Gau-119910.chk"
 -----
 titel
 -----
 Charge =  0 Multiplicity = 1

                         Standard orientation:
 ---------------------------------------------------------------------
 Center     Atomic      Atomic             Coordinates (Angstroms)
 Number     Number       Type             X           Y           Z
 ---------------------------------------------------------------------
      1          6           0        3.023347   -0.303880   -0.282689
      2          6           0        1.890479    0.567145    0.266256
      3          6           0        0.556969    0.315917   -0.430685
      4          8           0        0.157782   -1.060530   -0.280314
      5          6           0       -1.095974   -0.987373    0.437486
      6          8           0       -0.916664    0.109823    1.303305
      7          6           0       -0.656107    1.050257    0.243216
      8          6           0       -1.845270    0.827680   -0.681800
      9          6           0       -2.135988   -0.467695   -0.554869
     10          1           0        2.777649   -1.363278   -0.173677
     11          1           0        3.196173   -0.107288   -1.346934
     12          1           0        3.960131   -0.110591    0.248580
     13          1           0        1.753849    0.382781    1.337109
     14          1           0        2.142715    1.629668    0.148283
     15          1           0        0.625381    0.553413   -1.499743
     16          1           0       -1.264554   -1.918822    0.973409
     17          1           0       -0.463393    2.047748    0.632541
     18          1           0       -2.244629    1.554374   -1.375313
     19          1           0       -2.837002   -1.074655   -1.109676
 ---------------------------------------------------------------------

 SCF Done:  E(RB3LYP) =  -423.181443261     A.U. after    1 cycles

 The electronic state is 1-A.
 Alpha  occ. eigenvalues --  -19.14774 -19.13862 -10.27952 -10.24276 -10.23241
 Alpha  occ. eigenvalues --  -10.19121 -10.18812 -10.17875 -10.16863  -1.09510
 Alpha  occ. eigenvalues --   -0.98643  -0.79595  -0.78954  -0.72992  -0.64197
 Alpha  occ. eigenvalues --   -0.60535  -0.57970  -0.56051  -0.53495  -0.49545
 Alpha  occ. eigenvalues --   -0.46762  -0.43516  -0.41955  -0.41352  -0.39811
 Alpha  occ. eigenvalues --   -0.38583  -0.36826  -0.36405  -0.34247  -0.33081
 Alpha  occ. eigenvalues --   -0.32124  -0.28121  -0.26370  -0.24505
 Alpha virt. eigenvalues --    0.00000   0.10081   0.11171   0.12473   0.13159
 Alpha virt. eigenvalues --    0.13631   0.14494   0.15457   0.15770   0.17175
 Alpha virt. eigenvalues --    0.18318   0.18681   0.19817   0.20216   0.22440

 Mulliken charges:
               1
     1  C   -0.384184
     2  C   -0.192419
     3  C    0.151001
     4  O   -0.294617
     5  C    0.136973
     6  O   -0.232732
     7  C   -0.045759
     8  C   -0.098112
     9  C   -0.083897
    10  H    0.135660
    11  H    0.109965
    12  H    0.109943
    13  H    0.113687
    14  H    0.087830
    15  H    0.074975
    16  H    0.094931
    17  H    0.090698
    18  H    0.111794
    19  H    0.114265
 Sum of Mulliken charges =   0.00000

 Dipole moment (field-independent basis, Debye):
    X=             -0.4413    Y=              1.0308    Z=             -1.0528  Tot=              1.5381
 Quadrupole moment (field-independent basis, Debye-Ang):
   XX=            -51.7510   YY=            -50.0579   ZZ=            -55.0531
   XY=              2.4937   XZ=              2.5852   YZ=             -2.1093

  Exact polarizability:  86.559   4.227  75.674   4.116  -3.068  62.256
 Approx polarizability: 108.757   7.765 127.300   2.777  -5.301  97.588

                      1                      2                      3
                      A                      A                      A
 Frequencies --     98.9095               153.1899               191.3153
 Red. masses --      2.8853                 2.5893                 1.9678
 Frc consts  --      0.0166                 0.0358                 0.0424
 IR Inten    --      0.7899                 0.7115                 0.8595

                      4                      5                      6
                      A                      A                      A
 Frequencies --    258.2255               354.0514               416.8218
 Red. masses --      1.3451                 3.8025                 2.8468
 Frc consts  --      0.0528                 0.2808                 0.2914
 IR Inten    --      0.5770                 0.5423                 5.9174

                      7                      8                      9
                      A                      A                      A
 Frequencies --    430.0859               556.9162               657.5074
 Red. masses --      3.0945                 2.9130                 6.2169
 Frc consts  --      0.3372                 0.5323                 1.5835
 IR Inten    --      1.8168                 2.8479                 7.4125

                     10                     11                     12
                      A                      A                      A
 Frequencies --    717.5584               734.5162               781.2405
 Red. masses --      1.6899                 2.9671                 1.9880
 Frc consts  --      0.5126                 0.9432                 0.7149
 IR Inten    --     13.1715                 2.0148                14.7202

                     13                     14                     15
                      A                      A                      A
 Frequencies --    824.2621               847.1537               873.4120
 Red. masses --      4.8488                 5.3711                 2.5809
 Frc consts  --      1.9410                 2.2711                 1.1600
 IR Inten    --     15.7116                 6.4277                83.4285

                     16                     17                     18
                      A                      A                      A
 Frequencies --    883.4384               898.5054               915.8100
 Red. masses --      2.6016                 2.0928                 2.2799
 Frc consts  --      1.1963                 0.9955                 1.1266
 IR Inten    --     50.6172                 7.5160                 1.9157

                     19                     20                     21
                      A                      A                      A
 Frequencies --    933.7812               945.4080               965.0136
 Red. masses --      1.7418                 2.7484                 2.4176
 Frc consts  --      0.8948                 1.4473                 1.3265
 IR Inten    --     13.1287                35.7611                28.1346

                     22                     23                     24
                      A                      A                      A
 Frequencies --   1004.5011              1057.8235              1079.0365
 Red. masses --      1.8658                 2.8413                 2.4513
 Frc consts  --      1.1092                 1.8732                 1.6816
 IR Inten    --      5.3544                44.9263                13.0584

                     25                     26                     27
                      A                      A                      A
 Frequencies --   1100.8352              1145.5369              1150.6476
 Red. masses --      1.8081                 1.8482                 2.0865
 Frc consts  --      1.2910                 1.4289                 1.6276
 IR Inten    --      2.8729                 1.1256                12.6246

                     28                     29                     30
                      A                      A                      A
 Frequencies --   1232.7228              1252.5784              1274.3503
 Red. masses --      1.3655                 1.2782                 1.2581
 Frc consts  --      1.2226                 1.1816                 1.2038
 IR Inten    --      0.6059                 1.0326                 1.0662

                     31                     32                     33
                      A                      A                      A
 Frequencies --   1289.7784              1295.9863              1331.6353
 Red. masses --      1.2705                 1.3059                 1.7306
 Frc consts  --      1.2453                 1.2923                 1.8081
 IR Inten    --      1.6820                 6.9617                17.9097

                     34                     35                     36
                      A                      A                      A
 Frequencies --   1337.6831              1360.5711              1398.4208
 Red. masses --      1.5221                 1.3473                 1.4713
 Frc consts  --      1.6047                 1.4695                 1.6953
 IR Inten    --     10.4180                 3.4550                 3.5236

                     37                     38                     39
                      A                      A                      A
 Frequencies --   1409.6159              1480.7072              1497.9224
 Red. masses --      1.2347                 1.0767                 1.0418
 Frc consts  --      1.4455                 1.3909                 1.3773
 IR Inten    --      2.4600                 0.5611                 4.8578

                     40                     41                     42
                      A                      A                      A
 Frequencies --   1509.6241              1634.8423              3019.7735
 Red. masses --      1.0596                 6.0437                 1.0671
 Frc consts  --      1.4228                 9.5171                 5.7331
 IR Inten    --      3.7302                 1.7459                26.4693

                     43                     44                     45
                      A                      A                      A
 Frequencies --   3026.8451              3035.7181              3077.1636
 Red. masses --      1.0810                 1.0385                 1.0960
 Frc consts  --      5.8354                 5.6387                 6.1144
 IR Inten    --     26.3967                31.1326                11.4574

                     46                     47                     48
                      A                      A                      A
 Frequencies --   3102.0775              3124.3838              3148.5441
 Red. masses --      1.1002                 1.1011                 1.0897
 Frc consts  --      6.2376                 6.3331                 6.3649
 IR Inten    --     42.0656                22.0470                31.2230

                     49                     50                     51
                      A                      A                      A
 Frequencies --   3157.0004              3223.6486              3249.9374
 Red. masses --      1.0940                 1.0870                 1.1091
 Frc consts  --      6.4242                 6.6551                 6.9018
 IR Inten    --     19.3643                 2.9558                 5.4869

 - Thermochemistry -
 -------------------
 Temperature   298.150 Kelvin.  Pressure   1.00000 Atm.
 Atom     1 has atomic number  6 and mass  12.00000

 Molecular mass:   126.06808 amu.
 Principal axes and moments of inertia in atomic units:
                           1         2         3
     Eigenvalues --   470.920211417.847581495.03476
           X            0.99995   0.00455   0.00841
           Y           -0.00406   0.99832  -0.05774
           Z           -0.00866   0.05771   0.99830
 This molecule is an asymmetric top.
 Rotational symmetry number  1.
 Warning -- assumption of classical behavior for rotation
           may cause significant error
 Rotational temperatures (Kelvin)      0.18392     0.06109     0.05793
 Rotational constants (GHZ):           3.83237     1.27287     1.20716
 Zero-point vibrational energy     421366.8 (Joules/Mol)
                                  100.70909 (Kcal/Mol)
 Warning -- explicit consideration of   8 degrees of freedom as
           vibrations may cause significant error
 Vibrational temperatures:    142.31   220.41   275.26   371.53   509.40
          (Kelvin)            599.71   618.80   801.28   946.01  1032.41
                             1056.80  1124.03  1185.93  1218.86  1256.64
                             1271.07  1292.75  1317.64  1343.50  1360.23
                             1388.44  1445.25  1521.97  1552.49  1583.85
                             1648.17  1655.52  1773.61  1802.18  1833.50
                             1855.70  1864.63  1915.92  1924.63  1957.56
                             2012.01  2028.12  2130.40  2155.17  2172.01
                             2352.17  4344.78  4354.95  4367.72  4427.35
                             4463.19  4495.29  4530.05  4542.21  4638.11
                             4675.93

 Zero-point correction=                           0.160490 (Hartree/Particle)
 Thermal correction to Energy=                    0.168062
 Thermal correction to Enthalpy=                  0.169006
 Thermal correction to Gibbs Free Energy=         0.128450
 Sum of electronic and zero-point Energies=           -423.020953
 Sum of electronic and thermal Energies=              -423.013381
 Sum of electronic and thermal Enthalpies=            -423.012437
 Sum of electronic and thermal Free Energies=         -423.052993

                     E (Thermal)             CV                S
                      KCal/Mol        Cal/Mol-Kelvin    Cal/Mol-Kelvin
 Total                  105.460             30.081             85.357
 Electronic               0.000              0.000              0.000
 Translational            0.889              2.981             40.409
 Rotational               0.889              2.981             28.392
 Vibrational            103.683             24.120             16.557
 Vibration     1          0.604              1.950              3.476
 Vibration     2          0.619              1.899              2.632
 Vibration     3          0.634              1.852              2.215
 Vibration     4          0.667              1.749              1.674
 Vibration     5          0.730              1.567              1.148
 Vibration     6          0.780              1.434              0.903
 Vibration     7          0.791              1.405              0.858
 Vibration     8          0.912              1.125              0.530

 Optimization completed.
    -- Stationary point found.
 Normal termination of Gaussian 09 at Tue Jan 28 14:34:30 2020.
