 Gaussian 09, Revision D.01,
 Gaussian 09:  ES64L-G09RevD.01 24-Apr-2013

 -----------------------------
 # b3lyp 6-31G(2df,p) opt Freq
 -----------------------------

 -----
 titel
 -----
 Symbolic Z-matrix:
 Charge =  0 Multiplicity = 1

 SCF Done:  E(RB3LYP) =  -423.115299554     A.U. after   12 cycles
 Optimization completed.
    -- Stationary point found.
 Normal termination of Gaussian 09 at Tue Jan 28 02:20:50 2020.

 ----------------------------------------------------------------------
 #N Geom=AllCheck Guess=TCheck SCRF=Check GenChk RB3LYP/6-31G(2df,p) Fr
 eq
 ----------------------------------------------------------------------

 Structure from the checkpoint file:  "/scratch/puck/g09_3700db7f-14ef-4bcf-8730-5ed84a36d002/Gau-86164.chk"
 -----
 titel
 -----
 Charge =  0 Multiplicity = 1

                         Standard orientation:
 ---------------------------------------------------------------------
 Center     Atomic      Atomic             Coordinates (Angstroms)
 Number     Number       Type             X           Y           Z
 ---------------------------------------------------------------------
      1          8           0       -3.150588   -0.744631   -0.232291
      2          6           0       -2.108897   -0.085940    0.423469
      3          6           0       -1.835877    1.319460   -0.006947
      4          6           0       -0.836388    0.219852   -0.328110
      5          6           0        0.484628    0.171173    0.373044
      6          8           0        1.067738   -1.174221    0.318352
      7          6           0        2.155320   -0.682173   -0.467568
      8          6           0        2.962075    0.319214    0.295318
      9          6           0        1.679656    0.747394   -0.390731
     10          1           0       -2.907600   -1.673767   -0.306763
     11          1           0       -2.014602   -0.310803    1.486491
     12          1           0       -2.429497    1.699418   -0.830011
     13          1           0       -1.581336    2.051655    0.752148
     14          1           0       -0.818238   -0.113371   -1.361896
     15          1           0        0.379801    0.507900    1.413969
     16          1           0        2.516970   -1.301045   -1.280673
     17          1           0        3.014110    0.250570    1.378735
     18          1           0        3.871031    0.661437   -0.190481
     19          1           0        1.629066    1.524940   -1.140849
 ---------------------------------------------------------------------

 SCF Done:  E(RB3LYP) =  -423.115299554     A.U. after    1 cycles

 The electronic state is 1-A.
 Alpha  occ. eigenvalues --  -19.14111 -19.13386 -10.23981 -10.23832 -10.23509
 Alpha  occ. eigenvalues --  -10.19470 -10.18956 -10.18901 -10.18682  -1.04704
 Alpha  occ. eigenvalues --   -1.02659  -0.85179  -0.82996  -0.71054  -0.60610
 Alpha  occ. eigenvalues --   -0.59813  -0.59399  -0.54839  -0.52177  -0.51596
 Alpha  occ. eigenvalues --   -0.47910  -0.47644  -0.43191  -0.42659  -0.38802
 Alpha  occ. eigenvalues --   -0.38457  -0.36715  -0.34264  -0.33850  -0.31965
 Alpha  occ. eigenvalues --   -0.28551  -0.27716  -0.25254  -0.23414
 Alpha virt. eigenvalues --    0.08217   0.08538   0.09687   0.11239   0.11628
 Alpha virt. eigenvalues --    0.12619   0.13154   0.14570   0.15532   0.15943
 Alpha virt. eigenvalues --    0.17867   0.18710   0.19710   0.21362   0.23321

 Mulliken charges:
               1
     1  O   -0.424464
     2  C    0.101632
     3  C   -0.311223
     4  C   -0.049208
     5  C    0.109247
     6  O   -0.307851
     7  C    0.109021
     8  C   -0.307656
     9  C   -0.132720
    10  H    0.289062
    11  H    0.088624
    12  H    0.125535
    13  H    0.114008
    14  H    0.091265
    15  H    0.074229
    16  H    0.101294
    17  H    0.114436
    18  H    0.114241
    19  H    0.100528
 Sum of Mulliken charges =   0.00000

 Dipole moment (field-independent basis, Debye):
    X=              1.2685    Y=              0.6339    Z=             -0.4957  Tot=              1.5023
 Quadrupole moment (field-independent basis, Debye-Ang):
   XX=            -56.5584   YY=            -51.7550   ZZ=            -50.9775
   XY=              2.7933   XZ=             -2.4408   YZ=              1.4901

  Exact polarizability:  93.966  -0.864  70.058  -0.655   1.760  64.609
 Approx polarizability: 116.395  -1.776 110.396  -1.017   2.133  98.779

                      1                      2                      3
                      A                      A                      A
 Frequencies --     61.7876               110.5808               137.7723
 Red. masses --      3.8749                 4.4848                 2.8836
 Frc consts  --      0.0087                 0.0323                 0.0322
 IR Inten    --      1.1381                 1.5262                 0.8479

                      4                      5                      6
                      A                      A                      A
 Frequencies --    275.2704               295.2002               348.4703
 Red. masses --      3.0863                 3.1403                 1.3022
 Frc consts  --      0.1378                 0.1612                 0.0932
 IR Inten    --      6.5026                19.1646                95.1685

                      7                      8                      9
                      A                      A                      A
 Frequencies --    378.7052               443.0345               485.7290
 Red. masses --      3.1363                 2.4473                 3.0248
 Frc consts  --      0.2650                 0.2830                 0.4205
 IR Inten    --      2.1815                 1.4465                 7.0987

                     10                     11                     12
                      A                      A                      A
 Frequencies --    494.9940               757.8346               789.7391
 Red. masses --      2.8683                 1.6744                 2.0964
 Frc consts  --      0.4141                 0.5666                 0.7703
 IR Inten    --      7.1866                10.8756                 5.1450

                     13                     14                     15
                      A                      A                      A
 Frequencies --    834.5881               845.1708               860.7360
 Red. masses --      1.7174                 3.0647                 1.7270
 Frc consts  --      0.7048                 1.2898                 0.7539
 IR Inten    --      3.4750                22.2743                13.5235

                     16                     17                     18
                      A                      A                      A
 Frequencies --    913.7756               928.3597               942.2963
 Red. masses --      2.7877                 3.3129                 2.3615
 Frc consts  --      1.3714                 1.6823                 1.2354
 IR Inten    --     33.0112                 1.8919                29.7745

                     19                     20                     21
                      A                      A                      A
 Frequencies --    962.6305               985.5831               991.3181
 Red. masses --      2.2531                 2.1312                 2.2008
 Frc consts  --      1.2301                 1.2197                 1.2743
 IR Inten    --     14.2818                 4.9882                53.7940

                     22                     23                     24
                      A                      A                      A
 Frequencies --   1041.1819              1051.0012              1060.0503
 Red. masses --      1.2740                 1.5928                 1.4413
 Frc consts  --      0.8137                 1.0366                 0.9543
 IR Inten    --      0.1419                20.3879                 4.4409

                     25                     26                     27
                      A                      A                      A
 Frequencies --   1070.1682              1086.2956              1099.0511
 Red. masses --      1.7118                 1.8288                 1.4943
 Frc consts  --      1.1550                 1.2715                 1.0635
 IR Inten    --      2.9486                34.7366                 5.5874

                     28                     29                     30
                      A                      A                      A
 Frequencies --   1113.6221              1179.7662              1195.6914
 Red. masses --      1.2663                 2.4013                 1.9079
 Frc consts  --      0.9253                 1.9692                 1.6071
 IR Inten    --      6.8903                30.9266                 3.4256

                     31                     32                     33
                      A                      A                      A
 Frequencies --   1206.9212              1223.8160              1232.9662
 Red. masses --      2.0593                 2.0618                 1.2491
 Frc consts  --      1.7674                 1.8194                 1.1188
 IR Inten    --      2.2268                56.5537                 0.1802

                     34                     35                     36
                      A                      A                      A
 Frequencies --   1285.0172              1295.7057              1307.5443
 Red. masses --      1.2779                 1.6287                 1.2832
 Frc consts  --      1.2433                 1.6110                 1.2926
 IR Inten    --     12.2280                 9.6858                76.7522

                     37                     38                     39
                      A                      A                      A
 Frequencies --   1353.1893              1402.4908              1444.1670
 Red. masses --      1.8442                 1.4975                 1.2972
 Frc consts  --      1.9897                 1.7355                 1.5940
 IR Inten    --     13.7827                18.0643                 8.5863

                     40                     41                     42
                      A                      A                      A
 Frequencies --   1472.1440              1497.1637              3005.9810
 Red. masses --      1.2693                 1.8697                 1.0844
 Frc consts  --      1.6208                 2.4692                 5.7732
 IR Inten    --      3.1620                27.1003                41.6736

                     43                     44                     45
                      A                      A                      A
 Frequencies --   3092.8383              3112.1511              3137.8549
 Red. masses --      1.0870                 1.0540                 1.0554
 Frc consts  --      6.1264                 6.0146                 6.1227
 IR Inten    --     30.5953                15.5076                10.1502

                     46                     47                     48
                      A                      A                      A
 Frequencies --   3155.0828              3177.4091              3200.4069
 Red. masses --      1.0882                 1.0922                 1.1075
 Frc consts  --      6.3821                 6.4965                 6.6835
 IR Inten    --      6.7054                23.9861                 2.0127

                     49                     50                     51
                      A                      A                      A
 Frequencies --   3209.6535              3229.4576              3803.5996
 Red. masses --      1.1044                 1.1161                 1.0661
 Frc consts  --      6.7036                 6.8581                 9.0871
 IR Inten    --     16.3625                 5.3608                21.7487

 - Thermochemistry -
 -------------------
 Temperature   298.150 Kelvin.  Pressure   1.00000 Atm.
 Atom     1 has atomic number  8 and mass  15.99491

 Molecular mass:   126.06808 amu.
 Principal axes and moments of inertia in atomic units:
                           1         2         3
     Eigenvalues --   380.830151991.149452190.14530
           X            0.99999   0.00221  -0.00247
           Y           -0.00216   0.99977   0.02132
           Z            0.00252  -0.02131   0.99977
 This molecule is an asymmetric top.
 Rotational symmetry number  1.
 Rotational temperatures (Kelvin)      0.22743     0.04350     0.03955
 Rotational constants (GHZ):           4.73897     0.90638     0.82403
 Zero-point vibrational energy     416216.5 (Joules/Mol)
                                   99.47813 (Kcal/Mol)
 Warning -- explicit consideration of  10 degrees of freedom as
           vibrations may cause significant error
 Vibrational temperatures:     88.90   159.10   198.22   396.05   424.73
          (Kelvin)            501.37   544.87   637.43   698.85   712.19
                             1090.35  1136.26  1200.78  1216.01  1238.41
                             1314.72  1335.70  1355.75  1385.01  1418.03
                             1426.28  1498.03  1512.15  1525.17  1539.73
                             1562.94  1581.29  1602.25  1697.42  1720.33
                             1736.49  1760.80  1773.96  1848.85  1864.23
                             1881.26  1946.94  2017.87  2077.83  2118.08
                             2154.08  4324.93  4449.90  4477.69  4514.67
                             4539.45  4571.58  4604.67  4617.97  4646.46
                             5472.52

 Zero-point correction=                           0.158528 (Hartree/Particle)
 Thermal correction to Energy=                    0.166834
 Thermal correction to Enthalpy=                  0.167778
 Thermal correction to Gibbs Free Energy=         0.125152
 Sum of electronic and zero-point Energies=           -422.956771
 Sum of electronic and thermal Energies=              -422.948466
 Sum of electronic and thermal Enthalpies=            -422.947522
 Sum of electronic and thermal Free Energies=         -422.990147

                     E (Thermal)             CV                S
                      KCal/Mol        Cal/Mol-Kelvin    Cal/Mol-Kelvin
 Total                  104.690             31.967             89.714
 Electronic               0.000              0.000              0.000
 Translational            0.889              2.981             40.409
 Rotational               0.889              2.981             28.898
 Vibrational            102.912             26.006             20.407
 Vibration     1          0.597              1.973              4.399
 Vibration     2          0.606              1.941              3.259
 Vibration     3          0.614              1.916              2.835
 Vibration     4          0.677              1.719              1.563
 Vibration     5          0.689              1.683              1.444
 Vibration     6          0.726              1.578              1.173
 Vibration     7          0.749              1.516              1.044
 Vibration     8          0.803              1.376              0.817
 Vibration     9          0.842              1.282              0.695
 Vibration    10          0.851              1.261              0.671

 Optimization completed.
    -- Stationary point found.
 Normal termination of Gaussian 09 at Tue Jan 28 02:59:33 2020.
