 Gaussian 09, Revision D.01,
 Gaussian 09:  ES64L-G09RevD.01 24-Apr-2013

 -----------------------------
 # b3lyp 6-31G(2df,p) opt Freq
 -----------------------------

 -----
 titel
 -----
 Symbolic Z-matrix:
 Charge =  0 Multiplicity = 1

 SCF Done:  E(RB3LYP) =  -423.152901298     A.U. after   14 cycles
 Optimization completed.
    -- Stationary point found.
 Normal termination of Gaussian 09 at Tue Jan 28 12:08:50 2020.

 ----------------------------------------------------------------------
 #N Geom=AllCheck Guess=TCheck SCRF=Check GenChk RB3LYP/6-31G(2df,p) Fr
 eq
 ----------------------------------------------------------------------

 Structure from the checkpoint file:  "/scratch/puck/g09_3f406840-0d5c-4146-b55a-c11b4ee3de62/Gau-1510.chk"
 -----
 titel
 -----
 Charge =  0 Multiplicity = 1

                         Standard orientation:
 ---------------------------------------------------------------------
 Center     Atomic      Atomic             Coordinates (Angstroms)
 Number     Number       Type             X           Y           Z
 ---------------------------------------------------------------------
      1          6           0       -3.194374    0.343294    0.312842
      2          6           0       -1.940778   -0.075578   -0.433602
      3          8           0       -0.837261    0.628493    0.128090
      4          6           0        0.392503    0.351411   -0.520335
      5          6           0        1.371704    1.367309   -0.151536
      6          6           0        2.218495    2.164269    0.150885
      7          6           0        0.932713   -1.061265   -0.136264
      8          6           0        1.001869   -1.361671    1.343817
      9          8           0        1.257164   -1.839218   -0.998187
     10          1           0       -4.068608   -0.167995   -0.100669
     11          1           0       -3.115072    0.091050    1.374069
     12          1           0       -3.347927    1.422497    0.227627
     13          1           0       -1.787650   -1.163430   -0.356211
     14          1           0       -2.023732    0.163185   -1.505617
     15          1           0        0.265303    0.337926   -1.613378
     16          1           0        2.956356    2.883141    0.410233
     17          1           0        0.044900   -1.135984    1.821796
     18          1           0        1.278155   -2.404694    1.498777
     19          1           0        1.746252   -0.706508    1.809301
 ---------------------------------------------------------------------

 SCF Done:  E(RB3LYP) =  -423.152901298     A.U. after    1 cycles

 The electronic state is 1-A.
 Alpha  occ. eigenvalues --  -19.15765 -19.13933 -10.27726 -10.26471 -10.23980
 Alpha  occ. eigenvalues --  -10.19405 -10.18897 -10.18868 -10.18419  -1.05723
 Alpha  occ. eigenvalues --   -1.04249  -0.80429  -0.75264  -0.74538  -0.69730
 Alpha  occ. eigenvalues --   -0.62296  -0.56329  -0.53780  -0.51205  -0.49483
 Alpha  occ. eigenvalues --   -0.48577  -0.45809  -0.43435  -0.42846  -0.39610
 Alpha  occ. eigenvalues --   -0.39360  -0.38890  -0.36872  -0.36082  -0.33844
 Alpha  occ. eigenvalues --   -0.29863  -0.28604  -0.28163  -0.23808
 Alpha virt. eigenvalues --   -0.02947   0.03136   0.05391   0.08528   0.11658
 Alpha virt. eigenvalues --    0.12025   0.12126   0.14414   0.15455   0.16059
 Alpha virt. eigenvalues --    0.16541   0.17570   0.18627   0.19840   0.21056

 Mulliken charges:
               1
     1  C   -0.389015
     2  C   -0.041055
     3  O   -0.255096
     4  C   -0.129112
     5  C    0.282242
     6  C   -0.413447
     7  C    0.362830
     8  C   -0.479808
     9  O   -0.292783
    10  H    0.120987
    11  H    0.128712
    12  H    0.133179
    13  H    0.101246
    14  H    0.101201
    15  H    0.114139
    16  H    0.204741
    17  H    0.152378
    18  H    0.139797
    19  H    0.158863
 Sum of Mulliken charges =   0.00000

 Dipole moment (field-independent basis, Debye):
    X=             -1.0396    Y=              0.8323    Z=              1.1432  Tot=              1.7551
 Quadrupole moment (field-independent basis, Debye-Ang):
   XX=            -48.2146   YY=            -55.3985   ZZ=            -53.7589
   XY=              6.0551   XZ=              4.3885   YZ=             -3.5879

  Exact polarizability:  88.408  10.761  82.018   3.163   3.231  67.361
 Approx polarizability: 117.559  19.566 122.207   5.424  15.056 103.761

                      1                      2                      3
                      A                      A                      A
 Frequencies --     38.1136                62.6564                82.0327
 Red. masses --      3.2958                 2.2507                 2.2529
 Frc consts  --      0.0028                 0.0052                 0.0089
 IR Inten    --      4.8276                 0.1052                 1.8656

                      4                      5                      6
                      A                      A                      A
 Frequencies --    104.2651               125.3307               137.4975
 Red. masses --      1.1936                 3.9507                 3.8706
 Frc consts  --      0.0076                 0.0366                 0.0431
 IR Inten    --      0.2306                 0.6180                 0.4829

                      7                      8                      9
                      A                      A                      A
 Frequencies --    230.0487               268.3488               285.6906
 Red. masses --      1.4746                 2.2505                 3.6175
 Frc consts  --      0.0460                 0.0955                 0.1740
 IR Inten    --      1.8692                 8.0856                 1.9337

                     10                     11                     12
                      A                      A                      A
 Frequencies --    353.9582               395.9741               462.4964
 Red. masses --      4.3524                 4.3679                 6.4083
 Frc consts  --      0.3213                 0.4035                 0.8076
 IR Inten    --      1.8113                 0.6871                 3.1413

                     13                     14                     15
                      A                      A                      A
 Frequencies --    527.7383               578.5790               616.2063
 Red. masses --      3.4481                 3.9582                 2.9190
 Frc consts  --      0.5658                 0.7807                 0.6530
 IR Inten    --     17.6338                 4.9809                 1.6798

                     16                     17                     18
                      A                      A                      A
 Frequencies --    629.0329               676.2538               780.5476
 Red. masses --      1.2332                 1.2524                 3.5371
 Frc consts  --      0.2875                 0.3375                 1.2697
 IR Inten    --     45.4090                33.2989                 7.2678

                     19                     20                     21
                      A                      A                      A
 Frequencies --    820.5887               901.0738               986.3891
 Red. masses --      1.1045                 2.2296                 2.6686
 Frc consts  --      0.4382                 1.0666                 1.5298
 IR Inten    --      0.0021                 4.5581                 5.7142

                     22                     23                     24
                      A                      A                      A
 Frequencies --    997.3499              1027.6099              1066.1383
 Red. masses --      1.9824                 3.1413                 2.3682
 Frc consts  --      1.1618                 1.9544                 1.5860
 IR Inten    --      1.7507                14.4544                 5.4122

                     25                     26                     27
                      A                      A                      A
 Frequencies --   1117.7466              1147.6173              1185.0377
 Red. masses --      6.1211                 2.3852                 1.5564
 Frc consts  --      4.5058                 1.8508                 1.2877
 IR Inten    --    190.0097                45.2624                 9.6066

                     28                     29                     30
                      A                      A                      A
 Frequencies --   1209.1405              1277.0479              1299.6164
 Red. masses --      3.5353                 1.2858                 1.1110
 Frc consts  --      3.0453                 1.2355                 1.1056
 IR Inten    --     47.3941                 9.6185                 2.6118

                     31                     32                     33
                      A                      A                      A
 Frequencies --   1341.0494              1376.8769              1403.1101
 Red. masses --      1.2239                 1.3209                 1.2313
 Frc consts  --      1.2968                 1.4754                 1.4282
 IR Inten    --     48.5026                39.9603                 0.1837

                     34                     35                     36
                      A                      A                      A
 Frequencies --   1435.1093              1463.1202              1465.0556
 Red. masses --      1.4160                 1.0513                 1.0482
 Frc consts  --      1.7182                 1.3260                 1.3256
 IR Inten    --     18.1911                 8.7328                10.3649

                     37                     38                     39
                      A                      A                      A
 Frequencies --   1483.1019              1498.6335              1527.1122
 Red. masses --      1.0400                 1.0460                 1.0867
 Frc consts  --      1.3478                 1.3841                 1.4931
 IR Inten    --      4.7677                 2.5882                 4.0643

                     40                     41                     42
                      A                      A                      A
 Frequencies --   1824.7243              2237.8522              2974.2817
 Red. masses --     11.0247                 5.9156                 1.0554
 Frc consts  --     21.6278                17.4545                 5.5011
 IR Inten    --    157.7931                 2.9453                34.6004

                     43                     44                     45
                      A                      A                      A
 Frequencies --   2996.7788              3004.7734              3047.0287
 Red. masses --      1.0823                 1.1054                 1.0347
 Frc consts  --      5.7269                 5.8803                 5.6601
 IR Inten    --     29.2141                33.7673                14.9413

                     46                     47                     48
                      A                      A                      A
 Frequencies --   3050.6060              3116.4316              3121.5008
 Red. masses --      1.0360                 1.0958                 1.1017
 Frc consts  --      5.6806                 6.2702                 6.3248
 IR Inten    --      0.7512                 4.2934                22.6124

                     49                     50                     51
                      A                      A                      A
 Frequencies --   3125.1785              3162.3778              3502.4256
 Red. masses --      1.1026                 1.1045                 1.1629
 Frc consts  --      6.3448                 6.5078                 8.4048
 IR Inten    --     21.4727                 7.6012                67.1373

 - Thermochemistry -
 -------------------
 Temperature   298.150 Kelvin.  Pressure   1.00000 Atm.
 Atom     1 has atomic number  6 and mass  12.00000

 Molecular mass:   126.06808 amu.
 Principal axes and moments of inertia in atomic units:
                           1         2         3
     Eigenvalues --   923.458681533.419712021.23515
           X            0.99983   0.01084   0.01513
           Y           -0.01021   0.99910  -0.04116
           Z           -0.01556   0.04100   0.99904
 This molecule is an asymmetric top.
 Rotational symmetry number  1.
 Warning -- assumption of classical behavior for rotation
           may cause significant error
 Rotational temperatures (Kelvin)      0.09379     0.05648     0.04285
 Rotational constants (GHZ):           1.95433     1.17694     0.89289
 Zero-point vibrational energy     404022.3 (Joules/Mol)
                                   96.56365 (Kcal/Mol)
 Warning -- explicit consideration of  15 degrees of freedom as
           vibrations may cause significant error
 Vibrational temperatures:     54.84    90.15   118.03   150.01   180.32
          (Kelvin)            197.83   330.99   386.09   411.04   509.27
                              569.72   665.43   759.30   832.45   886.58
                              905.04   972.98  1123.03  1180.64  1296.44
                             1419.19  1434.96  1478.50  1533.93  1608.19
                             1651.16  1705.00  1739.68  1837.38  1869.86
                             1929.47  1981.02  2018.76  2064.80  2105.10
                             2107.89  2133.85  2156.20  2197.17  2625.37
                             3219.77  4279.32  4311.69  4323.19  4383.99
                             4389.14  4483.84  4491.14  4496.43  4549.95
                             5039.20

 Zero-point correction=                           0.153884 (Hartree/Particle)
 Thermal correction to Energy=                    0.164876
 Thermal correction to Enthalpy=                  0.165820
 Thermal correction to Gibbs Free Energy=         0.116383
 Sum of electronic and zero-point Energies=           -422.999017
 Sum of electronic and thermal Energies=              -422.988026
 Sum of electronic and thermal Enthalpies=            -422.987081
 Sum of electronic and thermal Free Energies=         -423.036518

                     E (Thermal)             CV                S
                      KCal/Mol        Cal/Mol-Kelvin    Cal/Mol-Kelvin
 Total                  103.461             37.705            104.049
 Electronic               0.000              0.000              0.000
 Translational            0.889              2.981             40.409
 Rotational               0.889              2.981             29.438
 Vibrational            101.684             31.743             34.201
 Vibration     1          0.594              1.982              5.355
 Vibration     2          0.597              1.972              4.372
 Vibration     3          0.600              1.961              3.842
 Vibration     4          0.605              1.946              3.373
 Vibration     5          0.610              1.928              3.016
 Vibration     6          0.614              1.916              2.838
 Vibration     7          0.652              1.795              1.879
 Vibration     8          0.673              1.731              1.607
 Vibration     9          0.683              1.700              1.499
 Vibration    10          0.730              1.567              1.149
 Vibration    11          0.763              1.479              0.978
 Vibration    12          0.820              1.333              0.759
 Vibration    13          0.883              1.189              0.592
 Vibration    14          0.935              1.078              0.488
 Vibration    15          0.976              0.998              0.423

 Normal termination of Gaussian 09 at Tue Jan 28 12:50:50 2020.
