 Gaussian 09, Revision D.01,
 Gaussian 09:  ES64L-G09RevD.01 24-Apr-2013

 -----------------------------
 # b3lyp 6-31G(2df,p) opt Freq
 -----------------------------

 -----
 titel
 -----
 Symbolic Z-matrix:
 Charge =  0 Multiplicity = 1

 SCF Done:  E(RB3LYP) =  -423.156707131     A.U. after   14 cycles
 Optimization completed.
    -- Stationary point found.
 Normal termination of Gaussian 09 at Mon Jan 27 12:03:10 2020.

 ----------------------------------------------------------------------
 #N Geom=AllCheck Guess=TCheck SCRF=Check GenChk RB3LYP/6-31G(2df,p) Fr
 eq
 ----------------------------------------------------------------------

 Structure from the checkpoint file:  "/scratch/puck/g09_f716d52a-144b-4225-826c-4827d55499c7/Gau-24357.chk"
 -----
 titel
 -----
 Charge =  0 Multiplicity = 1

                         Standard orientation:
 ---------------------------------------------------------------------
 Center     Atomic      Atomic             Coordinates (Angstroms)
 Number     Number       Type             X           Y           Z
 ---------------------------------------------------------------------
      1          6           0       -2.325150   -0.104621   -0.460021
      2          8           0       -1.882424   -0.182670    0.900380
      3          6           0       -0.908089    0.061112   -0.126090
      4          6           0       -0.237719    1.432719   -0.168797
      5          6           0        1.244918    1.380720    0.291901
      6          6           0        1.798882   -0.029398    0.047118
      7          6           0        1.059850   -1.077852    0.902850
      8          6           0        0.097869   -1.065637   -0.299325
      9          8           0        1.171644   -0.581585   -1.155149
     10          1           0       -2.676488   -1.041085   -0.892765
     11          1           0       -2.927630    0.770361   -0.703730
     12          1           0       -0.262507    1.779458   -1.205700
     13          1           0       -0.823760    2.137977    0.426138
     14          1           0        1.826592    2.123694   -0.262151
     15          1           0        1.345465    1.624938    1.355428
     16          1           0        2.889597   -0.065553   -0.008185
     17          1           0        1.609792   -2.017055    0.978230
     18          1           0        0.666574   -0.780445    1.876600
     19          1           0       -0.344753   -2.000511   -0.651530
 ---------------------------------------------------------------------

 SCF Done:  E(RB3LYP) =  -423.156707131     A.U. after    1 cycles

 The electronic state is 1-A.
 Alpha  occ. eigenvalues --  -19.14840 -19.13258 -10.23926 -10.23682 -10.23662
 Alpha  occ. eigenvalues --  -10.23126 -10.18772 -10.18675 -10.18534  -1.06932
 Alpha  occ. eigenvalues --   -1.03932  -0.79328  -0.73874  -0.73062  -0.65884
 Alpha  occ. eigenvalues --   -0.62479  -0.59197  -0.52170  -0.51784  -0.49025
 Alpha  occ. eigenvalues --   -0.47066  -0.45413  -0.44042  -0.41773  -0.40132
 Alpha  occ. eigenvalues --   -0.37989  -0.36541  -0.36087  -0.35090  -0.33035
 Alpha  occ. eigenvalues --   -0.30829  -0.28560  -0.27295  -0.23971
 Alpha virt. eigenvalues --    0.07768   0.07983   0.10393   0.10826   0.12249
 Alpha virt. eigenvalues --    0.12850   0.14153   0.14692   0.15777   0.16786
 Alpha virt. eigenvalues --    0.17464   0.17680   0.18888   0.21926   0.22311

 Mulliken charges:
               1
     1  C   -0.253780
     2  O   -0.283555
     3  C    0.441524
     4  C   -0.277342
     5  C   -0.234233
     6  C    0.099550
     7  C   -0.243490
     8  C    0.005120
     9  O   -0.301423
    10  H    0.112983
    11  H    0.112373
    12  H    0.122173
    13  H    0.111293
    14  H    0.104467
    15  H    0.106724
    16  H    0.078508
    17  H    0.107590
    18  H    0.114505
    19  H    0.077012
 Sum of Mulliken charges =   0.00000

 Dipole moment (field-independent basis, Debye):
    X=              0.3195    Y=              0.5567    Z=              0.0188  Tot=              0.6421
 Quadrupole moment (field-independent basis, Debye-Ang):
   XX=            -51.8938   YY=            -50.4279   ZZ=            -56.6206
   XY=              0.4951   XZ=              6.3024   YZ=             -0.5334

  Exact polarizability:  85.761   1.876  73.056   5.029  -0.072  62.313
 Approx polarizability: 114.823   3.564 101.173   1.905   0.659 104.427

                      1                      2                      3
                      A                      A                      A
 Frequencies --     94.1646               191.0315               305.8717
 Red. masses --      2.8639                 2.6572                 2.4342
 Frc consts  --      0.0150                 0.0571                 0.1342
 IR Inten    --      2.7692                 4.8027                 0.7349

                      4                      5                      6
                      A                      A                      A
 Frequencies --    340.0385               371.5153               409.1972
 Red. masses --      2.5376                 2.7191                 3.2361
 Frc consts  --      0.1729                 0.2211                 0.3193
 IR Inten    --      3.0322                 3.1383                 6.8168

                      7                      8                      9
                      A                      A                      A
 Frequencies --    438.4445               520.3075               606.2290
 Red. masses --      4.9630                 4.1818                 4.0159
 Frc consts  --      0.5621                 0.6670                 0.8696
 IR Inten    --      3.5836                 3.3306                 1.0837

                     10                     11                     12
                      A                      A                      A
 Frequencies --    711.2831               765.1638               823.6177
 Red. masses --      2.7881                 1.8414                 2.7203
 Frc consts  --      0.8311                 0.6352                 1.0872
 IR Inten    --      4.0527                 3.1935                 3.5974

                     13                     14                     15
                      A                      A                      A
 Frequencies --    847.8725               878.4697               908.1205
 Red. masses --      2.5334                 2.3981                 1.9002
 Frc consts  --      1.0731                 1.0904                 0.9233
 IR Inten    --     11.7333                27.7590                17.9345

                     16                     17                     18
                      A                      A                      A
 Frequencies --    912.2885               950.3028               964.6980
 Red. masses --      3.6145                 3.3970                 3.7726
 Frc consts  --      1.7724                 1.8075                 2.0686
 IR Inten    --     17.1894                40.3266                11.0738

                     19                     20                     21
                      A                      A                      A
 Frequencies --    978.8666               985.2233              1041.5778
 Red. masses --      1.9653                 2.6280                 2.1446
 Frc consts  --      1.1095                 1.5030                 1.3708
 IR Inten    --     17.5263                16.6010                 2.2245

                     22                     23                     24
                      A                      A                      A
 Frequencies --   1057.7427              1103.1876              1110.5856
 Red. masses --      1.6015                 1.3230                 3.0730
 Frc consts  --      1.0557                 0.9486                 2.2332
 IR Inten    --      6.9268                 0.8426                 5.2617

                     25                     26                     27
                      A                      A                      A
 Frequencies --   1126.7248              1158.0017              1176.3170
 Red. masses --      1.2598                 1.2939                 1.2283
 Frc consts  --      0.9423                 1.0223                 1.0014
 IR Inten    --      2.4571                 1.3507                 1.7262

                     28                     29                     30
                      A                      A                      A
 Frequencies --   1224.1514              1237.4424              1254.4646
 Red. masses --      1.6998                 1.3854                 1.4152
 Frc consts  --      1.5008                 1.2499                 1.3122
 IR Inten    --      8.8164                 0.9368                 5.3418

                     31                     32                     33
                      A                      A                      A
 Frequencies --   1279.4898              1306.8687              1310.6615
 Red. masses --      1.8022                 1.7807                 1.3799
 Frc consts  --      1.7383                 1.7918                 1.3966
 IR Inten    --      0.1165                 6.5815                13.0738

                     34                     35                     36
                      A                      A                      A
 Frequencies --   1337.7357              1352.7672              1365.8543
 Red. masses --      1.4879                 1.6654                 1.3952
 Frc consts  --      1.5688                 1.7956                 1.5336
 IR Inten    --      0.7815                 0.8919                 2.5683

                     37                     38                     39
                      A                      A                      A
 Frequencies --   1436.2625              1469.1776              1487.5486
 Red. masses --      2.2309                 1.0821                 1.1236
 Frc consts  --      2.7114                 1.3762                 1.4649
 IR Inten    --      4.1896                 1.7957                 4.6167

                     40                     41                     42
                      A                      A                      A
 Frequencies --   1499.7008              1531.3377              3041.6315
 Red. masses --      1.1000                 1.4026                 1.0604
 Frc consts  --      1.4577                 1.9379                 5.7803
 IR Inten    --      2.8518                 3.2496                24.7631

                     43                     44                     45
                      A                      A                      A
 Frequencies --   3058.9142              3072.4806              3073.9194
 Red. masses --      1.0639                 1.0703                 1.0518
 Frc consts  --      5.8652                 5.9529                 5.8558
 IR Inten    --     12.2522                10.4033                22.8200

                     46                     47                     48
                      A                      A                      A
 Frequencies --   3079.0423              3083.9767              3088.3241
 Red. masses --      1.0851                 1.0910                 1.0877
 Frc consts  --      6.0613                 6.1138                 6.1121
 IR Inten    --     65.0493                59.6796                14.7688

                     49                     50                     51
                      A                      A                      A
 Frequencies --   3108.9822              3140.1121              3158.9641
 Red. masses --      1.1043                 1.1099                 1.1192
 Frc consts  --      6.2891                 6.4479                 6.5802
 IR Inten    --     17.8458                20.0376                24.6469

 - Thermochemistry -
 -------------------
 Temperature   298.150 Kelvin.  Pressure   1.00000 Atm.
 Atom     1 has atomic number  6 and mass  12.00000

 Molecular mass:   126.06808 amu.
 Principal axes and moments of inertia in atomic units:
                           1         2         3
     Eigenvalues --   590.331431134.021981305.24212
           X            0.99902   0.00883   0.04340
           Y           -0.00770   0.99963  -0.02617
           Z           -0.04361   0.02581   0.99872
 This molecule is an asymmetric top.
 Rotational symmetry number  1.
 Warning -- assumption of classical behavior for rotation
           may cause significant error
 Rotational temperatures (Kelvin)      0.14672     0.07638     0.06636
 Rotational constants (GHZ):           3.05717     1.59145     1.38269
 Zero-point vibrational energy     423338.4 (Joules/Mol)
                                  101.18030 (Kcal/Mol)
 Warning -- explicit consideration of   9 degrees of freedom as
           vibrations may cause significant error
 Vibrational temperatures:    135.48   274.85   440.08   489.24   534.53
          (Kelvin)            588.74   630.82   748.61   872.23  1023.38
                             1100.90  1185.00  1219.90  1263.92  1306.58
                             1312.58  1367.27  1387.98  1408.37  1417.51
                             1498.60  1521.85  1587.24  1597.88  1621.10
                             1666.10  1692.46  1761.28  1780.40  1804.89
                             1840.90  1880.29  1885.75  1924.70  1946.33
                             1965.16  2066.46  2113.82  2140.25  2157.73
                             2203.25  4376.22  4401.09  4420.61  4422.68
                             4430.05  4437.15  4443.40  4473.13  4517.92
                             4545.04

 Zero-point correction=                           0.161241 (Hartree/Particle)
 Thermal correction to Energy=                    0.168422
 Thermal correction to Enthalpy=                  0.169366
 Thermal correction to Gibbs Free Energy=         0.129733
 Sum of electronic and zero-point Energies=           -422.995466
 Sum of electronic and thermal Energies=              -422.988285
 Sum of electronic and thermal Enthalpies=            -422.987341
 Sum of electronic and thermal Free Energies=         -423.026974

                     E (Thermal)             CV                S
                      KCal/Mol        Cal/Mol-Kelvin    Cal/Mol-Kelvin
 Total                  105.686             29.146             83.414
 Electronic               0.000              0.000              0.000
 Translational            0.889              2.981             40.409
 Rotational               0.889              2.981             28.260
 Vibrational            103.909             23.184             14.746
 Vibration     1          0.603              1.953              3.572
 Vibration     2          0.634              1.852              2.218
 Vibration     3          0.696              1.663              1.385
 Vibration     4          0.720              1.595              1.212
 Vibration     5          0.743              1.531              1.074
 Vibration     6          0.774              1.450              0.929
 Vibration     7          0.799              1.386              0.832
 Vibration     8          0.875              1.205              0.609
 Vibration     9          0.965              1.019              0.439

 Optimization completed.
    -- Stationary point found.
 Normal termination of Gaussian 09 at Mon Jan 27 12:55:28 2020.
