 Gaussian 09, Revision D.01,
 Gaussian 09:  ES64L-G09RevD.01 24-Apr-2013

 -----------------------------
 # b3lyp 6-31G(2df,p) opt Freq
 -----------------------------

 -----
 titel
 -----
 Symbolic Z-matrix:
 Charge =  0 Multiplicity = 1

 SCF Done:  E(RB3LYP) =  -423.137521004     A.U. after   13 cycles
 Optimization completed.
    -- Stationary point found.
 Normal termination of Gaussian 09 at Mon Jan 27 22:52:53 2020.

 ----------------------------------------------------------------------
 #N Geom=AllCheck Guess=TCheck SCRF=Check GenChk RB3LYP/6-31G(2df,p) Fr
 eq
 ----------------------------------------------------------------------

 Structure from the checkpoint file:  "/scratch/puck/g09_8f0bb676-6ea2-482b-9249-22b1a017bd31/Gau-75002.chk"
 -----
 titel
 -----
 Charge =  0 Multiplicity = 1

                         Standard orientation:
 ---------------------------------------------------------------------
 Center     Atomic      Atomic             Coordinates (Angstroms)
 Number     Number       Type             X           Y           Z
 ---------------------------------------------------------------------
      1          6           0        2.886783    0.373985    0.082668
      2          6           0        1.644613   -0.506087    0.052917
      3          6           0        0.499283   -0.273266   -0.974453
      4          6           0       -0.393911   -1.135191   -0.032757
      5          8           0       -1.788117   -0.974260   -0.143290
      6          6           0       -2.175257    0.309150    0.280810
      7          8           0       -1.327371    1.308926   -0.224299
      8          6           0        0.027444    0.931525   -0.105772
      9          6           0        0.399163   -0.185447    0.931077
     10          1           0        2.668559    1.442583    0.017828
     11          1           0        3.449617    0.208282    1.007670
     12          1           0        3.549170    0.121599   -0.752294
     13          1           0        1.938871   -1.560487    0.120581
     14          1           0        0.546860   -0.324064   -2.062606
     15          1           0       -0.179939   -2.205148    0.020803
     16          1           0       -3.182329    0.498921   -0.096798
     17          1           0       -2.170788    0.346634    1.383851
     18          1           0        0.615684    1.847456   -0.125685
     19          1           0        0.359483   -0.141120    2.020418
 ---------------------------------------------------------------------

 SCF Done:  E(RB3LYP) =  -423.137521004     A.U. after    1 cycles

 The electronic state is 1-A.
 Alpha  occ. eigenvalues --  -19.14554 -19.14509 -10.27237 -10.24249 -10.24149
 Alpha  occ. eigenvalues --  -10.20195 -10.20174 -10.19298 -10.18056  -1.08247
 Alpha  occ. eigenvalues --   -1.00479  -0.90900  -0.74152  -0.69470  -0.66365
 Alpha  occ. eigenvalues --   -0.63761  -0.59010  -0.53292  -0.51235  -0.50278
 Alpha  occ. eigenvalues --   -0.49539  -0.44303  -0.42189  -0.41515  -0.40149
 Alpha  occ. eigenvalues --   -0.39194  -0.38536  -0.35625  -0.34597  -0.32083
 Alpha  occ. eigenvalues --   -0.30905  -0.29333  -0.25542  -0.24622
 Alpha virt. eigenvalues --    0.09258   0.10647   0.11590   0.12891   0.13353
 Alpha virt. eigenvalues --    0.14036   0.14400   0.15110   0.15653   0.16393
 Alpha virt. eigenvalues --    0.17498   0.18433   0.19436   0.20320   0.22224

 Mulliken charges:
               1
     1  C   -0.437547
     2  C    0.028157
     3  C   -0.135060
     4  C    0.155826
     5  O   -0.278501
     6  C    0.015598
     7  O   -0.278158
     8  C    0.148721
     9  C   -0.172819
    10  H    0.122786
    11  H    0.120391
    12  H    0.121719
    13  H    0.070198
    14  H    0.074234
    15  H    0.082053
    16  H    0.118887
    17  H    0.085502
    18  H    0.081692
    19  H    0.076320
 Sum of Mulliken charges =   0.00000

 Dipole moment (field-independent basis, Debye):
    X=              1.4602    Y=             -0.1942    Z=              0.8021  Tot=              1.6773
 Quadrupole moment (field-independent basis, Debye-Ang):
   XX=            -52.3628   YY=            -55.3170   ZZ=            -52.5054
   XY=             -0.8764   XZ=             -1.6531   YZ=              0.3196

  Exact polarizability:  90.339  -1.370  67.440  -1.250   0.329  65.555
 Approx polarizability: 116.760  -2.041 106.172  -0.238  -0.029 103.384

                      1                      2                      3
                      A                      A                      A
 Frequencies --    180.2071               209.1095               239.5635
 Red. masses --      1.0356                 2.7151                 3.3130
 Frc consts  --      0.0198                 0.0699                 0.1120
 IR Inten    --      0.0476                 1.3133                 0.0731

                      4                      5                      6
                      A                      A                      A
 Frequencies --    282.9959               325.0925               473.0730
 Red. masses --      2.7810                 3.0370                 3.8553
 Frc consts  --      0.1312                 0.1891                 0.5084
 IR Inten    --      3.9762                 2.3573                 0.9000

                      7                      8                      9
                      A                      A                      A
 Frequencies --    481.1143               543.6700               573.8019
 Red. masses --      3.4817                 6.1935                 4.7418
 Frc consts  --      0.4748                 1.0786                 0.9199
 IR Inten    --      4.4833                 4.2880                 3.3361

                     10                     11                     12
                      A                      A                      A
 Frequencies --    712.5126               757.8313               801.7752
 Red. masses --      5.0554                 2.9314                 2.2547
 Frc consts  --      1.5121                 0.9919                 0.8540
 IR Inten    --      3.3360                 4.6831                 0.3546

                     13                     14                     15
                      A                      A                      A
 Frequencies --    826.9816               882.1699               901.4479
 Red. masses --      3.1158                 2.0416                 2.0394
 Frc consts  --      1.2555                 0.9361                 0.9764
 IR Inten    --      0.9503                 0.2706                 3.0664

                     16                     17                     18
                      A                      A                      A
 Frequencies --    979.6157               983.5511              1009.9102
 Red. masses --      3.2797                 2.4903                 1.1218
 Frc consts  --      1.8544                 1.4194                 0.6741
 IR Inten    --     16.2630                42.3203                 2.0421

                     19                     20                     21
                      A                      A                      A
 Frequencies --   1013.5124              1035.0013              1068.6394
 Red. masses --      3.2784                 4.6844                 2.1542
 Frc consts  --      1.9841                 2.9566                 1.4494
 IR Inten    --     10.4476                42.4854                25.2900

                     22                     23                     24
                      A                      A                      A
 Frequencies --   1070.6041              1101.3389              1118.8915
 Red. masses --      1.4890                 1.5864                 3.8052
 Frc consts  --      1.0056                 1.1338                 2.8067
 IR Inten    --      7.1540                 1.9402                15.3796

                     25                     26                     27
                      A                      A                      A
 Frequencies --   1145.2280              1165.7765              1178.9635
 Red. masses --      2.6585                 1.4214                 2.0727
 Frc consts  --      2.0543                 1.1381                 1.6974
 IR Inten    --      6.7490                 2.8230                19.7336

                     28                     29                     30
                      A                      A                      A
 Frequencies --   1196.3656              1222.9619              1242.1229
 Red. masses --      1.5217                 3.3751                 1.8942
 Frc consts  --      1.2833                 2.9742                 1.7219
 IR Inten    --      1.8156               229.4575                78.6590

                     31                     32                     33
                      A                      A                      A
 Frequencies --   1258.2190              1268.4124              1283.3273
 Red. masses --      1.7244                 1.8516                 1.1063
 Frc consts  --      1.6084                 1.7552                 1.0735
 IR Inten    --      2.1997                10.6223                 0.6030

                     34                     35                     36
                      A                      A                      A
 Frequencies --   1371.9642              1401.6631              1423.9539
 Red. masses --      1.2215                 1.2498                 1.2470
 Frc consts  --      1.3547                 1.4467                 1.4897
 IR Inten    --     19.4754                26.2022                 8.1326

                     37                     38                     39
                      A                      A                      A
 Frequencies --   1433.7530              1452.1646              1496.2528
 Red. masses --      1.3697                 1.2649                 1.0461
 Frc consts  --      1.6589                 1.5716                 1.3799
 IR Inten    --      7.4355                 8.3826                 3.1654

                     40                     41                     42
                      A                      A                      A
 Frequencies --   1504.0863              1525.4126              2951.3007
 Red. masses --      1.0561                 1.1007                 1.0703
 Frc consts  --      1.4077                 1.5091                 5.4925
 IR Inten    --      2.9759                 0.9020                82.5750

                     43                     44                     45
                      A                      A                      A
 Frequencies --   3028.9677              3037.8249              3085.9715
 Red. masses --      1.0806                 1.0400                 1.0860
 Frc consts  --      5.8414                 5.6550                 6.0936
 IR Inten    --     30.1758                29.4360                39.7002

                     46                     47                     48
                      A                      A                      A
 Frequencies --   3094.3134              3101.7705              3106.6867
 Red. masses --      1.1008                 1.0904                 1.0946
 Frc consts  --      6.2097                 6.1809                 6.2246
 IR Inten    --     20.0434                55.5607                49.6323

                     49                     50                     51
                      A                      A                      A
 Frequencies --   3110.3631              3116.7748              3132.6634
 Red. masses --      1.0921                 1.0973                 1.0916
 Frc consts  --      6.2248                 6.2803                 6.3116
 IR Inten    --     30.8321                26.4514                39.9214

 - Thermochemistry -
 -------------------
 Temperature   298.150 Kelvin.  Pressure   1.00000 Atm.
 Atom     1 has atomic number  6 and mass  12.00000

 Molecular mass:   126.06808 amu.
 Principal axes and moments of inertia in atomic units:
                           1         2         3
     Eigenvalues --   447.056441294.267281483.71011
           X            0.99997   0.00407  -0.00680
           Y           -0.00401   0.99995   0.00913
           Z            0.00683  -0.00910   0.99994
 This molecule is an asymmetric top.
 Rotational symmetry number  1.
 Warning -- assumption of classical behavior for rotation
           may cause significant error
 Rotational temperatures (Kelvin)      0.19374     0.06692     0.05838
 Rotational constants (GHZ):           4.03694     1.39441     1.21637
 Zero-point vibrational energy     424134.0 (Joules/Mol)
                                  101.37047 (Kcal/Mol)
 Warning -- explicit consideration of   9 degrees of freedom as
           vibrations may cause significant error
 Vibrational temperatures:    259.28   300.86   344.68   407.17   467.74
          (Kelvin)            680.65   692.22   782.22   825.57  1025.15
                             1090.35  1153.57  1189.84  1269.24  1296.98
                             1409.45  1415.11  1453.03  1458.22  1489.13
                             1537.53  1540.36  1584.58  1609.83  1647.73
                             1677.29  1696.26  1721.30  1759.57  1787.14
                             1810.29  1824.96  1846.42  1973.95  2016.68
                             2048.75  2062.85  2089.34  2152.77  2164.04
                             2194.73  4246.26  4358.00  4370.75  4440.02
                             4452.02  4462.75  4469.82  4475.11  4484.34
                             4507.20

 Zero-point correction=                           0.161544 (Hartree/Particle)
 Thermal correction to Energy=                    0.168638
 Thermal correction to Enthalpy=                  0.169582
 Thermal correction to Gibbs Free Energy=         0.130367
 Sum of electronic and zero-point Energies=           -422.975977
 Sum of electronic and thermal Energies=              -422.968883
 Sum of electronic and thermal Enthalpies=            -422.967939
 Sum of electronic and thermal Free Energies=         -423.007154

                     E (Thermal)             CV                S
                      KCal/Mol        Cal/Mol-Kelvin    Cal/Mol-Kelvin
 Total                  105.822             28.917             82.534
 Electronic               0.000              0.000              0.000
 Translational            0.889              2.981             40.409
 Rotational               0.889              2.981             28.242
 Vibrational            104.044             22.955             13.884
 Vibration     1          0.629              1.867              2.326
 Vibration     2          0.642              1.827              2.051
 Vibration     3          0.657              1.780              1.806
 Vibration     4          0.682              1.705              1.515
 Vibration     5          0.709              1.625              1.284
 Vibration     6          0.830              1.310              0.729
 Vibration     7          0.837              1.292              0.707
 Vibration     8          0.899              1.154              0.557
 Vibration     9          0.930              1.088              0.497

 Normal termination of Gaussian 09 at Mon Jan 27 23:38:47 2020.
