 Gaussian 09, Revision D.01,
 Gaussian 09:  ES64L-G09RevD.01 24-Apr-2013

 -----------------------------
 # b3lyp 6-31G(2df,p) opt Freq
 -----------------------------

 -----
 titel
 -----
 Symbolic Z-matrix:
 Charge =  0 Multiplicity = 1

 SCF Done:  E(RB3LYP) =  -423.160081637     A.U. after   13 cycles
 Optimization completed.
    -- Stationary point found.
 Normal termination of Gaussian 09 at Mon Jan 27 11:55:55 2020.

 ----------------------------------------------------------------------
 #N Geom=AllCheck Guess=TCheck SCRF=Check GenChk RB3LYP/6-31G(2df,p) Fr
 eq
 ----------------------------------------------------------------------

 Structure from the checkpoint file:  "/scratch/puck/g09_137d23f7-0037-4d8c-985f-a0f7a2d35a46/Gau-71261.chk"
 -----
 titel
 -----
 Charge =  0 Multiplicity = 1

                         Standard orientation:
 ---------------------------------------------------------------------
 Center     Atomic      Atomic             Coordinates (Angstroms)
 Number     Number       Type             X           Y           Z
 ---------------------------------------------------------------------
      1          6           0        1.848164   -0.795885   -0.780727
      2          6           0        2.498761   -0.037262    0.349218
      3          6           0        1.046496    0.175165    0.036598
      4          6           0        0.347968    1.462238   -0.432976
      5          6           0       -0.896311    1.063262    0.418532
      6          8           0       -2.004502    0.541541   -0.292219
      7          6           0       -1.713207   -0.815657   -0.557383
      8          8           0       -0.942590   -1.295507    0.523007
      9          6           0       -0.143043   -0.202298    0.937160
     10          1           0        2.100828   -0.514531   -1.798274
     11          1           0        1.641172   -1.851838   -0.642039
     12          1           0        2.750930   -0.579794    1.255429
     13          1           0        3.192874    0.758650    0.097745
     14          1           0        0.824137    2.388678   -0.098576
     15          1           0        0.142731    1.537565   -1.504484
     16          1           0       -1.264216    1.802868    1.130509
     17          1           0       -2.648703   -1.379112   -0.608999
     18          1           0       -1.155524   -0.914321   -1.504191
     19          1           0        0.059543   -0.313828    2.004040
 ---------------------------------------------------------------------

 SCF Done:  E(RB3LYP) =  -423.160081637     A.U. after    1 cycles

 The electronic state is 1-A.
 Alpha  occ. eigenvalues --  -19.14827 -19.14679 -10.27158 -10.23350 -10.23197
 Alpha  occ. eigenvalues --  -10.19525 -10.18831 -10.18712 -10.18347  -1.08819
 Alpha  occ. eigenvalues --   -0.99526  -0.87163  -0.79665  -0.69641  -0.64238
 Alpha  occ. eigenvalues --   -0.60475  -0.59505  -0.54260  -0.52204  -0.50204
 Alpha  occ. eigenvalues --   -0.47851  -0.46453  -0.44214  -0.42549  -0.40498
 Alpha  occ. eigenvalues --   -0.38454  -0.36586  -0.36141  -0.33766  -0.31962
 Alpha  occ. eigenvalues --   -0.28846  -0.28221  -0.26016  -0.25204
 Alpha virt. eigenvalues --    0.07099   0.09634   0.10145   0.10916   0.12395
 Alpha virt. eigenvalues --    0.13657   0.14936   0.15569   0.16564   0.17476
 Alpha virt. eigenvalues --    0.18078   0.19453   0.19955   0.20414   0.22178

 Mulliken charges:
               1
     1  C   -0.310319
     2  C   -0.344906
     3  C    0.347921
     4  C   -0.349062
     5  C    0.087577
     6  O   -0.256675
     7  C    0.012683
     8  O   -0.247822
     9  C   -0.002497
    10  H    0.112984
    11  H    0.125659
    12  H    0.114702
    13  H    0.113104
    14  H    0.105023
    15  H    0.107713
    16  H    0.089164
    17  H    0.120285
    18  H    0.090198
    19  H    0.084267
 Sum of Mulliken charges =   0.00000

 Dipole moment (field-independent basis, Debye):
    X=              1.2585    Y=              0.5666    Z=             -0.1272  Tot=              1.3861
 Quadrupole moment (field-independent basis, Debye-Ang):
   XX=            -55.3683   YY=            -53.5399   ZZ=            -51.0712
   XY=              2.0460   XZ=              0.6929   YZ=              2.1253

  Exact polarizability:  83.234   1.876  71.959   1.748   2.780  67.984
 Approx polarizability: 110.546   2.134 106.400   3.422   3.049 102.883

                      1                      2                      3
                      A                      A                      A
 Frequencies --     65.5737               182.6858               238.9220
 Red. masses --      3.6892                 2.8398                 2.8642
 Frc consts  --      0.0093                 0.0558                 0.0963
 IR Inten    --      0.2330                 0.7098                 1.5575

                      4                      5                      6
                      A                      A                      A
 Frequencies --    262.8031               312.1268               404.3990
 Red. masses --      2.1770                 2.6444                 2.6277
 Frc consts  --      0.0886                 0.1518                 0.2532
 IR Inten    --      4.7861                 0.3842                 5.9960

                      7                      8                      9
                      A                      A                      A
 Frequencies --    482.9515               549.1177               721.7012
 Red. masses --      3.0524                 4.4678                 4.2551
 Frc consts  --      0.4195                 0.7937                 1.3058
 IR Inten    --      2.4313                 5.1021                 1.8864

                     10                     11                     12
                      A                      A                      A
 Frequencies --    737.2006               779.0293               788.8523
 Red. masses --      7.5152                 1.2186                 1.6125
 Frc consts  --      2.4064                 0.4357                 0.5912
 IR Inten    --      0.8359                 4.1422                 3.0158

                     13                     14                     15
                      A                      A                      A
 Frequencies --    850.3228               869.3347               895.7743
 Red. masses --      2.0612                 2.5887                 1.7820
 Frc consts  --      0.8781                 1.1527                 0.8425
 IR Inten    --      0.4926                 4.3309                 4.9092

                     16                     17                     18
                      A                      A                      A
 Frequencies --    901.8947               959.0789               963.7470
 Red. masses --      2.1102                 3.8036                 2.2926
 Frc consts  --      1.0113                 2.0614                 1.2546
 IR Inten    --     20.9237                69.1125                 9.0118

                     19                     20                     21
                      A                      A                      A
 Frequencies --    988.2574              1016.6435              1027.7762
 Red. masses --      2.5304                 2.6952                 3.7549
 Frc consts  --      1.4560                 1.6412                 2.3369
 IR Inten    --      1.8162                14.9390                18.8754

                     22                     23                     24
                      A                      A                      A
 Frequencies --   1049.3927              1075.3221              1105.3038
 Red. masses --      1.4441                 1.4399                 3.5669
 Frc consts  --      0.9369                 0.9810                 2.5675
 IR Inten    --      4.7238                 0.1324               100.3994

                     25                     26                     27
                      A                      A                      A
 Frequencies --   1116.2326              1154.4342              1182.7600
 Red. masses --      3.1599                 1.4757                 2.0447
 Frc consts  --      2.3197                 1.1588                 1.6853
 IR Inten    --     21.0709                 5.5330               112.3951

                     28                     29                     30
                      A                      A                      A
 Frequencies --   1190.2828              1195.6680              1219.1809
 Red. masses --      1.3214                 1.7359                 1.2353
 Frc consts  --      1.1030                 1.4621                 1.0818
 IR Inten    --      0.1653                 0.4906                 0.3520

                     31                     32                     33
                      A                      A                      A
 Frequencies --   1238.3475              1260.6906              1274.1981
 Red. masses --      1.3088                 1.5720                 1.9355
 Frc consts  --      1.1825                 1.4720                 1.8514
 IR Inten    --      0.3891                 1.0202                 1.9165

                     34                     35                     36
                      A                      A                      A
 Frequencies --   1335.0176              1344.7934              1378.5338
 Red. masses --      1.3477                 1.3210                 2.3807
 Frc consts  --      1.4152                 1.4075                 2.6656
 IR Inten    --      7.0394                 4.4805                12.5428

                     37                     38                     39
                      A                      A                      A
 Frequencies --   1427.1682              1464.8049              1472.1847
 Red. masses --      1.2761                 1.0872                 1.1160
 Frc consts  --      1.5314                 1.3745                 1.4251
 IR Inten    --      8.4780                 1.2519                 6.9591

                     40                     41                     42
                      A                      A                      A
 Frequencies --   1501.2104              1542.6006              2958.4061
 Red. masses --      1.4499                 1.0995                 1.0695
 Frc consts  --      1.9252                 1.5416                 5.5151
 IR Inten    --      0.2416                 2.0908                72.3141

                     43                     44                     45
                      A                      A                      A
 Frequencies --   3050.1442              3092.0112              3093.9688
 Red. masses --      1.0584                 1.0915                 1.0928
 Frc consts  --      5.8016                 6.1481                 6.1632
 IR Inten    --     27.1787                45.5766                23.8913

                     46                     47                     48
                      A                      A                      A
 Frequencies --   3100.6084              3110.8876              3120.1829
 Red. masses --      1.1021                 1.0953                 1.0521
 Frc consts  --      6.2428                 6.2454                 6.0351
 IR Inten    --     10.7093                52.3026                19.3253

                     49                     50                     51
                      A                      A                      A
 Frequencies --   3126.6574              3199.8067              3216.5466
 Red. masses --      1.0559                 1.1176                 1.1158
 Frc consts  --      6.0820                 6.7421                 6.8014
 IR Inten    --      9.9922                 1.8924                11.9971

 - Thermochemistry -
 -------------------
 Temperature   298.150 Kelvin.  Pressure   1.00000 Atm.
 Atom     1 has atomic number  6 and mass  12.00000

 Molecular mass:   126.06808 amu.
 Principal axes and moments of inertia in atomic units:
                           1         2         3
     Eigenvalues --   552.790711207.852791413.71369
           X            0.99997   0.00715   0.00273
           Y           -0.00726   0.99903   0.04346
           Z           -0.00242  -0.04348   0.99905
 This molecule is an asymmetric top.
 Rotational symmetry number  1.
 Warning -- assumption of classical behavior for rotation
           may cause significant error
 Rotational temperatures (Kelvin)      0.15668     0.07171     0.06127
 Rotational constants (GHZ):           3.26478     1.49417     1.27660
 Zero-point vibrational energy     422255.1 (Joules/Mol)
                                  100.92139 (Kcal/Mol)
 Warning -- explicit consideration of   8 degrees of freedom as
           vibrations may cause significant error
 Vibrational temperatures:     94.35   262.84   343.76   378.11   449.08
          (Kelvin)            581.84   694.86   790.06  1038.37  1060.67
                             1120.85  1134.98  1223.42  1250.78  1288.82
                             1297.62  1379.90  1386.62  1421.88  1462.72
                             1478.74  1509.84  1547.15  1590.28  1606.01
                             1660.97  1701.73  1712.55  1720.30  1754.13
                             1781.70  1813.85  1833.28  1920.79  1934.86
                             1983.40  2053.37  2107.52  2118.14  2159.90
                             2219.46  4256.48  4388.47  4448.71  4451.53
                             4461.08  4475.87  4489.24  4498.56  4603.80
                             4627.89

 Zero-point correction=                           0.160828 (Hartree/Particle)
 Thermal correction to Energy=                    0.168243
 Thermal correction to Enthalpy=                  0.169187
 Thermal correction to Gibbs Free Energy=         0.128743
 Sum of electronic and zero-point Energies=           -422.999253
 Sum of electronic and thermal Energies=              -422.991838
 Sum of electronic and thermal Enthalpies=            -422.990894
 Sum of electronic and thermal Free Energies=         -423.031338

                     E (Thermal)             CV                S
                      KCal/Mol        Cal/Mol-Kelvin    Cal/Mol-Kelvin
 Total                  105.574             29.342             85.122
 Electronic               0.000              0.000              0.000
 Translational            0.889              2.981             40.409
 Rotational               0.889              2.981             28.336
 Vibrational            103.797             23.381             16.377
 Vibration     1          0.597              1.971              4.282
 Vibration     2          0.630              1.863              2.301
 Vibration     3          0.657              1.781              1.811
 Vibration     4          0.670              1.741              1.643
 Vibration     5          0.700              1.651              1.351
 Vibration     6          0.770              1.461              0.947
 Vibration     7          0.839              1.288              0.702
 Vibration     8          0.904              1.142              0.546

 Normal termination of Gaussian 09 at Mon Jan 27 12:39:06 2020.
