 Gaussian 09, Revision D.01,
 Gaussian 09:  ES64L-G09RevD.01 24-Apr-2013

 -----------------------------
 # b3lyp 6-31G(2df,p) opt Freq
 -----------------------------

 -----
 titel
 -----
 Symbolic Z-matrix:
 Charge =  0 Multiplicity = 1

 SCF Done:  E(RB3LYP) =  -423.212437976     A.U. after   14 cycles
 Optimization completed.
    -- Stationary point found.
 Normal termination of Gaussian 09 at Mon Jan 27 14:05:17 2020.

 ----------------------------------------------------------------------
 #N Geom=AllCheck Guess=TCheck SCRF=Check GenChk RB3LYP/6-31G(2df,p) Fr
 eq
 ----------------------------------------------------------------------

 Structure from the checkpoint file:  "/scratch/puck/g09_9bf9463c-f76b-472c-8a7b-001edf68eaa0/Gau-31249.chk"
 -----
 titel
 -----
 Charge =  0 Multiplicity = 1

                         Standard orientation:
 ---------------------------------------------------------------------
 Center     Atomic      Atomic             Coordinates (Angstroms)
 Number     Number       Type             X           Y           Z
 ---------------------------------------------------------------------
      1          6           0        1.479130   -1.482256    0.919942
      2          6           0        1.313359   -0.326880   -0.052995
      3          8           0        2.231057    0.045352   -0.749680
      4          6           0        0.000042    0.419180    0.000003
      5          6           0        0.063325    1.747698    0.743473
      6          6           0       -0.062799    1.747735   -0.743500
      7          6           0       -1.313407   -0.326586    0.052948
      8          6           0       -1.479575   -1.481979   -0.919945
      9          8           0       -2.230982    0.045812    0.749719
     10          1           0        0.608829   -2.142574    0.950282
     11          1           0        2.376798   -2.049354    0.670845
     12          1           0        1.591058   -1.066185    1.928682
     13          1           0       -0.811867    1.979294    1.339045
     14          1           0        1.019779    2.023047    1.173355
     15          1           0       -1.019276    2.023408   -1.173128
     16          1           0        0.812318    1.979049   -1.339272
     17          1           0       -2.377340   -2.048860   -0.670662
     18          1           0       -1.591818   -1.065966   -1.928670
     19          1           0       -0.609532   -2.142650   -0.950350
 ---------------------------------------------------------------------

 SCF Done:  E(RB3LYP) =  -423.212437976     A.U. after    1 cycles

 The electronic state is 1-A.
 Alpha  occ. eigenvalues --  -19.13617 -19.13617 -10.28094 -10.28094 -10.21287
 Alpha  occ. eigenvalues --  -10.20415 -10.20387 -10.19687 -10.19687  -1.04995
 Alpha  occ. eigenvalues --   -1.04619  -0.87774  -0.76713  -0.74602  -0.65929
 Alpha  occ. eigenvalues --   -0.61555  -0.58510  -0.51412  -0.50289  -0.48486
 Alpha  occ. eigenvalues --   -0.45254  -0.44981  -0.43944  -0.43335  -0.42582
 Alpha  occ. eigenvalues --   -0.41150  -0.38659  -0.38100  -0.37013  -0.36387
 Alpha  occ. eigenvalues --   -0.32272  -0.29931  -0.26488  -0.24686
 Alpha virt. eigenvalues --   -0.02575  -0.02392   0.08012   0.10244   0.12141
 Alpha virt. eigenvalues --    0.12202   0.13075   0.14521   0.15727   0.16682
 Alpha virt. eigenvalues --    0.16773   0.19151   0.19263   0.21973   0.22834

 Mulliken charges:
               1
     1  C   -0.483851
     2  C    0.284205
     3  O   -0.303606
     4  C    0.165824
     5  C   -0.295531
     6  C   -0.295533
     7  C    0.284173
     8  C   -0.483867
     9  O   -0.303607
    10  H    0.136869
    11  H    0.146309
    12  H    0.154904
    13  H    0.147781
    14  H    0.130034
    15  H    0.130029
    16  H    0.147786
    17  H    0.146319
    18  H    0.154900
    19  H    0.136863
 Sum of Mulliken charges =   0.00000

 Dipole moment (field-independent basis, Debye):
    X=             -0.0003    Y=             -1.0470    Z=              0.0000  Tot=              1.0470
 Quadrupole moment (field-independent basis, Debye-Ang):
   XX=            -63.2505   YY=            -49.2126   ZZ=            -52.7348
   XY=              0.0014   XZ=              7.7195   YZ=             -0.0008

  Exact polarizability:  80.957   0.001  80.066  -2.660   0.000  68.844
 Approx polarizability: 122.635   0.000 110.986 -16.411   0.001 110.224

                      1                      2                      3
                      A                      A                      A
 Frequencies --     34.6306                74.5226                89.6198
 Red. masses --      2.9496                 3.1895                 1.2138
 Frc consts  --      0.0021                 0.0104                 0.0057
 IR Inten    --      5.9841                 2.4790                 0.4730

                      4                      5                      6
                      A                      A                      A
 Frequencies --    110.8549               199.9483               200.7337
 Red. masses --      1.3044                 3.4530                 2.5330
 Frc consts  --      0.0094                 0.0813                 0.0601
 IR Inten    --      1.7587                 5.3592                 0.7299

                      7                      8                      9
                      A                      A                      A
 Frequencies --    255.8259               264.2366               394.1511
 Red. masses --      2.1036                 3.7260                 3.5769
 Frc consts  --      0.0811                 0.1533                 0.3274
 IR Inten    --      0.4001                 3.3608                 9.8037

                     10                     11                     12
                      A                      A                      A
 Frequencies --    404.3723               447.0285               597.5469
 Red. masses --      3.0878                 6.5480                 3.7046
 Frc consts  --      0.2975                 0.7710                 0.7794
 IR Inten    --      2.5047                 0.4445                17.4080

                     13                     14                     15
                      A                      A                      A
 Frequencies --    599.3919               615.3388               641.4809
 Red. masses --      2.4634                 2.5353                 3.3750
 Frc consts  --      0.5214                 0.5656                 0.8183
 IR Inten    --      5.7600                 1.1023                 1.2544

                     16                     17                     18
                      A                      A                      A
 Frequencies --    797.3207               848.1956               869.6013
 Red. masses --      1.0821                 1.8101                 4.3756
 Frc consts  --      0.4053                 0.7672                 1.9495
 IR Inten    --      0.4365                 6.4437                11.7330

                     19                     20                     21
                      A                      A                      A
 Frequencies --    917.1544               943.0905               981.0891
 Red. masses --      2.9270                 1.4964                 1.9560
 Frc consts  --      1.4506                 0.7841                 1.1093
 IR Inten    --      2.2608                11.0431                15.3479

                     22                     23                     24
                      A                      A                      A
 Frequencies --   1016.5747              1049.1732              1056.6679
 Red. masses --      1.6501                 2.0379                 1.6059
 Frc consts  --      1.0047                 1.3217                 1.0564
 IR Inten    --     18.5985                 8.0125                 1.4929

                     25                     26                     27
                      A                      A                      A
 Frequencies --   1063.0159              1099.6408              1130.8766
 Red. masses --      1.3763                 1.3860                 2.1493
 Frc consts  --      0.9163                 0.9875                 1.6195
 IR Inten    --      0.0763                 1.7782                62.3067

                     28                     29                     30
                      A                      A                      A
 Frequencies --   1175.3721              1204.8836              1297.3895
 Red. masses --      2.9956                 1.3008                 3.3615
 Frc consts  --      2.4383                 1.1126                 3.3337
 IR Inten    --     57.2216                 0.0050                44.6707

                     31                     32                     33
                      A                      A                      A
 Frequencies --   1321.8038              1383.7078              1391.2426
 Red. masses --      3.7265                 1.2936                 1.2943
 Frc consts  --      3.8360                 1.4593                 1.4760
 IR Inten    --    102.6695                39.6227                36.4087

                     34                     35                     36
                      A                      A                      A
 Frequencies --   1453.3192              1459.9585              1468.6840
 Red. masses --      1.0867                 1.0524                 1.0584
 Frc consts  --      1.3524                 1.3216                 1.3452
 IR Inten    --      5.9927                13.6541                 0.8433

                     37                     38                     39
                      A                      A                      A
 Frequencies --   1476.0803              1478.5762              1482.2556
 Red. masses --      1.0600                 1.0548                 1.2824
 Frc consts  --      1.3607                 1.3587                 1.6601
 IR Inten    --      3.8280                12.5661                 0.0242

                     40                     41                     42
                      A                      A                      A
 Frequencies --   1781.9627              1804.9951              3041.2907
 Red. masses --     11.5816                10.7060                 1.0394
 Frc consts  --     21.6679                20.5509                 5.6644
 IR Inten    --    304.4428                 4.8057                 2.1645

                     43                     44                     45
                      A                      A                      A
 Frequencies --   3042.7570              3106.3412              3111.1226
 Red. masses --      1.0406                 1.0941                 1.0915
 Frc consts  --      5.6764                 6.2202                 6.2245
 IR Inten    --      0.5561                 5.6759                12.2766

                     46                     47                     48
                      A                      A                      A
 Frequencies --   3142.0654              3142.4130              3154.7628
 Red. masses --      1.0572                 1.0492                 1.1035
 Frc consts  --      6.1497                 6.1044                 6.4707
 IR Inten    --      6.3419                 9.9567                16.9150

                     49                     50                     51
                      A                      A                      A
 Frequencies --   3157.2256              3231.9863              3244.5165
 Red. masses --      1.1038                 1.1191                 1.1168
 Frc consts  --      6.4829                 6.8873                 6.9266
 IR Inten    --      1.1482                 0.0664                 0.4705

 - Thermochemistry -
 -------------------
 Temperature   298.150 Kelvin.  Pressure   1.00000 Atm.
 Atom     1 has atomic number  6 and mass  12.00000

 Molecular mass:   126.06808 amu.
 Principal axes and moments of inertia in atomic units:
                           1         2         3
     Eigenvalues --   837.645151221.847261576.01256
           X            0.99868   0.00003   0.05134
           Y           -0.00003   1.00000  -0.00001
           Z           -0.05134   0.00001   0.99868
 This molecule is an asymmetric top.
 Rotational symmetry number  1.
 Warning -- assumption of classical behavior for rotation
           may cause significant error
 Rotational temperatures (Kelvin)      0.10340     0.07089     0.05496
 Rotational constants (GHZ):           2.15454     1.47706     1.14513
 Zero-point vibrational energy     408266.3 (Joules/Mol)
                                   97.57799 (Kcal/Mol)
 Warning -- explicit consideration of  14 degrees of freedom as
           vibrations may cause significant error
 Vibrational temperatures:     49.83   107.22   128.94   159.50   287.68
          (Kelvin)            288.81   368.08   380.18   567.09   581.80
                              643.17   859.74   862.39   885.33   922.95
                             1147.17  1220.36  1251.16  1319.58  1356.90
                             1411.57  1462.62  1509.52  1520.31  1529.44
                             1582.14  1627.08  1691.10  1733.56  1866.65
                             1901.78  1990.84  2001.69  2091.00  2100.55
                             2113.11  2123.75  2127.34  2132.63  2563.84
                             2596.98  4375.73  4377.84  4469.33  4476.21
                             4520.73  4521.23  4538.99  4542.54  4650.10
                             4668.13

 Zero-point correction=                           0.155500 (Hartree/Particle)
 Thermal correction to Energy=                    0.165638
 Thermal correction to Enthalpy=                  0.166582
 Thermal correction to Gibbs Free Energy=         0.119361
 Sum of electronic and zero-point Energies=           -423.056938
 Sum of electronic and thermal Energies=              -423.046800
 Sum of electronic and thermal Enthalpies=            -423.045856
 Sum of electronic and thermal Free Energies=         -423.093077

                     E (Thermal)             CV                S
                      KCal/Mol        Cal/Mol-Kelvin    Cal/Mol-Kelvin
 Total                  103.939             35.732             99.386
 Electronic               0.000              0.000              0.000
 Translational            0.889              2.981             40.409
 Rotational               0.889              2.981             28.869
 Vibrational            102.162             29.770             30.109
 Vibration     1          0.594              1.983              5.545
 Vibration     2          0.599              1.966              4.030
 Vibration     3          0.602              1.957              3.668
 Vibration     4          0.607              1.940              3.254
 Vibration     5          0.638              1.840              2.134
 Vibration     6          0.638              1.839              2.126
 Vibration     7          0.666              1.753              1.690
 Vibration     8          0.671              1.739              1.634
 Vibration     9          0.761              1.483              0.984
 Vibration    10          0.770              1.461              0.947
 Vibration    11          0.806              1.367              0.805
 Vibration    12          0.955              1.037              0.454
 Vibration    13          0.957              1.033              0.451
 Vibration    14          0.975              0.999              0.424

 Optimization completed.
    -- Stationary point found.
 Normal termination of Gaussian 09 at Mon Jan 27 14:50:35 2020.
