 Gaussian 09, Revision D.01,
 Gaussian 09:  ES64L-G09RevD.01 24-Apr-2013

 -----------------------------
 # b3lyp 6-31G(2df,p) opt Freq
 -----------------------------

 -----
 titel
 -----
 Symbolic Z-matrix:
 Charge =  0 Multiplicity = 1

 SCF Done:  E(RB3LYP) =  -423.129778928     A.U. after   13 cycles
 Optimization completed.
    -- Stationary point found.
 Normal termination of Gaussian 09 at Mon Jan 27 18:49:43 2020.

 ----------------------------------------------------------------------
 #N Geom=AllCheck Guess=TCheck SCRF=Check GenChk RB3LYP/6-31G(2df,p) Fr
 eq
 ----------------------------------------------------------------------

 Structure from the checkpoint file:  "/scratch/puck/g09_c66fa39f-dcf0-4990-a221-4ffd513ee680/Gau-172611.chk"
 -----
 titel
 -----
 Charge =  0 Multiplicity = 1

                         Standard orientation:
 ---------------------------------------------------------------------
 Center     Atomic      Atomic             Coordinates (Angstroms)
 Number     Number       Type             X           Y           Z
 ---------------------------------------------------------------------
      1          6           0       -0.477036    2.066832   -0.320453
      2          6           0       -0.457730    0.591498   -0.037782
      3          8           0       -1.294361    0.213041    1.083142
      4          6           0       -1.894698   -0.875735    0.335687
      5          6           0       -1.009260   -0.583984   -0.883285
      6          8           0        0.257366   -1.266544   -0.847865
      7          6           0        0.846045   -0.206601   -0.074572
      8          6           0        1.840105   -0.458105    1.002139
      9          6           0        2.256646    0.232317   -0.291712
     10          1           0        0.102394    2.299664   -1.218289
     11          1           0       -1.502785    2.420315   -0.456034
     12          1           0       -0.042546    2.617439    0.521954
     13          1           0       -1.730313   -1.853731    0.799866
     14          1           0       -2.968274   -0.706073    0.184236
     15          1           0       -1.443127   -0.540039   -1.883121
     16          1           0        1.768685    0.127599    1.912598
     17          1           0        2.160618   -1.484583    1.143320
     18          1           0        2.483137    1.293467   -0.267536
     19          1           0        2.843746   -0.343369   -0.999341
 ---------------------------------------------------------------------

 SCF Done:  E(RB3LYP) =  -423.129778928     A.U. after    1 cycles

 The electronic state is 1-A.
 Alpha  occ. eigenvalues --  -19.14059 -19.13413 -10.24383 -10.23757 -10.23719
 Alpha  occ. eigenvalues --  -10.22914 -10.18684 -10.18553 -10.18442  -1.06932
 Alpha  occ. eigenvalues --   -1.01214  -0.85021  -0.76042  -0.71672  -0.65944
 Alpha  occ. eigenvalues --   -0.60656  -0.60096  -0.51707  -0.51265  -0.49163
 Alpha  occ. eigenvalues --   -0.48574  -0.45268  -0.43347  -0.41364  -0.40774
 Alpha  occ. eigenvalues --   -0.39048  -0.37221  -0.35914  -0.35027  -0.32967
 Alpha  occ. eigenvalues --   -0.30196  -0.28195  -0.25172  -0.23025
 Alpha virt. eigenvalues --    0.06380   0.08814   0.09658   0.11699   0.12285
 Alpha virt. eigenvalues --    0.12702   0.13782   0.14612   0.16012   0.16809
 Alpha virt. eigenvalues --    0.17720   0.18107   0.19846   0.20625   0.22574

 Mulliken charges:
               1
     1  C   -0.487942
     2  C    0.282859
     3  O   -0.325358
     4  C   -0.105700
     5  C    0.019646
     6  O   -0.328685
     7  C    0.431683
     8  C   -0.326185
     9  C   -0.346983
    10  H    0.128787
    11  H    0.128202
    12  H    0.132523
    13  H    0.113512
    14  H    0.102243
    15  H    0.090466
    16  H    0.124507
    17  H    0.125515
    18  H    0.115489
    19  H    0.125422
 Sum of Mulliken charges =   0.00000

 Dipole moment (field-independent basis, Debye):
    X=             -0.2086    Y=              0.9671    Z=             -0.8396  Tot=              1.2976
 Quadrupole moment (field-independent basis, Debye-Ang):
   XX=            -50.3905   YY=            -52.4487   ZZ=            -54.8385
   XY=              2.0274   XZ=              2.9989   YZ=             -2.1164

  Exact polarizability:  86.472   3.592  72.913   1.533  -2.150  66.460
 Approx polarizability: 114.012   4.736 103.818   0.514   0.807 102.853

                      1                      2                      3
                      A                      A                      A
 Frequencies --     89.4508               185.8524               193.2400
 Red. masses --      3.3584                 1.3443                 2.2600
 Frc consts  --      0.0158                 0.0274                 0.0497
 IR Inten    --      2.0854                 0.1069                 2.1627

                      4                      5                      6
                      A                      A                      A
 Frequencies --    210.5870               244.1687               327.4886
 Red. masses --      1.9734                 2.4447                 2.5434
 Frc consts  --      0.0516                 0.0859                 0.1607
 IR Inten    --      0.5207                 1.9415                 0.4552

                      7                      8                      9
                      A                      A                      A
 Frequencies --    396.2409               416.0866               500.1778
 Red. masses --      3.6069                 2.5215                 3.8867
 Frc consts  --      0.3337                 0.2572                 0.5729
 IR Inten    --      5.9047                 2.5295                 3.3369

                     10                     11                     12
                      A                      A                      A
 Frequencies --    577.0100               636.8646               753.3640
 Red. masses --      3.9453                 3.2238                 1.1499
 Frc consts  --      0.7739                 0.7704                 0.3845
 IR Inten    --      1.1110                 1.8118                 3.3397

                     13                     14                     15
                      A                      A                      A
 Frequencies --    792.7210               840.5662               858.5763
 Red. masses --      3.1606                 2.1757                 1.8168
 Frc consts  --      1.1702                 0.9057                 0.7891
 IR Inten    --      4.0339                10.8638                 6.2745

                     16                     17                     18
                      A                      A                      A
 Frequencies --    876.0699               887.7840               916.5185
 Red. masses --      1.8861                 1.4136                 2.5239
 Frc consts  --      0.8529                 0.6564                 1.2491
 IR Inten    --     31.0598                 2.9068                16.5517

                     19                     20                     21
                      A                      A                      A
 Frequencies --    976.1791               979.6709               996.9332
 Red. masses --      2.6786                 4.3087                 8.0897
 Frc consts  --      1.5039                 2.4365                 4.7371
 IR Inten    --      1.3255                19.2251                83.2308

                     22                     23                     24
                      A                      A                      A
 Frequencies --   1037.8307              1048.3583              1065.1647
 Red. masses --      2.2729                 1.7542                 1.4890
 Frc consts  --      1.4424                 1.1359                 0.9954
 IR Inten    --     25.6652                41.0566                 0.5589

                     25                     26                     27
                      A                      A                      A
 Frequencies --   1077.9790              1141.8981              1149.0643
 Red. masses --      2.4088                 2.4603                 1.7823
 Frc consts  --      1.6492                 1.8902                 1.3865
 IR Inten    --     40.4258                28.7390                 4.0558

                     28                     29                     30
                      A                      A                      A
 Frequencies --   1160.4974              1176.5774              1184.9406
 Red. masses --      1.5417                 1.6163                 1.2774
 Frc consts  --      1.2233                 1.3183                 1.0567
 IR Inten    --      6.9411                14.4441                 0.0396

                     31                     32                     33
                      A                      A                      A
 Frequencies --   1227.7489              1288.8368              1328.7376
 Red. masses --      2.6842                 2.2078                 1.4701
 Frc consts  --      2.3839                 2.1608                 1.5293
 IR Inten    --     56.5188                20.3389                 1.2815

                     34                     35                     36
                      A                      A                      A
 Frequencies --   1352.1786              1392.3332              1412.4065
 Red. masses --      1.7733                 1.7977                 1.6798
 Frc consts  --      1.9103                 2.0534                 1.9744
 IR Inten    --      2.8302                 3.5309                14.8821

                     37                     38                     39
                      A                      A                      A
 Frequencies --   1448.6323              1479.3587              1488.6383
 Red. masses --      1.0909                 1.0549                 1.0656
 Frc consts  --      1.3488                 1.3602                 1.3914
 IR Inten    --      2.2813                 2.5717                 3.2971

                     40                     41                     42
                      A                      A                      A
 Frequencies --   1497.3030              1503.6766              3017.7689
 Red. masses --      1.7215                 1.1097                 1.0588
 Frc consts  --      2.2739                 1.4783                 5.6810
 IR Inten    --     15.7619                 1.0958                68.9388

                     43                     44                     45
                      A                      A                      A
 Frequencies --   3035.7911              3080.2884              3103.0913
 Red. masses --      1.0367                 1.1067                 1.0971
 Frc consts  --      5.6290                 6.1869                 6.2245
 IR Inten    --     11.9062                23.8592                 0.1909

                     46                     47                     48
                      A                      A                      A
 Frequencies --   3104.2376              3123.1390              3127.5078
 Red. masses --      1.0922                 1.1018                 1.0532
 Frc consts  --      6.2009                 6.3319                 6.0698
 IR Inten    --     63.4893                14.0425                11.6637

                     49                     50                     51
                      A                      A                      A
 Frequencies --   3133.2117              3211.9745              3226.6186
 Red. masses --      1.0553                 1.1181                 1.1154
 Frc consts  --      6.1040                 6.7961                 6.8417
 IR Inten    --      5.2126                 0.6588                 7.4651

 - Thermochemistry -
 -------------------
 Temperature   298.150 Kelvin.  Pressure   1.00000 Atm.
 Atom     1 has atomic number  6 and mass  12.00000

 Molecular mass:   126.06808 amu.
 Principal axes and moments of inertia in atomic units:
                           1         2         3
     Eigenvalues --   688.192821087.683571295.55636
           X            0.99961   0.01907   0.02045
           Y           -0.01742   0.99682  -0.07780
           Z           -0.02187   0.07741   0.99676
 This molecule is an asymmetric top.
 Rotational symmetry number  1.
 Warning -- assumption of classical behavior for rotation
           may cause significant error
 Rotational temperatures (Kelvin)      0.12586     0.07963     0.06685
 Rotational constants (GHZ):           2.62244     1.65925     1.39302
 Zero-point vibrational energy     414394.4 (Joules/Mol)
                                   99.04265 (Kcal/Mol)
 Warning -- explicit consideration of  10 degrees of freedom as
           vibrations may cause significant error
 Vibrational temperatures:    128.70   267.40   278.03   302.99   351.30
          (Kelvin)            471.18   570.10   598.66   719.64   830.19
                              916.30  1083.92  1140.55  1209.39  1235.30
                             1260.47  1277.32  1318.66  1404.50  1409.53
                             1434.36  1493.21  1508.35  1532.53  1550.97
                             1642.93  1653.25  1669.69  1692.83  1704.86
                             1766.45  1854.35  1911.75  1945.48  2003.25
                             2032.14  2084.26  2128.46  2141.82  2154.28
                             2163.45  4341.89  4367.82  4431.84  4464.65
                             4466.30  4493.49  4499.78  4507.99  4621.31
                             4642.38

 Zero-point correction=                           0.157835 (Hartree/Particle)
 Thermal correction to Energy=                    0.166038
 Thermal correction to Enthalpy=                  0.166982
 Thermal correction to Gibbs Free Energy=         0.125315
 Sum of electronic and zero-point Energies=           -422.971944
 Sum of electronic and thermal Energies=              -422.963741
 Sum of electronic and thermal Enthalpies=            -422.962797
 Sum of electronic and thermal Free Energies=         -423.004464

                     E (Thermal)             CV                S
                      KCal/Mol        Cal/Mol-Kelvin    Cal/Mol-Kelvin
 Total                  104.190             31.934             87.696
 Electronic               0.000              0.000              0.000
 Translational            0.889              2.981             40.409
 Rotational               0.889              2.981             28.363
 Vibrational            102.413             25.972             18.925
 Vibration     1          0.602              1.957              3.672
 Vibration     2          0.632              1.859              2.269
 Vibration     3          0.635              1.849              2.197
 Vibration     4          0.643              1.825              2.039
 Vibration     5          0.659              1.772              1.772
 Vibration     6          0.711              1.621              1.272
 Vibration     7          0.763              1.478              0.977
 Vibration     8          0.779              1.435              0.905
 Vibration     9          0.856              1.250              0.658
 Vibration    10          0.933              1.081              0.491

 Normal termination of Gaussian 09 at Mon Jan 27 19:33:06 2020.
