 Gaussian 09, Revision D.01,
 Gaussian 09:  ES64L-G09RevD.01 24-Apr-2013

 -----------------------------
 # b3lyp 6-31G(2df,p) opt Freq
 -----------------------------

 -----
 titel
 -----
 Symbolic Z-matrix:
 Charge =  0 Multiplicity = 1

 SCF Done:  E(RB3LYP) =  -423.161650220     A.U. after   14 cycles
 Optimization completed.
    -- Stationary point found.
 Normal termination of Gaussian 09 at Tue Jan 28 14:14:45 2020.

 ----------------------------------------------------------------------
 #N Geom=AllCheck Guess=TCheck SCRF=Check GenChk RB3LYP/6-31G(2df,p) Fr
 eq
 ----------------------------------------------------------------------

 Structure from the checkpoint file:  "/scratch/puck/g09_dbdb3958-4f8b-4744-abbb-456b65f3b641/Gau-98580.chk"
 -----
 titel
 -----
 Charge =  0 Multiplicity = 1

                         Standard orientation:
 ---------------------------------------------------------------------
 Center     Atomic      Atomic             Coordinates (Angstroms)
 Number     Number       Type             X           Y           Z
 ---------------------------------------------------------------------
      1          8           0        3.579352   -0.157534   -0.407762
      2          6           0        2.354317   -0.408937    0.259278
      3          6           0        1.252574    0.579148   -0.133946
      4          6           0       -0.106927    0.278816    0.523282
      5          6           0       -1.117529    1.397293    0.333235
      6          6           0       -2.197923    1.009745   -0.349302
      7          6           0       -2.111542   -0.448115   -0.656734
      8          8           0       -2.053533   -1.276920    0.530142
      9          6           0       -0.828401   -0.918191   -0.104193
     10          1           0        3.875459    0.723702   -0.157793
     11          1           0        2.075433   -1.430379   -0.020601
     12          1           0        2.482861   -0.403063    1.354404
     13          1           0        1.569284    1.591585    0.153027
     14          1           0        1.147480    0.585405   -1.225401
     15          1           0        0.050128    0.094682    1.595980
     16          1           0       -0.953157    2.388160    0.743623
     17          1           0       -3.045293    1.630437   -0.612009
     18          1           0       -2.612167   -0.900513   -1.507144
     19          1           0       -0.263989   -1.742939   -0.532844
 ---------------------------------------------------------------------

 SCF Done:  E(RB3LYP) =  -423.161650220     A.U. after    1 cycles

 The electronic state is 1-A.
 Alpha  occ. eigenvalues --  -19.14579 -19.13698 -10.23571 -10.23387 -10.23051
 Alpha  occ. eigenvalues --  -10.20046 -10.19104 -10.18960 -10.18703  -1.06681
 Alpha  occ. eigenvalues --   -1.01826  -0.83192  -0.76781  -0.69398  -0.66180
 Alpha  occ. eigenvalues --   -0.62508  -0.57085  -0.55055  -0.52777  -0.50664
 Alpha  occ. eigenvalues --   -0.46419  -0.44489  -0.43353  -0.40920  -0.40229
 Alpha  occ. eigenvalues --   -0.39190  -0.37117  -0.37008  -0.35050  -0.32321
 Alpha  occ. eigenvalues --   -0.30669  -0.27233  -0.26063  -0.24609
 Alpha virt. eigenvalues --   -0.00094   0.07045   0.09446   0.11033   0.11816
 Alpha virt. eigenvalues --    0.12623   0.13108   0.15355   0.15565   0.16595
 Alpha virt. eigenvalues --    0.16839   0.17374   0.19894   0.20544   0.22408

 Mulliken charges:
               1
     1  O   -0.416638
     2  C   -0.061951
     3  C   -0.220898
     4  C   -0.074381
     5  C   -0.089373
     6  C   -0.095405
     7  C   -0.000496
     8  O   -0.262529
     9  C    0.039771
    10  H    0.280951
    11  H    0.116055
    12  H    0.089065
    13  H    0.087263
    14  H    0.111506
    15  H    0.096997
    16  H    0.101011
    17  H    0.104285
    18  H    0.097452
    19  H    0.097312
 Sum of Mulliken charges =   0.00000

 Dipole moment (field-independent basis, Debye):
    X=              0.4149    Y=              2.1008    Z=             -0.2467  Tot=              2.1555
 Quadrupole moment (field-independent basis, Debye-Ang):
   XX=            -57.6095   YY=            -51.8218   ZZ=            -53.6592
   XY=              1.5924   XZ=              7.2457   YZ=              2.3709

  Exact polarizability:  93.744   0.361  73.611   8.685   3.077  61.043
 Approx polarizability: 128.320   5.547 110.652  13.964   3.623 100.008

                      1                      2                      3
                      A                      A                      A
 Frequencies --     84.8105                92.2028               111.9562
 Red. masses --      3.9237                 2.1431                 3.5830
 Frc consts  --      0.0166                 0.0107                 0.0265
 IR Inten    --      2.3637                 4.3337                 0.3549

                      4                      5                      6
                      A                      A                      A
 Frequencies --    214.8174               294.3841               322.3802
 Red. masses --      2.9556                 1.4717                 2.6984
 Frc consts  --      0.0804                 0.0751                 0.1652
 IR Inten    --      0.3269                61.6014                22.1176

                      7                      8                      9
                      A                      A                      A
 Frequencies --    338.5680               397.6332               477.8726
 Red. masses --      2.8876                 4.1401                 3.1914
 Frc consts  --      0.1950                 0.3857                 0.4294
 IR Inten    --     33.3158                11.1970                 6.5759

                     10                     11                     12
                      A                      A                      A
 Frequencies --    608.3939               703.9226               757.6706
 Red. masses --      3.5380                 3.2322                 1.4318
 Frc consts  --      0.7716                 0.9436                 0.4843
 IR Inten    --      8.7275                 4.2437                12.8343

                     13                     14                     15
                      A                      A                      A
 Frequencies --    781.3908               798.8482               848.6552
 Red. masses --      1.8038                 3.2204                 3.5074
 Frc consts  --      0.6489                 1.2108                 1.4883
 IR Inten    --      3.2827                 3.9532                33.8752

                     16                     17                     18
                      A                      A                      A
 Frequencies --    859.2485               900.8267               951.9235
 Red. masses --      2.2735                 2.4037                 1.4493
 Frc consts  --      0.9890                 1.1493                 0.7738
 IR Inten    --     18.3032                 7.9122                 2.7983

                     19                     20                     21
                      A                      A                      A
 Frequencies --    977.7705               981.8256              1026.4420
 Red. masses --      2.2515                 2.2575                 1.7049
 Frc consts  --      1.2682                 1.2822                 1.0583
 IR Inten    --      1.3544                 4.4201                21.9643

                     22                     23                     24
                      A                      A                      A
 Frequencies --   1050.6920              1067.0381              1080.4938
 Red. masses --      2.2340                 2.0656                 4.3051
 Frc consts  --      1.4531                 1.3857                 2.9613
 IR Inten    --      9.5750                50.1342                79.5017

                     25                     26                     27
                      A                      A                      A
 Frequencies --   1094.8604              1112.1195              1136.7682
 Red. masses --      1.9128                 1.5160                 1.1865
 Frc consts  --      1.3510                 1.1047                 0.9034
 IR Inten    --      8.8912                 0.9717                 1.3574

                     28                     29                     30
                      A                      A                      A
 Frequencies --   1170.7707              1242.7336              1251.5721
 Red. masses --      1.2250                 1.3122                 1.4912
 Frc consts  --      0.9893                 1.1940                 1.3762
 IR Inten    --      6.7229                 1.8984                 5.5139

                     31                     32                     33
                      A                      A                      A
 Frequencies --   1285.0174              1303.1963              1335.4527
 Red. masses --      1.3470                 1.3167                 1.3216
 Frc consts  --      1.3105                 1.3175                 1.3887
 IR Inten    --      4.0091                 3.7799                 2.6197

                     34                     35                     36
                      A                      A                      A
 Frequencies --   1339.3612              1376.7180              1396.5357
 Red. masses --      1.3833                 1.8442                 1.3286
 Frc consts  --      1.4621                 2.0594                 1.5266
 IR Inten    --      1.1459                 6.0236                 9.6578

                     37                     38                     39
                      A                      A                      A
 Frequencies --   1408.7708              1425.4756              1485.9895
 Red. masses --      2.6894                 1.2846                 1.0819
 Frc consts  --      3.1448                 1.5380                 1.4075
 IR Inten    --     13.4391                41.3282                 1.6254

                     40                     41                     42
                      A                      A                      A
 Frequencies --   1512.9505              1660.0918              2968.3391
 Red. masses --      1.0930                 6.3319                 1.0717
 Frc consts  --      1.4741                10.2813                 5.5636
 IR Inten    --      0.3976                 3.5025                52.3632

                     43                     44                     45
                      A                      A                      A
 Frequencies --   3008.4811              3011.4884              3060.2119
 Red. masses --      1.0812                 1.0650                 1.0896
 Frc consts  --      5.7657                 5.6906                 6.0120
 IR Inten    --     15.4827                25.6844                14.9188

                     46                     47                     48
                      A                      A                      A
 Frequencies --   3077.7983              3139.1300              3166.2368
 Red. masses --      1.0977                 1.0892                 1.0923
 Frc consts  --      6.1263                 6.3240                 6.4518
 IR Inten    --     43.2240                21.3842                27.1171

                     49                     50                     51
                      A                      A                      A
 Frequencies --   3184.0393              3219.0197              3813.2967
 Red. masses --      1.0878                 1.1023                 1.0661
 Frc consts  --      6.4978                 6.7295                 9.1338
 IR Inten    --     10.1224                13.4099                17.2508

 - Thermochemistry -
 -------------------
 Temperature   298.150 Kelvin.  Pressure   1.00000 Atm.
 Atom     1 has atomic number  8 and mass  15.99491

 Molecular mass:   126.06808 amu.
 Principal axes and moments of inertia in atomic units:
                           1         2         3
     Eigenvalues --   458.882572028.783702281.23399
           X            0.99990  -0.00569   0.01315
           Y            0.00530   0.99956   0.02910
           Z           -0.01331  -0.02902   0.99949
 This molecule is an asymmetric top.
 Rotational symmetry number  1.
 Warning -- assumption of classical behavior for rotation
           may cause significant error
 Rotational temperatures (Kelvin)      0.18875     0.04269     0.03797
 Rotational constants (GHZ):           3.93290     0.88957     0.79112
 Zero-point vibrational energy     418191.7 (Joules/Mol)
                                   99.95021 (Kcal/Mol)
 Warning -- explicit consideration of  10 degrees of freedom as
           vibrations may cause significant error
 Vibrational temperatures:    122.02   132.66   161.08   309.07   423.55
          (Kelvin)            463.83   487.12   572.10   687.55   875.34
                             1012.79  1090.12  1124.25  1149.36  1221.02
                             1236.27  1296.09  1369.60  1406.79  1412.63
                             1476.82  1511.71  1535.23  1554.59  1575.26
                             1600.09  1635.55  1684.48  1788.01  1800.73
                             1848.85  1875.01  1921.42  1927.04  1980.79
                             2009.30  2026.90  2050.94  2138.00  2176.80
                             2388.50  4270.77  4328.53  4332.85  4402.96
                             4428.26  4516.50  4555.50  4581.12  4631.45
                             5486.48

 Zero-point correction=                           0.159281 (Hartree/Particle)
 Thermal correction to Energy=                    0.167771
 Thermal correction to Enthalpy=                  0.168715
 Thermal correction to Gibbs Free Energy=         0.125560
 Sum of electronic and zero-point Energies=           -423.002369
 Sum of electronic and thermal Energies=              -422.993879
 Sum of electronic and thermal Enthalpies=            -422.992935
 Sum of electronic and thermal Free Energies=         -423.036090

                     E (Thermal)             CV                S
                      KCal/Mol        Cal/Mol-Kelvin    Cal/Mol-Kelvin
 Total                  105.278             31.919             90.828
 Electronic               0.000              0.000              0.000
 Translational            0.889              2.981             40.409
 Rotational               0.889              2.981             29.142
 Vibrational            103.501             25.957             21.277
 Vibration     1          0.601              1.960              3.776
 Vibration     2          0.602              1.955              3.613
 Vibration     3          0.607              1.940              3.235
 Vibration     4          0.645              1.818              2.002
 Vibration     5          0.689              1.684              1.449
 Vibration     6          0.707              1.631              1.298
 Vibration     7          0.719              1.598              1.219
 Vibration     8          0.764              1.475              0.971
 Vibration     9          0.834              1.299              0.716
 Vibration    10          0.967              1.014              0.435

 Normal termination of Gaussian 09 at Tue Jan 28 14:58:40 2020.
