 Gaussian 09, Revision D.01,
 Gaussian 09:  ES64L-G09RevD.01 24-Apr-2013

 -----------------------------
 # b3lyp 6-31G(2df,p) opt Freq
 -----------------------------

 -----
 titel
 -----
 Symbolic Z-matrix:
 Charge =  0 Multiplicity = 1

 SCF Done:  E(RB3LYP) =  -423.165984644     A.U. after   14 cycles
 Optimization completed.
    -- Stationary point found.
 Normal termination of Gaussian 09 at Mon Jan 27 12:51:57 2020.

 ----------------------------------------------------------------------
 #N Geom=AllCheck Guess=TCheck SCRF=Check GenChk RB3LYP/6-31G(2df,p) Fr
 eq
 ----------------------------------------------------------------------

 Structure from the checkpoint file:  "/scratch/puck/g09_6160ad51-60ff-4b40-8ffe-aa79237d4b7e/Gau-44588.chk"
 -----
 titel
 -----
 Charge =  0 Multiplicity = 1

                         Standard orientation:
 ---------------------------------------------------------------------
 Center     Atomic      Atomic             Coordinates (Angstroms)
 Number     Number       Type             X           Y           Z
 ---------------------------------------------------------------------
      1          8           0       -0.405394   -1.368483    0.625539
      2          6           0       -0.330620   -0.365669   -0.049155
      3          6           0       -1.511477    0.499368   -0.338362
      4          6           0       -2.848673   -0.204145   -0.538289
      5          6           0       -2.606927    0.562616    0.715003
      6          6           0        0.988549    0.121192   -0.638604
      7          6           0        1.712146    1.198361    0.220479
      8          6           0        2.786696    0.103636    0.388010
      9          8           0        2.070320   -0.798820   -0.480290
     10          1           0       -1.327519    1.391654   -0.927522
     11          1           0       -3.515059    0.206700   -1.287784
     12          1           0       -2.818780   -1.285874   -0.476577
     13          1           0       -3.105834    1.514812    0.853531
     14          1           0       -2.416021   -0.006626    1.617568
     15          1           0        0.834061    0.397245   -1.691576
     16          1           0        2.029337    2.084228   -0.330420
     17          1           0        1.193228    1.502243    1.130834
     18          1           0        3.780792    0.345074   -0.005173
     19          1           0        2.888210   -0.303170    1.400632
 ---------------------------------------------------------------------

 SCF Done:  E(RB3LYP) =  -423.165984644     A.U. after    1 cycles

 The electronic state is 1-A.
 Alpha  occ. eigenvalues --  -19.13495 -19.12313 -10.26192 -10.24247 -10.23512
 Alpha  occ. eigenvalues --  -10.20232 -10.20192 -10.19924 -10.19840  -1.05101
 Alpha  occ. eigenvalues --   -1.02700  -0.86590  -0.75877  -0.72262  -0.64863
 Alpha  occ. eigenvalues --   -0.60828  -0.57462  -0.53111  -0.52012  -0.49903
 Alpha  occ. eigenvalues --   -0.47955  -0.45691  -0.44516  -0.41775  -0.39995
 Alpha  occ. eigenvalues --   -0.39026  -0.38115  -0.36830  -0.33535  -0.31448
 Alpha  occ. eigenvalues --   -0.30968  -0.29479  -0.26578  -0.23466
 Alpha virt. eigenvalues --   -0.01597   0.07985   0.08481   0.10121   0.11073
 Alpha virt. eigenvalues --    0.11701   0.12797   0.14199   0.14999   0.16631
 Alpha virt. eigenvalues --    0.17990   0.18438   0.20895   0.21685   0.22487

 Mulliken charges:
               1
     1  O   -0.324569
     2  C    0.353535
     3  C   -0.111932
     4  C   -0.245776
     5  C   -0.250556
     6  C    0.036077
     7  C   -0.292121
     8  C   -0.059531
     9  O   -0.265258
    10  H    0.086679
    11  H    0.119359
    12  H    0.141747
    13  H    0.117976
    14  H    0.139839
    15  H    0.091926
    16  H    0.118052
    17  H    0.122337
    18  H    0.106375
    19  H    0.115838
 Sum of Mulliken charges =   0.00000

 Dipole moment (field-independent basis, Debye):
    X=             -0.5057    Y=              3.6971    Z=             -0.5775  Tot=              3.7759
 Quadrupole moment (field-independent basis, Debye-Ang):
   XX=            -48.6817   YY=            -56.1423   ZZ=            -52.0504
   XY=              2.1488   XZ=              2.8717   YZ=              0.4266

  Exact polarizability:  96.566   0.173  68.439   2.004  -2.504  65.925
 Approx polarizability: 117.242  -0.898 109.885   1.656  -7.315 102.587

                      1                      2                      3
                      A                      A                      A
 Frequencies --     35.5891                53.9861                76.4893
 Red. masses --      4.1962                 2.9266                 2.1737
 Frc consts  --      0.0031                 0.0050                 0.0075
 IR Inten    --      1.6982                 1.1644                 0.2763

                      4                      5                      6
                      A                      A                      A
 Frequencies --    166.6002               224.5644               271.3994
 Red. masses --      4.3842                 3.0872                 3.1781
 Frc consts  --      0.0717                 0.0917                 0.1379
 IR Inten    --      0.8797                 2.0261                 1.7929

                      7                      8                      9
                      A                      A                      A
 Frequencies --    309.1464               360.5251               641.7991
 Red. masses --      5.9350                 4.9174                 3.4907
 Frc consts  --      0.3342                 0.3766                 0.8472
 IR Inten    --      5.1498                 2.3963                 9.2360

                     10                     11                     12
                      A                      A                      A
 Frequencies --    720.1702               764.2166               798.7377
 Red. masses --      3.2781                 1.4389                 1.1687
 Frc consts  --      1.0017                 0.4951                 0.4393
 IR Inten    --      3.2584                 0.9995                 0.0347

                     13                     14                     15
                      A                      A                      A
 Frequencies --    809.4178               830.7987               833.2728
 Red. masses --      1.9551                 1.8860                 2.5426
 Frc consts  --      0.7547                 0.7670                 1.0402
 IR Inten    --      1.7213                 2.4323                 2.4805

                     16                     17                     18
                      A                      A                      A
 Frequencies --    890.6280               897.6683               951.4073
 Red. masses --      2.2568                 3.3372                 2.8549
 Frc consts  --      1.0547                 1.5844                 1.5226
 IR Inten    --      2.0105                 2.4348                30.3051

                     19                     20                     21
                      A                      A                      A
 Frequencies --    960.7489              1028.2006              1043.8780
 Red. masses --      2.6903                 3.5127                 4.9169
 Frc consts  --      1.4631                 2.1880                 3.1568
 IR Inten    --     14.8019               155.5467               119.3781

                     22                     23                     24
                      A                      A                      A
 Frequencies --   1069.4647              1081.4517              1098.2750
 Red. masses --      1.3367                 1.9655                 1.4237
 Frc consts  --      0.9008                 1.3544                 1.0118
 IR Inten    --     27.7764                 2.7128                 1.9656

                     25                     26                     27
                      A                      A                      A
 Frequencies --   1109.4629              1128.3408              1135.7928
 Red. masses --      1.5032                 1.1238                 2.8663
 Frc consts  --      1.0902                 0.8430                 2.1786
 IR Inten    --      2.9814                 1.9532                11.7709

                     28                     29                     30
                      A                      A                      A
 Frequencies --   1163.2217              1210.2109              1212.0521
 Red. masses --      1.1731                 1.3227                 1.2937
 Frc consts  --      0.9352                 1.1413                 1.1198
 IR Inten    --      0.1026                 0.6820                 0.3169

                     31                     32                     33
                      A                      A                      A
 Frequencies --   1222.8365              1251.0061              1257.4921
 Red. masses --      2.0635                 1.4102                 1.3250
 Frc consts  --      1.8180                 1.3004                 1.2344
 IR Inten    --     10.4087                 2.5562                 2.6306

                     34                     35                     36
                      A                      A                      A
 Frequencies --   1340.9975              1366.0037              1408.7035
 Red. masses --      1.3667                 1.4100                 1.9203
 Frc consts  --      1.4480                 1.5501                 2.2452
 IR Inten    --      3.0741                14.5792                49.3633

                     37                     38                     39
                      A                      A                      A
 Frequencies --   1453.8840              1485.3629              1490.6093
 Red. masses --      1.0888                 1.3575                 1.0991
 Frc consts  --      1.3560                 1.7647                 1.4389
 IR Inten    --      2.6018                 9.4345                 1.6574

                     40                     41                     42
                      A                      A                      A
 Frequencies --   1528.8433              1799.7473              3001.3469
 Red. masses --      1.1091                11.1280                 1.0828
 Frc consts  --      1.5274                21.2368                 5.7469
 IR Inten    --      2.8005               104.7772                55.6939

                     43                     44                     45
                      A                      A                      A
 Frequencies --   3026.5926              3068.9683              3084.4406
 Red. masses --      1.0561                 1.1118                 1.0589
 Frc consts  --      5.6996                 6.1697                 5.9355
 IR Inten    --     67.3902                29.9357                20.0496

                     46                     47                     48
                      A                      A                      A
 Frequencies --   3140.7422              3141.6765              3142.4679
 Red. masses --      1.0506                 1.1091                 1.0564
 Frc consts  --      6.1060                 6.4496                 6.1466
 IR Inten    --     11.9723                20.1794                11.4723

                     49                     50                     51
                      A                      A                      A
 Frequencies --   3164.6741              3228.7333              3243.1654
 Red. masses --      1.0893                 1.1190                 1.1170
 Frc consts  --      6.4275                 6.8728                 6.9222
 IR Inten    --      9.7193                 0.3905                 5.2906

 - Thermochemistry -
 -------------------
 Temperature   298.150 Kelvin.  Pressure   1.00000 Atm.
 Atom     1 has atomic number  8 and mass  15.99491

 Molecular mass:   126.06808 amu.
 Principal axes and moments of inertia in atomic units:
                           1         2         3
     Eigenvalues --   428.230491880.149142018.33672
           X            0.99994   0.00732   0.00857
           Y           -0.00738   0.99995   0.00734
           Z           -0.00852  -0.00740   0.99994
 This molecule is an asymmetric top.
 Rotational symmetry number  1.
 Rotational temperatures (Kelvin)      0.20226     0.04607     0.04291
 Rotational constants (GHZ):           4.21442     0.95989     0.89417
 Zero-point vibrational energy     417053.0 (Joules/Mol)
                                   99.67805 (Kcal/Mol)
 Warning -- explicit consideration of   8 degrees of freedom as
           vibrations may cause significant error
 Vibrational temperatures:     51.20    77.67   110.05   239.70   323.10
          (Kelvin)            390.48   444.79   518.71   923.40  1036.16
                             1099.54  1149.20  1164.57  1195.33  1198.89
                             1281.41  1291.54  1368.86  1382.30  1479.35
                             1501.91  1538.72  1555.97  1580.17  1596.27
                             1623.43  1634.15  1673.61  1741.22  1743.87
                             1759.39  1799.92  1809.25  1929.39  1965.37
                             2026.81  2091.81  2137.10  2144.65  2199.66
                             2589.43  4318.26  4354.59  4415.56  4437.82
                             4518.82  4520.17  4521.30  4553.25  4645.42
                             4666.19

 Zero-point correction=                           0.158847 (Hartree/Particle)
 Thermal correction to Energy=                    0.167683
 Thermal correction to Enthalpy=                  0.168627
 Thermal correction to Gibbs Free Energy=         0.123512
 Sum of electronic and zero-point Energies=           -423.007138
 Sum of electronic and thermal Energies=              -422.998301
 Sum of electronic and thermal Enthalpies=            -422.997357
 Sum of electronic and thermal Free Energies=         -423.042473

                     E (Thermal)             CV                S
                      KCal/Mol        Cal/Mol-Kelvin    Cal/Mol-Kelvin
 Total                  105.223             31.506             94.953
 Electronic               0.000              0.000              0.000
 Translational            0.889              2.981             40.409
 Rotational               0.889              2.981             28.876
 Vibrational            103.445             25.545             25.669
 Vibration     1          0.594              1.982              5.491
 Vibration     2          0.596              1.976              4.666
 Vibration     3          0.599              1.965              3.979
 Vibration     4          0.624              1.884              2.473
 Vibration     5          0.649              1.804              1.922
 Vibration     6          0.675              1.726              1.587
 Vibration     7          0.698              1.656              1.367
 Vibration     8          0.735              1.554              1.120

 Optimization completed.
    -- Stationary point found.
 Normal termination of Gaussian 09 at Mon Jan 27 13:27:20 2020.
