 Gaussian 09, Revision D.01,
 Gaussian 09:  ES64L-G09RevD.01 24-Apr-2013

 -----------------------------
 # b3lyp 6-31G(2df,p) opt Freq
 -----------------------------

 -----
 titel
 -----
 Symbolic Z-matrix:
 Charge =  0 Multiplicity = 1

 SCF Done:  E(RB3LYP) =  -423.117719535     A.U. after   13 cycles
 Optimization completed.
    -- Stationary point found.
 Normal termination of Gaussian 09 at Mon Jan 27 22:50:04 2020.

 ----------------------------------------------------------------------
 #N Geom=AllCheck Guess=TCheck SCRF=Check GenChk RB3LYP/6-31G(2df,p) Fr
 eq
 ----------------------------------------------------------------------

 Structure from the checkpoint file:  "/scratch/puck/g09_87820306-277e-4f34-acbd-07c2b5e2cb51/Gau-82733.chk"
 -----
 titel
 -----
 Charge =  0 Multiplicity = 1

                         Standard orientation:
 ---------------------------------------------------------------------
 Center     Atomic      Atomic             Coordinates (Angstroms)
 Number     Number       Type             X           Y           Z
 ---------------------------------------------------------------------
      1          6           0       -2.357620   -1.100932   -0.378264
      2          6           0       -0.884710   -0.750391   -0.315088
      3          6           0       -0.310267   -0.440652    1.052323
      4          6           0        1.207796   -0.196787    0.957116
      5          8           0        1.945837   -0.961362   -0.036957
      6          6           0        1.885373    0.135096   -0.986383
      7          6           0        0.993072    0.959072   -0.036611
      8          6           0       -0.529949    0.674021    0.019120
      9          8           0       -1.469012    1.690049    0.060540
     10          1           0       -2.763673   -0.918879   -1.380172
     11          1           0       -2.513133   -2.159757   -0.148449
     12          1           0       -2.941420   -0.507413    0.330173
     13          1           0       -0.258421   -1.315024   -1.000055
     14          1           0       -0.857296   -0.677181    1.957609
     15          1           0        1.749715   -0.101897    1.900513
     16          1           0        2.880367    0.566321   -1.151454
     17          1           0        1.459706   -0.169103   -1.950362
     18          1           0        1.261642    1.987644    0.197744
     19          1           0       -1.854250    1.789225   -0.817480
 ---------------------------------------------------------------------

 SCF Done:  E(RB3LYP) =  -423.117719535     A.U. after    1 cycles

 The electronic state is 1-A.
 Alpha  occ. eigenvalues --  -19.15298 -19.12854 -10.24311 -10.23198 -10.22735
 Alpha  occ. eigenvalues --  -10.19297 -10.18880 -10.18567 -10.18095  -1.04124
 Alpha  occ. eigenvalues --   -1.02928  -0.87688  -0.75472  -0.70737  -0.66920
 Alpha  occ. eigenvalues --   -0.60742  -0.57743  -0.52836  -0.51064  -0.49835
 Alpha  occ. eigenvalues --   -0.47547  -0.44824  -0.43225  -0.41355  -0.40602
 Alpha  occ. eigenvalues --   -0.37981  -0.37194  -0.36730  -0.33459  -0.32356
 Alpha  occ. eigenvalues --   -0.28867  -0.26249  -0.24492  -0.24090
 Alpha virt. eigenvalues --    0.06721   0.07126   0.10155   0.10781   0.12201
 Alpha virt. eigenvalues --    0.13597   0.14576   0.14749   0.16703   0.17214
 Alpha virt. eigenvalues --    0.18434   0.18630   0.18908   0.20995   0.21785

 Mulliken charges:
               1
     1  C   -0.437163
     2  C   -0.089613
     3  C   -0.135188
     4  C    0.105018
     5  O   -0.298981
     6  C   -0.112589
     7  C   -0.144728
     8  C    0.364307
     9  O   -0.459998
    10  H    0.110858
    11  H    0.124188
    12  H    0.130709
    13  H    0.101385
    14  H    0.087163
    15  H    0.080420
    16  H    0.101831
    17  H    0.098376
    18  H    0.086365
    19  H    0.287639
 Sum of Mulliken charges =   0.00000

 Dipole moment (field-independent basis, Debye):
    X=             -0.9650    Y=              0.9434    Z=             -1.1144  Tot=              1.7501
 Quadrupole moment (field-independent basis, Debye-Ang):
   XX=            -53.6675   YY=            -55.9138   ZZ=            -49.3803
   XY=              4.3525   XZ=              2.3285   YZ=             -2.7357

  Exact polarizability:  84.450   4.090  68.265   0.591  -1.452  71.015
 Approx polarizability: 109.340  -0.771 106.076   1.121  -3.270 110.361

                      1                      2                      3
                      A                      A                      A
 Frequencies --    160.6830               176.9925               199.7761
 Red. masses --      2.0265                 1.5608                 2.5539
 Frc consts  --      0.0308                 0.0288                 0.0601
 IR Inten    --     23.1256                 5.2220                 1.5843

                      4                      5                      6
                      A                      A                      A
 Frequencies --    227.1103               235.7417               296.5657
 Red. masses --      1.7066                 1.6715                 2.3978
 Frc consts  --      0.0519                 0.0547                 0.1243
 IR Inten    --     14.1111                70.3371                 0.7206

                      7                      8                      9
                      A                      A                      A
 Frequencies --    333.7020               417.1657               473.6770
 Red. masses --      3.8480                 5.3725                 2.4051
 Frc consts  --      0.2525                 0.5509                 0.3179
 IR Inten    --      5.1784                 2.4408                 2.6816

                     10                     11                     12
                      A                      A                      A
 Frequencies --    568.2830               663.6421               694.1822
 Red. masses --      3.6040                 4.1049                 3.7256
 Frc consts  --      0.6858                 1.0652                 1.0578
 IR Inten    --      6.9960                 1.6550                 4.5307

                     13                     14                     15
                      A                      A                      A
 Frequencies --    781.9618               825.6541               857.6728
 Red. masses --      2.8715                 3.4769                 1.6393
 Frc consts  --      1.0345                 1.3965                 0.7105
 IR Inten    --     19.0568                 2.2956                11.6532

                     16                     17                     18
                      A                      A                      A
 Frequencies --    905.0073               920.3366               941.3313
 Red. masses --      2.2068                 1.9192                 2.1880
 Frc consts  --      1.0649                 0.9578                 1.1423
 IR Inten    --     22.6957                15.3946                 2.0608

                     19                     20                     21
                      A                      A                      A
 Frequencies --    970.0466               975.6422               989.5782
 Red. masses --      2.0633                 1.7824                 3.1061
 Frc consts  --      1.1439                 0.9996                 1.7921
 IR Inten    --      8.9090                10.3355                65.6857

                     22                     23                     24
                      A                      A                      A
 Frequencies --   1037.5917              1048.5150              1080.2181
 Red. masses --      2.8912                 1.6107                 2.1647
 Frc consts  --      1.8339                 1.0433                 1.4882
 IR Inten    --     16.7703                18.6036                15.1247

                     25                     26                     27
                      A                      A                      A
 Frequencies --   1114.3870              1142.9467              1159.3265
 Red. masses --      2.4879                 1.6942                 1.2471
 Frc consts  --      1.8204                 1.3039                 0.9876
 IR Inten    --      3.6156                 3.1126                 1.7554

                     28                     29                     30
                      A                      A                      A
 Frequencies --   1171.2565              1182.5600              1221.1539
 Red. masses --      1.5809                 2.0358                 1.9192
 Frc consts  --      1.2778                 1.6774                 1.6862
 IR Inten    --     13.5677                19.8999                31.0250

                     31                     32                     33
                      A                      A                      A
 Frequencies --   1233.0288              1277.1454              1299.2840
 Red. masses --      1.5743                 1.6572                 1.4315
 Frc consts  --      1.4102                 1.5926                 1.4238
 IR Inten    --      2.0242                 4.3555                26.5373

                     34                     35                     36
                      A                      A                      A
 Frequencies --   1304.4884              1344.5529              1379.1761
 Red. masses --      1.3273                 1.4573                 1.8179
 Frc consts  --      1.3307                 1.5523                 2.0373
 IR Inten    --     54.8575                 8.9122                 4.1661

                     37                     38                     39
                      A                      A                      A
 Frequencies --   1415.2581              1437.0562              1495.7104
 Red. masses --      1.4009                 2.5231                 1.0471
 Frc consts  --      1.6533                 3.0699                 1.3802
 IR Inten    --      1.0620                21.4044                 3.2228

                     40                     41                     42
                      A                      A                      A
 Frequencies --   1506.4741              1516.1357              3013.4691
 Red. masses --      1.0860                 1.0996                 1.0546
 Frc consts  --      1.4522                 1.4893                 5.6425
 IR Inten    --      7.0095                 0.1541                75.1430

                     43                     44                     45
                      A                      A                      A
 Frequencies --   3031.4228              3057.2698              3085.6707
 Red. masses --      1.0381                 1.1110                 1.0892
 Frc consts  --      5.6206                 6.1184                 6.1103
 IR Inten    --     37.0605                37.5455                46.5537

                     46                     47                     48
                      A                      A                      A
 Frequencies --   3090.1450              3116.3507              3132.4331
 Red. masses --      1.0985                 1.0991                 1.0900
 Frc consts  --      6.1801                 6.2893                 6.3017
 IR Inten    --     21.7169                 7.4752                23.0769

                     49                     50                     51
                      A                      A                      A
 Frequencies --   3146.8345              3180.4615              3785.5648
 Red. masses --      1.0886                 1.0931                 1.0663
 Frc consts  --      6.3512                 6.5149                 9.0032
 IR Inten    --     16.2171                13.0972                19.5521

 - Thermochemistry -
 -------------------
 Temperature   298.150 Kelvin.  Pressure   1.00000 Atm.
 Atom     1 has atomic number  6 and mass  12.00000

 Molecular mass:   126.06808 amu.
 Principal axes and moments of inertia in atomic units:
                           1         2         3
     Eigenvalues --   612.641521235.124781452.26912
           X            0.99810   0.06159   0.00324
           Y           -0.06159   0.99810  -0.00185
           Z           -0.00334   0.00165   0.99999
 This molecule is an asymmetric top.
 Rotational symmetry number  1.
 Warning -- assumption of classical behavior for rotation
           may cause significant error
 Rotational temperatures (Kelvin)      0.14138     0.07013     0.05964
 Rotational constants (GHZ):           2.94584     1.46118     1.24270
 Zero-point vibrational energy     416423.9 (Joules/Mol)
                                   99.52770 (Kcal/Mol)
 Warning -- explicit consideration of  10 degrees of freedom as
           vibrations may cause significant error
 Vibrational temperatures:    231.19   254.65   287.43   326.76   339.18
          (Kelvin)            426.69   480.12   600.21   681.51   817.63
                              954.83   998.77  1125.07  1187.93  1234.00
                             1302.10  1324.16  1354.36  1395.68  1403.73
                             1423.78  1492.86  1508.58  1554.19  1603.35
                             1644.44  1668.01  1685.17  1701.44  1756.97
                             1774.05  1837.53  1869.38  1876.87  1934.51
                             1984.32  2036.24  2067.60  2151.99  2167.48
                             2181.38  4335.70  4361.54  4398.72  4439.59
                             4446.02  4483.73  4506.87  4527.59  4575.97
                             5446.58

 Zero-point correction=                           0.158607 (Hartree/Particle)
 Thermal correction to Energy=                    0.166801
 Thermal correction to Enthalpy=                  0.167745
 Thermal correction to Gibbs Free Energy=         0.126334
 Sum of electronic and zero-point Energies=           -422.959112
 Sum of electronic and thermal Energies=              -422.950919
 Sum of electronic and thermal Enthalpies=            -422.949974
 Sum of electronic and thermal Free Energies=         -422.991386

                     E (Thermal)             CV                S
                      KCal/Mol        Cal/Mol-Kelvin    Cal/Mol-Kelvin
 Total                  104.669             32.122             87.158
 Electronic               0.000              0.000              0.000
 Translational            0.889              2.981             40.409
 Rotational               0.889              2.981             28.487
 Vibrational            102.892             26.160             18.262
 Vibration     1          0.622              1.891              2.542
 Vibration     2          0.628              1.871              2.360
 Vibration     3          0.638              1.840              2.135
 Vibration     4          0.651              1.800              1.902
 Vibration     5          0.655              1.786              1.835
 Vibration     6          0.690              1.680              1.436
 Vibration     7          0.715              1.608              1.242
 Vibration     8          0.780              1.433              0.902
 Vibration     9          0.830              1.308              0.727
 Vibration    10          0.924              1.100              0.508

 Optimization completed.
    -- Stationary point found.
 Normal termination of Gaussian 09 at Mon Jan 27 23:35:51 2020.
