 Gaussian 09, Revision D.01,
 Gaussian 09:  ES64L-G09RevD.01 24-Apr-2013

 -----------------------------
 # b3lyp 6-31G(2df,p) opt Freq
 -----------------------------

 -----
 titel
 -----
 Symbolic Z-matrix:
 Charge =  0 Multiplicity = 1

 SCF Done:  E(RB3LYP) =  -423.103338162     A.U. after   12 cycles
 Optimization completed.
    -- Stationary point found.
 Normal termination of Gaussian 09 at Mon Jan 27 23:03:41 2020.

 ----------------------------------------------------------------------
 #N Geom=AllCheck Guess=TCheck SCRF=Check GenChk RB3LYP/6-31G(2df,p) Fr
 eq
 ----------------------------------------------------------------------

 Structure from the checkpoint file:  "/scratch/puck/g09_9ee4a750-f592-4937-8014-ea0ecc42f7a9/Gau-29544.chk"
 -----
 titel
 -----
 Charge =  0 Multiplicity = 1

                         Standard orientation:
 ---------------------------------------------------------------------
 Center     Atomic      Atomic             Coordinates (Angstroms)
 Number     Number       Type             X           Y           Z
 ---------------------------------------------------------------------
      1          8           0       -1.581900   -1.659007   -0.092430
      2          6           0       -1.690944   -0.260919   -0.005724
      3          6           0       -0.748009    0.539710    0.950955
      4          6           0       -0.998960    1.748667    0.004150
      5          6           0       -0.754153    0.536468   -0.943453
      6          6           0        0.417979    0.149717    0.002064
      7          6           0        1.189316   -1.177302    0.002467
      8          8           0        2.453597   -0.475320    0.004631
      9          6           0        1.806723    0.811729   -0.000900
     10          1           0       -2.075470   -2.047822    0.636264
     11          1           0       -2.740578    0.062846   -0.003470
     12          1           0       -0.742337    0.539786    2.042707
     13          1           0       -2.004886    2.177430    0.004774
     14          1           0       -0.235377    2.527796    0.000082
     15          1           0       -0.755208    0.531011   -2.034254
     16          1           0        1.065131   -1.802787    0.894339
     17          1           0        1.064519   -1.803064   -0.888026
     18          1           0        2.059846    1.404581    0.889060
     19          1           0        2.059079    1.396423   -0.896432
 ---------------------------------------------------------------------

 SCF Done:  E(RB3LYP) =  -423.103338162     A.U. after    1 cycles

 The electronic state is 1-A.
 Alpha  occ. eigenvalues --  -19.14722 -19.11980 -10.24330 -10.21979 -10.21444
 Alpha  occ. eigenvalues --  -10.20237 -10.20148 -10.19995 -10.19595  -1.03419
 Alpha  occ. eigenvalues --   -1.02434  -0.91080  -0.70913  -0.68687  -0.65516
 Alpha  occ. eigenvalues --   -0.63604  -0.59227  -0.52709  -0.51500  -0.50347
 Alpha  occ. eigenvalues --   -0.47095  -0.46522  -0.42703  -0.40606  -0.39266
 Alpha  occ. eigenvalues --   -0.38099  -0.36262  -0.33079  -0.32812  -0.31262
 Alpha  occ. eigenvalues --   -0.30063  -0.28726  -0.26533  -0.23586
 Alpha virt. eigenvalues --    0.07022   0.09144   0.10405   0.11355   0.12347
 Alpha virt. eigenvalues --    0.13697   0.13901   0.14900   0.15625   0.16725
 Alpha virt. eigenvalues --    0.17402   0.19032   0.19192   0.19729   0.21871

 Mulliken charges:
               1
     1  O   -0.434928
     2  C    0.149593
     3  C   -0.176917
     4  C   -0.245398
     5  C   -0.146158
     6  C    0.381366
     7  C   -0.168378
     8  O   -0.283035
     9  C   -0.175625
    10  H    0.286857
    11  H    0.066066
    12  H    0.071015
    13  H    0.093128
    14  H    0.107628
    15  H    0.078105
    16  H    0.094228
    17  H    0.108113
    18  H    0.096668
    19  H    0.097673
 Sum of Mulliken charges =   0.00000

 Dipole moment (field-independent basis, Debye):
    X=             -2.7082    Y=              0.8703    Z=              1.0307  Tot=              3.0256
 Quadrupole moment (field-independent basis, Debye-Ang):
   XX=            -57.1966   YY=            -51.6843   ZZ=            -51.4371
   XY=              3.3882   XZ=             -2.6049   YZ=             -2.7016

  Exact polarizability:  79.498   1.055  79.946  -0.885  -1.098  65.963
 Approx polarizability: 108.876   1.665 115.416  -1.283  -0.829 104.015

                      1                      2                      3
                      A                      A                      A
 Frequencies --    101.4056               181.1148               202.9121
 Red. masses --      3.3636                 4.9818                 2.3365
 Frc consts  --      0.0204                 0.0963                 0.0567
 IR Inten    --      3.0416                 0.0552                 3.5129

                      4                      5                      6
                      A                      A                      A
 Frequencies --    269.1530               324.1763               335.6952
 Red. masses --      1.1194                 3.8650                 2.0245
 Frc consts  --      0.0478                 0.2393                 0.1344
 IR Inten    --    100.2255                 6.5722                 1.4096

                      7                      8                      9
                      A                      A                      A
 Frequencies --    384.2377               465.7443               555.8306
 Red. masses --      3.0331                 4.5129                 2.8107
 Frc consts  --      0.2638                 0.5768                 0.5116
 IR Inten    --      4.4992                 5.4379                 0.9790

                     10                     11                     12
                      A                      A                      A
 Frequencies --    649.3712               774.6525               782.3743
 Red. masses --      4.7266                 2.5882                 2.6930
 Frc consts  --      1.1743                 0.9151                 0.9712
 IR Inten    --      2.6022                 0.2474                 0.8348

                     13                     14                     15
                      A                      A                      A
 Frequencies --    862.7994               884.3443               888.0976
 Red. masses --      4.0090                 2.2086                 2.1598
 Frc consts  --      1.7583                 1.0177                 1.0037
 IR Inten    --     15.4707                 6.7212                 7.4842

                     16                     17                     18
                      A                      A                      A
 Frequencies --    899.3460               960.1967               980.4104
 Red. masses --      2.1776                 1.3026                 3.8973
 Frc consts  --      1.0377                 0.7076                 2.2072
 IR Inten    --      1.3059                 0.0801                15.3371

                     19                     20                     21
                      A                      A                      A
 Frequencies --   1017.8646              1022.8363              1031.5094
 Red. masses --      1.5300                 1.0595                10.7249
 Frc consts  --      0.9340                 0.6531                 6.7234
 IR Inten    --     21.8804                 1.7605                72.1127

                     22                     23                     24
                      A                      A                      A
 Frequencies --   1073.2819              1081.1923              1103.8237
 Red. masses --      3.5435                 1.5576                 1.3446
 Frc consts  --      2.4050                 1.0728                 0.9653
 IR Inten    --     12.9429                 1.7642                 0.7358

                     25                     26                     27
                      A                      A                      A
 Frequencies --   1141.7210              1149.4465              1153.5766
 Red. masses --      1.5593                 3.0157                 3.7499
 Frc consts  --      1.1976                 2.3476                 2.9401
 IR Inten    --      2.6398                35.5600                27.8159

                     28                     29                     30
                      A                      A                      A
 Frequencies --   1156.7775              1180.4498              1196.0388
 Red. masses --      1.0813                 1.3706                 1.5405
 Frc consts  --      0.8525                 1.1252                 1.2983
 IR Inten    --      0.2603                 3.5386                13.8818

                     31                     32                     33
                      A                      A                      A
 Frequencies --   1201.5097              1228.2280              1250.0298
 Red. masses --      2.0177                 1.6405                 1.8916
 Frc consts  --      1.7162                 1.4581                 1.7415
 IR Inten    --     27.0268                28.0662                24.3892

                     34                     35                     36
                      A                      A                      A
 Frequencies --   1299.4013              1303.9417              1321.2795
 Red. masses --      1.6967                 1.3155                 1.7060
 Frc consts  --      1.6878                 1.3178                 1.7548
 IR Inten    --     25.6630                 0.4985                24.7245

                     37                     38                     39
                      A                      A                      A
 Frequencies --   1389.2199              1436.2106              1505.6597
 Red. masses --      1.9361                 1.3242                 1.0822
 Frc consts  --      2.2015                 1.6093                 1.4455
 IR Inten    --      0.3597                 8.9917                 0.9833

                     40                     41                     42
                      A                      A                      A
 Frequencies --   1519.3928              1530.7129              2991.1375
 Red. masses --      1.1337                 1.1120                 1.0539
 Frc consts  --      1.5420                 1.5351                 5.5556
 IR Inten    --      1.9478                 0.2170                81.7440

                     43                     44                     45
                      A                      A                      A
 Frequencies --   3010.5879              3025.1149              3029.8303
 Red. masses --      1.0842                 1.0578                 1.1101
 Frc consts  --      5.7900                 5.7033                 6.0040
 IR Inten    --     69.7823                38.7417                42.4304

                     46                     47                     48
                      A                      A                      A
 Frequencies --   3059.7959              3068.5041              3095.2023
 Red. masses --      1.0562                 1.1096                 1.0908
 Frc consts  --      5.8262                 6.1554                 6.1573
 IR Inten    --     44.6808                32.7342                72.2181

                     49                     50                     51
                      A                      A                      A
 Frequencies --   3108.6835              3130.1420              3822.6589
 Red. masses --      1.0928                 1.1087                 1.0662
 Frc consts  --      6.2223                 6.4001                 9.1795
 IR Inten    --     29.4241                30.4332                33.4050

 - Thermochemistry -
 -------------------
 Temperature   298.150 Kelvin.  Pressure   1.00000 Atm.
 Atom     1 has atomic number  8 and mass  15.99491

 Molecular mass:   126.06808 amu.
 Principal axes and moments of inertia in atomic units:
                           1         2         3
     Eigenvalues --   632.146981128.349021520.25304
           X            0.99999   0.00131  -0.00527
           Y           -0.00137   0.99993  -0.01148
           Z            0.00525   0.01148   0.99992
 This molecule is an asymmetric top.
 Rotational symmetry number  1.
 Warning -- assumption of classical behavior for rotation
           may cause significant error
 Rotational temperatures (Kelvin)      0.13702     0.07676     0.05697
 Rotational constants (GHZ):           2.85494     1.59945     1.18713
 Zero-point vibrational energy     419516.2 (Joules/Mol)
                                  100.26677 (Kcal/Mol)
 Warning -- explicit consideration of   9 degrees of freedom as
           vibrations may cause significant error
 Vibrational temperatures:    145.90   260.58   291.94   387.25   466.42
          (Kelvin)            482.99   552.83   670.10   799.72   934.30
                             1114.55  1125.66  1241.37  1272.37  1277.77
                             1293.96  1381.51  1410.59  1464.48  1471.63
                             1484.11  1544.21  1555.59  1588.15  1642.68
                             1653.80  1659.74  1664.34  1698.40  1720.83
                             1728.70  1767.14  1798.51  1869.55  1876.08
                             1901.02  1998.78  2066.38  2166.31  2186.06
                             2202.35  4303.57  4331.56  4352.46  4359.24
                             4402.36  4414.89  4453.30  4472.70  4503.57
                             5499.95

 Zero-point correction=                           0.159785 (Hartree/Particle)
 Thermal correction to Energy=                    0.167506
 Thermal correction to Enthalpy=                  0.168451
 Thermal correction to Gibbs Free Energy=         0.127688
 Sum of electronic and zero-point Energies=           -422.943553
 Sum of electronic and thermal Energies=              -422.935832
 Sum of electronic and thermal Enthalpies=            -422.934888
 Sum of electronic and thermal Free Energies=         -422.975650

                     E (Thermal)             CV                S
                      KCal/Mol        Cal/Mol-Kelvin    Cal/Mol-Kelvin
 Total                  105.112             30.475             85.792
 Electronic               0.000              0.000              0.000
 Translational            0.889              2.981             40.409
 Rotational               0.889              2.981             28.474
 Vibrational            103.334             24.513             16.909
 Vibration     1          0.604              1.948              3.427
 Vibration     2          0.630              1.865              2.317
 Vibration     3          0.639              1.836              2.107
 Vibration     4          0.674              1.730              1.602
 Vibration     5          0.709              1.627              1.289
 Vibration     6          0.717              1.604              1.233
 Vibration     7          0.753              1.504              1.022
 Vibration     8          0.823              1.326              0.750
 Vibration     9          0.911              1.127              0.532

 Optimization completed.
    -- Stationary point found.
 Normal termination of Gaussian 09 at Mon Jan 27 23:52:16 2020.
