 Gaussian 09, Revision D.01,
 Gaussian 09:  ES64L-G09RevD.01 24-Apr-2013

 -----------------------------
 # b3lyp 6-31G(2df,p) opt Freq
 -----------------------------

 -----
 titel
 -----
 Symbolic Z-matrix:
 Charge =  0 Multiplicity = 1

 SCF Done:  E(RB3LYP) =  -423.226775559     A.U. after   14 cycles
 Optimization completed.
    -- Stationary point found.
 Normal termination of Gaussian 09 at Tue Jan 28 00:05:17 2020.

 ----------------------------------------------------------------------
 #N Geom=AllCheck Guess=TCheck SCRF=Check GenChk RB3LYP/6-31G(2df,p) Fr
 eq
 ----------------------------------------------------------------------

 Structure from the checkpoint file:  "/scratch/puck/g09_f0149fc4-68bb-4c25-8d7d-6063f28633d7/Gau-84037.chk"
 -----
 titel
 -----
 Charge =  0 Multiplicity = 1

                         Standard orientation:
 ---------------------------------------------------------------------
 Center     Atomic      Atomic             Coordinates (Angstroms)
 Number     Number       Type             X           Y           Z
 ---------------------------------------------------------------------
      1          6           0       -2.820350   -0.479141   -0.410412
      2          6           0       -1.382778   -0.009840   -0.434014
      3          6           0       -0.807128    0.744261    0.725848
      4          6           0        0.277397    1.778904    0.520486
      5          6           0        1.243781    1.358607   -0.584122
      6          8           0        1.779324    0.040056   -0.405644
      7          6           0        1.019625   -0.984615    0.071295
      8          8           0        1.518161   -2.074518    0.170339
      9          6           0       -0.380223   -0.693906    0.491583
     10          1           0       -3.135684   -0.733131    0.606787
     11          1           0       -3.492585    0.301548   -0.782788
     12          1           0       -2.957709   -1.367869   -1.034731
     13          1           0       -1.018562    0.250765   -1.422885
     14          1           0       -1.468215    0.914979    1.570720
     15          1           0       -0.145588    2.755399    0.255302
     16          1           0        0.834056    1.909931    1.456038
     17          1           0        0.764042    1.417274   -1.568515
     18          1           0        2.114543    2.018103   -0.608351
     19          1           0       -0.776122   -1.476927    1.126875
 ---------------------------------------------------------------------

 SCF Done:  E(RB3LYP) =  -423.226775559     A.U. after    1 cycles

 The electronic state is 1-A.
 Alpha  occ. eigenvalues --  -19.17264 -19.10701 -10.29783 -10.25002 -10.21314
 Alpha  occ. eigenvalues --  -10.21072 -10.20490 -10.20455 -10.19191  -1.08665
 Alpha  occ. eigenvalues --   -1.00484  -0.88869  -0.78122  -0.73132  -0.67296
 Alpha  occ. eigenvalues --   -0.64451  -0.59061  -0.52989  -0.52302  -0.49485
 Alpha  occ. eigenvalues --   -0.47313  -0.44087  -0.43439  -0.43036  -0.41763
 Alpha  occ. eigenvalues --   -0.40784  -0.38923  -0.37892  -0.36615  -0.32631
 Alpha  occ. eigenvalues --   -0.30442  -0.29857  -0.28009  -0.25267
 Alpha virt. eigenvalues --    0.01536   0.08134   0.08355   0.10323   0.12025
 Alpha virt. eigenvalues --    0.12934   0.14206   0.14664   0.15719   0.16117
 Alpha virt. eigenvalues --    0.17182   0.17580   0.19619   0.20128   0.20997

 Mulliken charges:
               1
     1  C   -0.423441
     2  C   -0.021171
     3  C   -0.049178
     4  C   -0.250263
     5  C   -0.077461
     6  O   -0.237919
     7  C    0.422529
     8  O   -0.341757
     9  C   -0.173724
    10  H    0.121249
    11  H    0.123300
    12  H    0.131002
    13  H    0.096853
    14  H    0.094202
    15  H    0.111591
    16  H    0.119556
    17  H    0.116533
    18  H    0.124681
    19  H    0.113419
 Sum of Mulliken charges =   0.00000

 Dipole moment (field-independent basis, Debye):
    X=             -3.0660    Y=              3.7634    Z=             -0.0132  Tot=              4.8543
 Quadrupole moment (field-independent basis, Debye-Ang):
   XX=            -56.4974   YY=            -56.8148   ZZ=            -50.9904
   XY=              7.2291   XZ=             -0.1457   YZ=             -0.2085

  Exact polarizability:  82.977   0.232  82.917   0.761  -1.683  62.813
 Approx polarizability: 110.950  -7.246 126.663   1.810  -4.705  97.599

                      1                      2                      3
                      A                      A                      A
 Frequencies --    112.7780               155.4782               215.2110
 Red. masses --      5.7849                 2.8724                 1.5242
 Frc consts  --      0.0434                 0.0409                 0.0416
 IR Inten    --      0.4303                 3.0101                 0.0712

                      4                      5                      6
                      A                      A                      A
 Frequencies --    223.2904               253.2923               322.2878
 Red. masses --      1.8549                 2.1572                 1.9408
 Frc consts  --      0.0545                 0.0815                 0.1188
 IR Inten    --      1.0569                 1.7099                 0.7949

                      7                      8                      9
                      A                      A                      A
 Frequencies --    380.1136               457.0598               484.0188
 Red. masses --      3.2346                 6.4622                 6.1401
 Frc consts  --      0.2754                 0.7954                 0.8475
 IR Inten    --      0.9759                 3.0774                 3.6711

                     10                     11                     12
                      A                      A                      A
 Frequencies --    544.0608               661.2374               723.9220
 Red. masses --      3.8784                 2.7827                 3.8297
 Frc consts  --      0.6764                 0.7169                 1.1825
 IR Inten    --      1.9879                 4.5408                 5.3161

                     13                     14                     15
                      A                      A                      A
 Frequencies --    774.6128               805.5174               854.3354
 Red. masses --      3.5610                 2.7089                 2.6454
 Frc consts  --      1.2589                 1.0356                 1.1376
 IR Inten    --      6.2720                 6.0921                 1.6594

                     16                     17                     18
                      A                      A                      A
 Frequencies --    914.1933               941.2843               959.3601
 Red. masses --      2.3000                 2.2927                 1.5759
 Frc consts  --      1.1325                 1.1969                 0.8546
 IR Inten    --      7.1928                19.7745                 4.0701

                     19                     20                     21
                      A                      A                      A
 Frequencies --    985.4664              1027.8781              1080.1805
 Red. masses --      1.5507                 1.7315                 1.7456
 Frc consts  --      0.8873                 1.0778                 1.2000
 IR Inten    --      6.7922                19.4527                19.1975

                     22                     23                     24
                      A                      A                      A
 Frequencies --   1098.8760              1107.9723              1119.9903
 Red. masses --      1.3448                 2.2905                 3.0214
 Frc consts  --      0.9568                 1.6567                 2.2330
 IR Inten    --     42.1874                 6.7342                55.1251

                     25                     26                     27
                      A                      A                      A
 Frequencies --   1129.9531              1152.8385              1216.7592
 Red. masses --      1.7373                 1.8033                 1.9083
 Frc consts  --      1.3069                 1.4121                 1.6646
 IR Inten    --     20.1784                 9.7761                22.4120

                     28                     29                     30
                      A                      A                      A
 Frequencies --   1239.3729              1251.3974              1284.5410
 Red. masses --      1.5826                 1.3104                 1.3896
 Frc consts  --      1.4323                 1.2090                 1.3509
 IR Inten    --     68.6245                15.0365                52.5405

                     31                     32                     33
                      A                      A                      A
 Frequencies --   1319.2456              1353.0750              1377.6857
 Red. masses --      1.3315                 1.7147                 1.4648
 Frc consts  --      1.3653                 1.8496                 1.6380
 IR Inten    --      6.5059                29.4879                 9.7555

                     34                     35                     36
                      A                      A                      A
 Frequencies --   1419.0552              1425.7500              1463.2648
 Red. masses --      1.2462                 1.4189                 2.2468
 Frc consts  --      1.4785                 1.6993                 2.8343
 IR Inten    --      2.3188                20.3370                 5.0568

                     37                     38                     39
                      A                      A                      A
 Frequencies --   1485.1239              1492.0245              1502.4175
 Red. masses --      1.0995                 1.0538                 1.1148
 Frc consts  --      1.4287                 1.3822                 1.4826
 IR Inten    --      3.4494                 1.7654                 3.4873

                     40                     41                     42
                      A                      A                      A
 Frequencies --   1521.5428              1833.6681              3030.1941
 Red. masses --      1.0915                12.2349                 1.0597
 Frc consts  --      1.4888                24.2377                 5.7328
 IR Inten    --      8.8202               377.1317                31.7101

                     43                     44                     45
                      A                      A                      A
 Frequencies --   3031.2422              3031.8405              3070.3527
 Red. masses --      1.0530                 1.0506                 1.1008
 Frc consts  --      5.7006                 5.6900                 6.1142
 IR Inten    --     30.6481                22.0527                30.1775

                     46                     47                     48
                      A                      A                      A
 Frequencies --   3096.8597              3099.6005              3102.8688
 Red. masses --      1.1010                 1.0985                 1.1010
 Frc consts  --      6.2212                 6.2180                 6.2453
 IR Inten    --     18.1645                33.8346                14.7029

                     49                     50                     51
                      A                      A                      A
 Frequencies --   3148.7969              3161.3743              3189.8633
 Red. masses --      1.0894                 1.0872                 1.0890
 Frc consts  --      6.3639                 6.4018                 6.5287
 IR Inten    --      8.8812                18.1720                 4.9485

 - Thermochemistry -
 -------------------
 Temperature   298.150 Kelvin.  Pressure   1.00000 Atm.
 Atom     1 has atomic number  6 and mass  12.00000

 Molecular mass:   126.06808 amu.
 Principal axes and moments of inertia in atomic units:
                           1         2         3
     Eigenvalues --   765.863341162.070301664.17038
           X            0.99516   0.09820   0.00355
           Y           -0.09820   0.99517   0.00142
           Z           -0.00339  -0.00176   0.99999
 This molecule is an asymmetric top.
 Rotational symmetry number  1.
 Warning -- assumption of classical behavior for rotation
           may cause significant error
 Rotational temperatures (Kelvin)      0.11309     0.07453     0.05205
 Rotational constants (GHZ):           2.35648     1.55304     1.08447
 Zero-point vibrational energy     422479.9 (Joules/Mol)
                                  100.97512 (Kcal/Mol)
 Warning -- explicit consideration of  10 degrees of freedom as
           vibrations may cause significant error
 Vibrational temperatures:    162.26   223.70   309.64   321.26   364.43
          (Kelvin)            463.70   546.90   657.61   696.39   782.78
                              951.37  1041.56  1114.49  1158.96  1229.20
                             1315.32  1354.30  1380.30  1417.86  1478.89
                             1554.14  1581.04  1594.12  1611.41  1625.75
                             1658.68  1750.64  1783.18  1800.48  1848.17
                             1898.10  1946.77  1982.18  2041.70  2051.33
                             2105.31  2136.76  2146.69  2161.64  2189.16
                             2638.24  4359.77  4361.28  4362.14  4417.55
                             4455.68  4459.63  4464.33  4530.41  4548.51
                             4589.50

 Zero-point correction=                           0.160914 (Hartree/Particle)
 Thermal correction to Energy=                    0.168982
 Thermal correction to Enthalpy=                  0.169926
 Thermal correction to Gibbs Free Energy=         0.128374
 Sum of electronic and zero-point Energies=           -423.065861
 Sum of electronic and thermal Energies=              -423.057794
 Sum of electronic and thermal Enthalpies=            -423.056849
 Sum of electronic and thermal Free Energies=         -423.098401

                     E (Thermal)             CV                S
                      KCal/Mol        Cal/Mol-Kelvin    Cal/Mol-Kelvin
 Total                  106.038             31.080             87.454
 Electronic               0.000              0.000              0.000
 Translational            0.889              2.981             40.409
 Rotational               0.889              2.981             28.784
 Vibrational            104.260             25.119             18.261
 Vibration     1          0.607              1.939              3.221
 Vibration     2          0.620              1.897              2.604
 Vibration     3          0.645              1.818              1.999
 Vibration     4          0.649              1.806              1.932
 Vibration     5          0.664              1.757              1.708
 Vibration     6          0.707              1.631              1.298
 Vibration     7          0.750              1.513              1.039
 Vibration     8          0.815              1.345              0.775
 Vibration     9          0.840              1.285              0.699
 Vibration    10          0.899              1.153              0.557

 Optimization completed.
    -- Stationary point found.
 Normal termination of Gaussian 09 at Tue Jan 28 00:51:41 2020.
