 Gaussian 09, Revision D.01,
 Gaussian 09:  ES64L-G09RevD.01 24-Apr-2013

 -----------------------------
 # b3lyp 6-31G(2df,p) opt Freq
 -----------------------------

 -----
 titel
 -----
 Symbolic Z-matrix:
 Charge =  0 Multiplicity = 1

 SCF Done:  E(RB3LYP) =  -423.123926536     A.U. after   14 cycles
 Optimization completed.
    -- Stationary point found.
 Normal termination of Gaussian 09 at Tue Jan 28 08:18:12 2020.

 ----------------------------------------------------------------------
 #N Geom=AllCheck Guess=TCheck SCRF=Check GenChk RB3LYP/6-31G(2df,p) Fr
 eq
 ----------------------------------------------------------------------

 Structure from the checkpoint file:  "/scratch/puck/g09_6dd26366-eefa-49b4-9a93-931cb0c92cc3/Gau-79703.chk"
 -----
 titel
 -----
 Charge =  0 Multiplicity = 1

                         Standard orientation:
 ---------------------------------------------------------------------
 Center     Atomic      Atomic             Coordinates (Angstroms)
 Number     Number       Type             X           Y           Z
 ---------------------------------------------------------------------
      1          6           0       -3.005160   -0.017708   -0.417387
      2          6           0       -1.516232    0.090461   -0.752647
      3          6           0       -0.617084   -0.334786    0.413469
      4          8           0       -0.830929    0.437410    1.584725
      5          6           0        0.864503   -0.307708    0.026655
      6          6           0        1.761767   -1.398423    0.452164
      7          8           0        1.272404   -1.338690   -0.886877
      8          6           0        1.409420    1.011476   -0.206630
      9          6           0        1.806369    2.135080   -0.371129
     10          1           0       -3.622167    0.333786   -1.249420
     11          1           0       -3.287765   -1.055223   -0.206920
     12          1           0       -3.246946    0.577515    0.467165
     13          1           0       -1.269394   -0.534934   -1.618436
     14          1           0       -1.263820    1.122250   -1.031403
     15          1           0       -0.858222   -1.365967    0.695554
     16          1           0       -0.566102    1.343788    1.383715
     17          1           0        2.825128   -1.200313    0.569596
     18          1           0        1.355631   -2.197955    1.069941
     19          1           0        2.180355    3.116959   -0.529547
 ---------------------------------------------------------------------

 SCF Done:  E(RB3LYP) =  -423.123926536     A.U. after    1 cycles

 The electronic state is 1-A.
 Alpha  occ. eigenvalues --  -19.16546 -19.14094 -10.26715 -10.24537 -10.24068
 Alpha  occ. eigenvalues --  -10.19842 -10.19428 -10.18085 -10.17162  -1.08614
 Alpha  occ. eigenvalues --   -1.02427  -0.79128  -0.76817  -0.71321  -0.67235
 Alpha  occ. eigenvalues --   -0.64057  -0.60136  -0.54478  -0.52042  -0.50545
 Alpha  occ. eigenvalues --   -0.46819  -0.45767  -0.43086  -0.42132  -0.40072
 Alpha  occ. eigenvalues --   -0.37595  -0.37093  -0.34166  -0.33945  -0.32648
 Alpha  occ. eigenvalues --   -0.29713  -0.28682  -0.27904  -0.26117
 Alpha virt. eigenvalues --    0.01486   0.03111   0.08881   0.10088   0.10762
 Alpha virt. eigenvalues --    0.11446   0.12408   0.14192   0.14314   0.16398
 Alpha virt. eigenvalues --    0.16631   0.18668   0.18899   0.19387   0.22285

 Mulliken charges:
               1
     1  C   -0.386663
     2  C   -0.195518
     3  C    0.030238
     4  O   -0.429288
     5  C    0.213658
     6  C   -0.219326
     7  O   -0.269430
     8  C    0.290280
     9  C   -0.436619
    10  H    0.111302
    11  H    0.114924
    12  H    0.127510
    13  H    0.116931
    14  H    0.098667
    15  H    0.093987
    16  H    0.283808
    17  H    0.126303
    18  H    0.124037
    19  H    0.205198
 Sum of Mulliken charges =   0.00000

 Dipole moment (field-independent basis, Debye):
    X=              0.4953    Y=              1.0945    Z=              0.2957  Tot=              1.2372
 Quadrupole moment (field-independent basis, Debye-Ang):
   XX=            -52.0362   YY=            -46.3272   ZZ=            -58.2913
   XY=              1.9229   XZ=              3.7751   YZ=             -2.8837

  Exact polarizability:  82.313   4.720  90.313   1.088  -5.583  60.604
 Approx polarizability: 101.565  10.137 146.758  -1.165  -6.069  95.244

                      1                      2                      3
                      A                      A                      A
 Frequencies --     64.9464                90.4720               135.5383
 Red. masses --      4.2226                 2.2017                 3.5914
 Frc consts  --      0.0105                 0.0106                 0.0389
 IR Inten    --      2.4004                 0.3187                 0.7270

                      4                      5                      6
                      A                      A                      A
 Frequencies --    155.1590               214.1956               226.6885
 Red. masses --      3.3540                 1.2214                 3.4940
 Frc consts  --      0.0476                 0.0330                 0.1058
 IR Inten    --      0.7210                 1.0101                 2.5409

                      7                      8                      9
                      A                      A                      A
 Frequencies --    257.9699               302.9551               335.7453
 Red. masses --      3.8359                 2.9383                 1.2170
 Frc consts  --      0.1504                 0.1589                 0.0808
 IR Inten    --      3.2401                 1.3649               109.5530

                     10                     11                     12
                      A                      A                      A
 Frequencies --    381.0364               439.5252               496.4657
 Red. masses --      3.3081                 4.9964                 2.6597
 Frc consts  --      0.2830                 0.5687                 0.3862
 IR Inten    --     15.9367                 5.3454                16.6447

                     13                     14                     15
                      A                      A                      A
 Frequencies --    567.2858               591.2425               620.9236
 Red. masses --      5.0153                 6.8514                 1.2413
 Frc consts  --      0.9509                 1.4111                 0.2820
 IR Inten    --      2.1282                 8.0977                41.0619

                     16                     17                     18
                      A                      A                      A
 Frequencies --    679.5626               738.1965               788.0481
 Red. masses --      1.2405                 3.2337                 1.3752
 Frc consts  --      0.3375                 1.0382                 0.5032
 IR Inten    --     33.8433                13.0344                 4.4206

                     19                     20                     21
                      A                      A                      A
 Frequencies --    868.9095               873.8787               936.2479
 Red. masses --      2.7874                 2.6975                 2.2178
 Frc consts  --      1.2399                 1.2137                 1.1454
 IR Inten    --     21.1703                 5.4876                21.4708

                     22                     23                     24
                      A                      A                      A
 Frequencies --    974.3704               991.6991              1068.0221
 Red. masses --      2.6680                 1.9193                 2.6033
 Frc consts  --      1.4924                 1.1122                 1.7496
 IR Inten    --     19.6824                25.6805                33.3027

                     25                     26                     27
                      A                      A                      A
 Frequencies --   1109.2699              1123.2924              1139.9438
 Red. masses --      1.5304                 1.6764                 1.8345
 Frc consts  --      1.1095                 1.2463                 1.4045
 IR Inten    --     54.3106                 4.7782                 9.8570

                     28                     29                     30
                      A                      A                      A
 Frequencies --   1163.2542              1231.6840              1261.6303
 Red. masses --      1.3331                 2.5516                 1.6456
 Frc consts  --      1.0628                 2.2807                 1.5433
 IR Inten    --      1.0634                 6.2831                 7.6447

                     31                     32                     33
                      A                      A                      A
 Frequencies --   1283.8786              1337.8185              1370.6819
 Red. masses --      1.5030                 1.2973                 1.9784
 Frc consts  --      1.4597                 1.3680                 2.1899
 IR Inten    --      6.6867                 0.7566                16.8699

                     34                     35                     36
                      A                      A                      A
 Frequencies --   1398.5763              1407.9312              1421.4753
 Red. masses --      1.5836                 1.3009                 1.3023
 Frc consts  --      1.8250                 1.5194                 1.5504
 IR Inten    --     21.7786                 3.3317                33.2646

                     37                     38                     39
                      A                      A                      A
 Frequencies --   1483.7730              1495.7362              1508.5500
 Red. masses --      1.0758                 1.0415                 1.0612
 Frc consts  --      1.3954                 1.3729                 1.4228
 IR Inten    --      1.7661                 4.6766                 4.8453

                     40                     41                     42
                      A                      A                      A
 Frequencies --   1520.5244              2229.8940              3022.3219
 Red. masses --      1.2393                 5.9584                 1.0635
 Frc consts  --      1.6881                17.4561                 5.7238
 IR Inten    --      1.1215                 1.3073                11.4090

                     43                     44                     45
                      A                      A                      A
 Frequencies --   3037.3447              3051.0134              3070.7454
 Red. masses --      1.0371                 1.0843                 1.0975
 Frc consts  --      5.6371                 5.9471                 6.0975
 IR Inten    --     27.9641                16.6055                15.9430

                     46                     47                     48
                      A                      A                      A
 Frequencies --   3089.0671              3103.3698              3121.4862
 Red. masses --      1.0502                 1.1005                 1.1014
 Frc consts  --      5.9046                 6.2447                 6.3230
 IR Inten    --     22.5360                35.6070                23.1823

                     49                     50                     51
                      A                      A                      A
 Frequencies --   3183.6726              3497.2055              3777.2145
 Red. masses --      1.1203                 1.1617                 1.0655
 Frc consts  --      6.6905                 8.3711                 8.9570
 IR Inten    --     16.1283                71.8091                20.2914

 - Thermochemistry -
 -------------------
 Temperature   298.150 Kelvin.  Pressure   1.00000 Atm.
 Atom     1 has atomic number  6 and mass  12.00000

 Molecular mass:   126.06808 amu.
 Principal axes and moments of inertia in atomic units:
                           1         2         3
     Eigenvalues --   805.351861491.843111742.92256
           X            0.99958   0.00459   0.02854
           Y           -0.00298   0.99842  -0.05616
           Z           -0.02875   0.05605   0.99801
 This molecule is an asymmetric top.
 Rotational symmetry number  1.
 Warning -- assumption of classical behavior for rotation
           may cause significant error
 Rotational temperatures (Kelvin)      0.10755     0.05806     0.04969
 Rotational constants (GHZ):           2.24094     1.20974     1.03547
 Zero-point vibrational energy     408168.5 (Joules/Mol)
                                   97.55460 (Kcal/Mol)
 Warning -- explicit consideration of  14 degrees of freedom as
           vibrations may cause significant error
 Vibrational temperatures:     93.44   130.17   195.01   223.24   308.18
          (Kelvin)            326.15   371.16   435.88   483.06   548.23
                              632.38   714.30   816.20   850.67   893.37
                              977.74  1062.10  1133.82  1250.17  1257.31
                             1347.05  1401.90  1426.83  1536.64  1595.99
                             1616.17  1640.12  1673.66  1772.12  1815.20
                             1847.21  1924.82  1972.10  2012.24  2025.70
                             2045.18  2134.82  2152.03  2170.46  2187.69
                             3208.32  4348.44  4370.06  4389.72  4418.11
                             4444.47  4465.05  4491.12  4580.59  5031.69
                             5434.56

 Zero-point correction=                           0.155463 (Hartree/Particle)
 Thermal correction to Energy=                    0.165567
 Thermal correction to Enthalpy=                  0.166511
 Thermal correction to Gibbs Free Energy=         0.120386
 Sum of electronic and zero-point Energies=           -422.968463
 Sum of electronic and thermal Energies=              -422.958360
 Sum of electronic and thermal Enthalpies=            -422.957416
 Sum of electronic and thermal Free Energies=         -423.003541

                     E (Thermal)             CV                S
                      KCal/Mol        Cal/Mol-Kelvin    Cal/Mol-Kelvin
 Total                  103.895             36.947             97.078
 Electronic               0.000              0.000              0.000
 Translational            0.889              2.981             40.409
 Rotational               0.889              2.981             29.128
 Vibrational            102.117             30.986             27.541
 Vibration     1          0.597              1.971              4.301
 Vibration     2          0.602              1.956              3.650
 Vibration     3          0.613              1.918              2.866
 Vibration     4          0.620              1.897              2.608
 Vibration     5          0.644              1.819              2.008
 Vibration     6          0.650              1.800              1.905
 Vibration     7          0.667              1.749              1.675
 Vibration     8          0.694              1.668              1.401
 Vibration     9          0.717              1.604              1.232
 Vibration    10          0.751              1.511              1.035
 Vibration    11          0.800              1.384              0.828
 Vibration    12          0.852              1.258              0.667
 Vibration    13          0.923              1.102              0.509
 Vibration    14          0.949              1.050              0.465

 Optimization completed.
    -- Stationary point found.
 Normal termination of Gaussian 09 at Tue Jan 28 09:03:44 2020.
