 Gaussian 09, Revision D.01,
 Gaussian 09:  ES64L-G09RevD.01 24-Apr-2013

 -----------------------------
 # b3lyp 6-31G(2df,p) opt Freq
 -----------------------------

 -----
 titel
 -----
 Symbolic Z-matrix:
 Charge =  0 Multiplicity = 1

 SCF Done:  E(RB3LYP) =  -423.124882049     A.U. after   13 cycles
 Optimization completed.
    -- Stationary point found.
 Normal termination of Gaussian 09 at Mon Jan 27 18:12:37 2020.

 ----------------------------------------------------------------------
 #N Geom=AllCheck Guess=TCheck SCRF=Check GenChk RB3LYP/6-31G(2df,p) Fr
 eq
 ----------------------------------------------------------------------

 Structure from the checkpoint file:  "/scratch/puck/g09_27c12e21-a0e5-4c5c-83b8-ad42e81fa81d/Gau-42189.chk"
 -----
 titel
 -----
 Charge =  0 Multiplicity = 1

                         Standard orientation:
 ---------------------------------------------------------------------
 Center     Atomic      Atomic             Coordinates (Angstroms)
 Number     Number       Type             X           Y           Z
 ---------------------------------------------------------------------
      1          6           0        2.201637   -0.452007    0.060030
      2          6           0        0.712592   -0.483119    0.064681
      3          8           0        0.025261   -1.728336    0.244357
      4          6           0       -1.185562   -0.938781    0.407615
      5          6           0       -1.470497   -0.400601   -1.020745
      6          6           0       -0.197653    0.412021   -0.795135
      7          8           0        0.366563    1.395519   -1.579293
      8          6           0       -0.343415    0.353964    0.736550
      9          6           0       -0.350028    1.376614    1.824391
     10          1           0        2.610821   -0.782044    1.019864
     11          1           0        2.591396   -1.109780   -0.724286
     12          1           0        2.551996    0.562525   -0.146884
     13          1           0       -1.947887   -1.416182    1.019740
     14          1           0       -1.503621   -1.141793   -1.825451
     15          1           0       -2.360582    0.236723   -1.042055
     16          1           0       -0.239294    2.144205   -1.618313
     17          1           0       -0.158602    0.928313    2.805874
     18          1           0        0.428055    2.126871    1.645122
     19          1           0       -1.309322    1.905148    1.881561
 ---------------------------------------------------------------------

 SCF Done:  E(RB3LYP) =  -423.124882049     A.U. after    1 cycles

 The electronic state is 1-A.
 Alpha  occ. eigenvalues --  -19.15588 -19.12703 -10.23809 -10.23530 -10.23334
 Alpha  occ. eigenvalues --  -10.18909 -10.18855 -10.18273 -10.17793  -1.05899
 Alpha  occ. eigenvalues --   -1.03287  -0.84669  -0.75790  -0.73121  -0.68033
 Alpha  occ. eigenvalues --   -0.62587  -0.57132  -0.50789  -0.50066  -0.47688
 Alpha  occ. eigenvalues --   -0.45960  -0.43310  -0.41686  -0.40828  -0.40299
 Alpha  occ. eigenvalues --   -0.39779  -0.38820  -0.37315  -0.36563  -0.33426
 Alpha  occ. eigenvalues --   -0.30613  -0.27537  -0.23435  -0.21653
 Alpha virt. eigenvalues --    0.06307   0.09632   0.10989   0.11348   0.13506
 Alpha virt. eigenvalues --    0.14037   0.14122   0.15235   0.15675   0.17175
 Alpha virt. eigenvalues --    0.17838   0.18428   0.19217   0.22190   0.22371

 Mulliken charges:
               1
     1  C   -0.510662
     2  C    0.385496
     3  O   -0.328199
     4  C    0.016340
     5  C   -0.304296
     6  C    0.247243
     7  O   -0.459666
     8  C    0.148842
     9  C   -0.537903
    10  H    0.124983
    11  H    0.135295
    12  H    0.137102
    13  H    0.085951
    14  H    0.102429
    15  H    0.090914
    16  H    0.287949
    17  H    0.130590
    18  H    0.128567
    19  H    0.119024
 Sum of Mulliken charges =   0.00000

 Dipole moment (field-independent basis, Debye):
    X=             -1.2609    Y=              2.2636    Z=              0.6244  Tot=              2.6653
 Quadrupole moment (field-independent basis, Debye-Ang):
   XX=            -49.8394   YY=            -53.4840   ZZ=            -53.6151
   XY=             -1.2923   XZ=              1.3754   YZ=             -0.1318

  Exact polarizability:  79.860  -0.482  72.689   1.062   1.278  74.012
 Approx polarizability: 111.493  -1.872 110.130  -1.404  -2.149 107.777

                      1                      2                      3
                      A                      A                      A
 Frequencies --    147.2660               166.8165               172.7273
 Red. masses --      2.7469                 1.2254                 1.7163
 Frc consts  --      0.0351                 0.0201                 0.0302
 IR Inten    --      0.2445                 0.2901                 0.8753

                      4                      5                      6
                      A                      A                      A
 Frequencies --    185.3579               228.1512               260.8814
 Red. masses --      1.1119                 3.0594                 2.6635
 Frc consts  --      0.0225                 0.0938                 0.1068
 IR Inten    --      1.3845                 2.5530                 2.6130

                      7                      8                      9
                      A                      A                      A
 Frequencies --    324.2845               392.5986               412.7833
 Red. masses --      1.2520                 2.6800                 3.7851
 Frc consts  --      0.0776                 0.2434                 0.3800
 IR Inten    --     78.3385                12.9937                16.7306

                     10                     11                     12
                      A                      A                      A
 Frequencies --    474.7703               574.3247               634.7611
 Red. masses --      2.5413                 4.0664                 4.2397
 Frc consts  --      0.3375                 0.7903                 1.0065
 IR Inten    --      0.5218                 2.1153                 7.5033

                     13                     14                     15
                      A                      A                      A
 Frequencies --    655.2983               677.0098               735.6905
 Red. masses --      3.3365                 4.2057                 3.7084
 Frc consts  --      0.8441                 1.1358                 1.1826
 IR Inten    --      3.0552                 0.8990                 6.0236

                     16                     17                     18
                      A                      A                      A
 Frequencies --    776.8675               835.5821               903.7219
 Red. masses --      3.8948                 2.7120                 2.3529
 Frc consts  --      1.3849                 1.1156                 1.1322
 IR Inten    --      4.6093                 6.4264                20.1422

                     19                     20                     21
                      A                      A                      A
 Frequencies --    919.6407               932.5508              1035.3717
 Red. masses --      2.3470                 2.6784                 1.9790
 Frc consts  --      1.1695                 1.3724                 1.2500
 IR Inten    --     16.6530                22.6574                 2.6754

                     22                     23                     24
                      A                      A                      A
 Frequencies --   1053.8445              1089.2841              1100.8096
 Red. masses --      2.5382                 1.4934                 1.6177
 Frc consts  --      1.6609                 1.0441                 1.1550
 IR Inten    --     14.0024                33.8999                 3.3026

                     25                     26                     27
                      A                      A                      A
 Frequencies --   1110.8845              1129.3812              1153.7931
 Red. masses --      1.4180                 1.9181                 1.9117
 Frc consts  --      1.0310                 1.4414                 1.4994
 IR Inten    --     14.1961                 3.3022                18.8937

                     28                     29                     30
                      A                      A                      A
 Frequencies --   1188.0856              1234.8447              1272.3558
 Red. masses --      2.0818                 1.8485                 1.8107
 Frc consts  --      1.7313                 1.6607                 1.7271
 IR Inten    --      3.8597                 1.5167               147.3164

                     31                     32                     33
                      A                      A                      A
 Frequencies --   1280.6157              1342.1869              1369.5448
 Red. masses --      1.9450                 2.6160                 2.2765
 Frc consts  --      1.8794                 2.7766                 2.5157
 IR Inten    --     15.3410                30.7834                 3.4924

                     34                     35                     36
                      A                      A                      A
 Frequencies --   1409.2017              1414.7735              1473.0300
 Red. masses --      1.3967                 1.3302                 1.1974
 Frc consts  --      1.6342                 1.5687                 1.5307
 IR Inten    --      2.0355                 2.0566                 4.3037

                     37                     38                     39
                      A                      A                      A
 Frequencies --   1478.9851              1486.1921              1491.2732
 Red. masses --      1.3090                 1.1190                 1.1267
 Frc consts  --      1.6870                 1.4563                 1.4763
 IR Inten    --      0.3583                 4.4993                 2.1883

                     40                     41                     42
                      A                      A                      A
 Frequencies --   1495.8714              1521.8345              3018.1469
 Red. masses --      1.0701                 2.1002                 1.0354
 Frc consts  --      1.4108                 2.8658                 5.5569
 IR Inten    --      1.3475                17.8490                45.7789

                     43                     44                     45
                      A                      A                      A
 Frequencies --   3037.7607              3040.2798              3075.7534
 Red. masses --      1.0365                 1.0545                 1.1005
 Frc consts  --      5.6355                 5.7430                 6.1341
 IR Inten    --     34.3049                32.3132                22.2680

                     46                     47                     48
                      A                      A                      A
 Frequencies --   3089.9512              3099.4481              3100.7554
 Red. masses --      1.1000                 1.1091                 1.1013
 Frc consts  --      6.1880                 6.2777                 6.2388
 IR Inten    --     16.6374                27.8664                17.2433

                     49                     50                     51
                      A                      A                      A
 Frequencies --   3125.3946              3142.7540              3785.3648
 Red. masses --      1.0997                 1.0930                 1.0661
 Frc consts  --      6.3288                 6.3606                 9.0003
 IR Inten    --     10.5733                35.4245                18.1250

 - Thermochemistry -
 -------------------
 Temperature   298.150 Kelvin.  Pressure   1.00000 Atm.
 Atom     1 has atomic number  6 and mass  12.00000

 Molecular mass:   126.06808 amu.
 Principal axes and moments of inertia in atomic units:
                           1         2         3
     Eigenvalues --   976.62585 994.166061043.43119
           X            0.76720  -0.63970   0.04671
           Y            0.55048   0.69407   0.46393
           Z           -0.32920  -0.33022   0.88464
 This molecule is an asymmetric top.
 Rotational symmetry number  1.
 Warning -- assumption of classical behavior for rotation
           may cause significant error
 Rotational temperatures (Kelvin)      0.08869     0.08712     0.08301
 Rotational constants (GHZ):           1.84794     1.81533     1.72962
 Zero-point vibrational energy     413063.7 (Joules/Mol)
                                   98.72459 (Kcal/Mol)
 Warning -- explicit consideration of  11 degrees of freedom as
           vibrations may cause significant error
 Vibrational temperatures:    211.88   240.01   248.52   266.69   328.26
          (Kelvin)            375.35   466.57   564.86   593.90   683.09
                              826.32   913.28   942.83   974.06  1058.49
                             1117.74  1202.21  1300.25  1323.16  1341.73
                             1489.67  1516.25  1567.23  1583.82  1598.31
                             1624.93  1660.05  1709.39  1776.66  1830.63
                             1842.52  1931.11  1970.47  2027.52  2035.54
                             2119.36  2127.93  2138.30  2145.61  2152.22
                             2189.58  4342.43  4370.65  4374.28  4425.32
                             4445.75  4459.41  4461.29  4496.74  4521.72
                             5446.29

 Zero-point correction=                           0.157328 (Hartree/Particle)
 Thermal correction to Energy=                    0.166122
 Thermal correction to Enthalpy=                  0.167067
 Thermal correction to Gibbs Free Energy=         0.124527
 Sum of electronic and zero-point Energies=           -422.967554
 Sum of electronic and thermal Energies=              -422.958760
 Sum of electronic and thermal Enthalpies=            -422.957815
 Sum of electronic and thermal Free Energies=         -423.000355

                     E (Thermal)             CV                S
                      KCal/Mol        Cal/Mol-Kelvin    Cal/Mol-Kelvin
 Total                  104.243             33.824             89.532
 Electronic               0.000              0.000              0.000
 Translational            0.889              2.981             40.409
 Rotational               0.889              2.981             28.407
 Vibrational            102.466             27.862             20.717
 Vibration     1          0.617              1.906              2.707
 Vibration     2          0.624              1.883              2.471
 Vibration     3          0.626              1.876              2.406
 Vibration     4          0.631              1.860              2.274
 Vibration     5          0.651              1.798              1.893
 Vibration     6          0.669              1.744              1.656
 Vibration     7          0.709              1.627              1.288
 Vibration     8          0.760              1.486              0.990
 Vibration     9          0.777              1.442              0.917
 Vibration    10          0.831              1.306              0.724
 Vibration    11          0.931              1.087              0.496

 Normal termination of Gaussian 09 at Mon Jan 27 19:00:32 2020.
