 Gaussian 09, Revision D.01,
 Gaussian 09:  ES64L-G09RevD.01 24-Apr-2013

 -----------------------------
 # b3lyp 6-31G(2df,p) opt Freq
 -----------------------------

 -----
 titel
 -----
 Symbolic Z-matrix:
 Charge =  0 Multiplicity = 1

 SCF Done:  E(RB3LYP) =  -423.190953160     A.U. after   15 cycles
 Optimization completed.
    -- Stationary point found.
 Normal termination of Gaussian 09 at Tue Jan 28 08:17:54 2020.

 ----------------------------------------------------------------------
 #N Geom=AllCheck Guess=TCheck SCRF=Check GenChk RB3LYP/6-31G(2df,p) Fr
 eq
 ----------------------------------------------------------------------

 Structure from the checkpoint file:  "/scratch/puck/g09_85043f96-5082-4016-aad9-8fa5e9957f11/Gau-8478.chk"
 -----
 titel
 -----
 Charge =  0 Multiplicity = 1

                         Standard orientation:
 ---------------------------------------------------------------------
 Center     Atomic      Atomic             Coordinates (Angstroms)
 Number     Number       Type             X           Y           Z
 ---------------------------------------------------------------------
      1          6           0       -2.450444   -1.737520   -0.156161
      2          6           0       -0.933780   -1.681168    0.035181
      3          6           0       -0.343696   -0.291082   -0.228796
      4          8           0       -0.930059    0.610877    0.761079
      5          6           0       -1.132081    1.879754    0.376681
      6          8           0       -0.893244    2.351421   -0.700103
      7          6           0        1.109990   -0.264401   -0.123155
      8          6           0        2.310869   -0.271573   -0.042224
      9          6           0        3.762955   -0.265286    0.051332
     10          1           0       -2.825585   -2.746985    0.034706
     11          1           0       -2.958443   -1.053133    0.528296
     12          1           0       -2.732588   -1.463930   -1.178760
     13          1           0       -0.660064   -1.983722    1.051590
     14          1           0       -0.434900   -2.377981   -0.646735
     15          1           0       -0.648064    0.073289   -1.215425
     16          1           0       -1.569740    2.431200    1.224001
     17          1           0        4.166068   -1.283706    0.036275
     18          1           0        4.213209    0.286088   -0.781065
     19          1           0        4.093646    0.208151    0.982162
 ---------------------------------------------------------------------

 SCF Done:  E(RB3LYP) =  -423.190953160     A.U. after    1 cycles

 The electronic state is 1-A.
 Alpha  occ. eigenvalues --  -19.18754 -19.13207 -10.30698 -10.26348 -10.20807
 Alpha  occ. eigenvalues --  -10.19335 -10.18381 -10.17955 -10.17297  -1.10230
 Alpha  occ. eigenvalues --   -1.02024  -0.81364  -0.77599  -0.73051  -0.68321
 Alpha  occ. eigenvalues --   -0.62819  -0.58813  -0.52962  -0.51284  -0.46996
 Alpha  occ. eigenvalues --   -0.45980  -0.44214  -0.43240  -0.43064  -0.42309
 Alpha  occ. eigenvalues --   -0.41879  -0.37622  -0.36871  -0.35619  -0.34428
 Alpha  occ. eigenvalues --   -0.31080  -0.28079  -0.26092  -0.25549
 Alpha virt. eigenvalues --    0.01033   0.03690   0.05322   0.10063   0.10764
 Alpha virt. eigenvalues --    0.12882   0.14176   0.14618   0.15154   0.16793
 Alpha virt. eigenvalues --    0.16918   0.17925   0.18509   0.21037   0.23280

 Mulliken charges:
               1
     1  C   -0.395931
     2  C   -0.179541
     3  C   -0.083021
     4  O   -0.210163
     5  C    0.189300
     6  O   -0.301685
     7  C    0.092642
     8  C    0.088133
     9  C   -0.499779
    10  H    0.117031
    11  H    0.130074
    12  H    0.119809
    13  H    0.117196
    14  H    0.114484
    15  H    0.133985
    16  H    0.108339
    17  H    0.150863
    18  H    0.154159
    19  H    0.154104
 Sum of Mulliken charges =   0.00000

 Dipole moment (field-independent basis, Debye):
    X=              0.7679    Y=             -1.8167    Z=              0.9618  Tot=              2.1944
 Quadrupole moment (field-independent basis, Debye-Ang):
   XX=            -44.0558   YY=            -55.5430   ZZ=            -53.9752
   XY=              0.4566   XZ=             -0.7879   YZ=              4.7343

  Exact polarizability: 107.272  -1.539  76.802  -0.523   0.151  61.884
 Approx polarizability: 144.523  -3.043 103.272  -0.865  -5.565 100.031

                      1                      2                      3
                      A                      A                      A
 Frequencies --     25.9097                28.6322                86.8243
 Red. masses --      1.0176                 8.0480                 2.6783
 Frc consts  --      0.0004                 0.0039                 0.0119
 IR Inten    --      0.0085                 1.3221                 0.8980

                      4                      5                      6
                      A                      A                      A
 Frequencies --     88.9138               138.4583               200.7635
 Red. masses --      3.1623                 2.3385                 1.9548
 Frc consts  --      0.0147                 0.0264                 0.0464
 IR Inten    --      1.5174                 2.7185                 1.3267

                      7                      8                      9
                      A                      A                      A
 Frequencies --    226.6660               246.5020               293.7176
 Red. masses --      4.4053                 1.6054                 3.0462
 Frc consts  --      0.1334                 0.0575                 0.1548
 IR Inten    --      1.9676                 2.2384                11.0023

                     10                     11                     12
                      A                      A                      A
 Frequencies --    332.6646               359.0428               415.9677
 Red. masses --      3.5511                 3.8109                 3.4631
 Frc consts  --      0.2315                 0.2894                 0.3531
 IR Inten    --      4.4818                 6.9136                 5.0446

                     13                     14                     15
                      A                      A                      A
 Frequencies --    498.4808               543.8744               741.9705
 Red. masses --      4.0383                 7.6819                 2.2810
 Frc consts  --      0.5912                 1.3388                 0.7399
 IR Inten    --      1.0922                10.0415                 0.6482

                     16                     17                     18
                      A                      A                      A
 Frequencies --    780.9299               830.0804               886.4102
 Red. masses --      2.2006                 3.7596                 2.3804
 Frc consts  --      0.7907                 1.5263                 1.1020
 IR Inten    --      2.9268                11.1275                44.6765

                     19                     20                     21
                      A                      A                      A
 Frequencies --    931.2202              1043.7005              1047.6439
 Red. masses --      2.0511                 1.7613                 2.0726
 Frc consts  --      1.0479                 1.1304                 1.3403
 IR Inten    --     25.5550                 1.7505                11.8862

                     22                     23                     24
                      A                      A                      A
 Frequencies --   1052.1945              1053.5442              1101.7587
 Red. masses --      1.5029                 1.4120                 1.9660
 Frc consts  --      0.9804                 0.9234                 1.4061
 IR Inten    --      1.2686                 2.1492                19.4561

                     25                     26                     27
                      A                      A                      A
 Frequencies --   1145.4471              1180.4265              1200.8643
 Red. masses --      2.2718                 4.0711                 4.6532
 Frc consts  --      1.7562                 3.3422                 3.9536
 IR Inten    --      0.3361               168.6196               227.0085

                     28                     29                     30
                      A                      A                      A
 Frequencies --   1285.2269              1315.2348              1361.0841
 Red. masses --      1.2898                 1.2153                 1.2504
 Frc consts  --      1.2553                 1.2386                 1.3648
 IR Inten    --      7.8216                 8.0771                14.8557

                     31                     32                     33
                      A                      A                      A
 Frequencies --   1392.1187              1408.5272              1410.0000
 Red. masses --      1.5121                 1.1457                 1.2554
 Frc consts  --      1.7266                 1.3393                 1.4705
 IR Inten    --     16.6962                 1.8850                 0.1478

                     34                     35                     36
                      A                      A                      A
 Frequencies --   1413.8454              1475.5824              1477.8209
 Red. masses --      1.2408                 1.0392                 1.0507
 Frc consts  --      1.4613                 1.3332                 1.3520
 IR Inten    --      3.9565                 5.9645                 4.7542

                     37                     38                     39
                      A                      A                      A
 Frequencies --   1478.6291              1496.5257              1509.2947
 Red. masses --      1.0633                 1.0427                 1.0551
 Frc consts  --      1.3698                 1.3759                 1.4160
 IR Inten    --      1.7679                 5.2399                 4.4125

                     40                     41                     42
                      A                      A                      A
 Frequencies --   1822.7542              2374.3792              3022.6546
 Red. masses --      9.5496                11.8753                 1.0903
 Frc consts  --     18.6936                39.4453                 5.8689
 IR Inten    --    276.4313                19.1343                70.4721

                     43                     44                     45
                      A                      A                      A
 Frequencies --   3030.1289              3039.4079              3047.6918
 Red. masses --      1.0347                 1.0375                 1.0608
 Frc consts  --      5.5977                 5.6472                 5.8051
 IR Inten    --     25.9392                20.4975                15.3075

                     46                     47                     48
                      A                      A                      A
 Frequencies --   3062.5446              3086.8385              3092.3567
 Red. masses --      1.0827                 1.1001                 1.1001
 Frc consts  --      5.9828                 6.1762                 6.1982
 IR Inten    --      5.5581                 6.0833                 8.4406

                     49                     50                     51
                      A                      A                      A
 Frequencies --   3093.3212              3108.8572              3123.7855
 Red. masses --      1.1004                 1.1009                 1.1016
 Frc consts  --      6.2036                 6.2689                 6.3333
 IR Inten    --      8.0379                33.4383                26.4812

 - Thermochemistry -
 -------------------
 Temperature   298.150 Kelvin.  Pressure   1.00000 Atm.
 Atom     1 has atomic number  6 and mass  12.00000

 Molecular mass:   126.06808 amu.
 Principal axes and moments of inertia in atomic units:
                           1         2         3
     Eigenvalues --   948.746681725.113422475.81345
           X            0.99895   0.04568   0.00245
           Y           -0.04571   0.99883   0.01584
           Z           -0.00172  -0.01594   0.99987
 This molecule is an asymmetric top.
 Rotational symmetry number  1.
 Warning -- assumption of classical behavior for rotation
           may cause significant error
 Rotational temperatures (Kelvin)      0.09129     0.05021     0.03498
 Rotational constants (GHZ):           1.90224     1.04616     0.72895
 Zero-point vibrational energy     409190.0 (Joules/Mol)
                                   97.79875 (Kcal/Mol)
 Warning -- explicit consideration of  14 degrees of freedom as
           vibrations may cause significant error
 Vibrational temperatures:     37.28    41.20   124.92   127.93   199.21
          (Kelvin)            288.85   326.12   354.66   422.59   478.63
                              516.58   598.48   717.20   782.51  1067.53
                             1123.58  1194.30  1275.34  1339.82  1501.65
                             1507.32  1513.87  1515.81  1585.18  1648.04
                             1698.37  1727.77  1849.15  1892.33  1958.29
                             2002.95  2026.55  2028.67  2034.21  2123.03
                             2126.25  2127.41  2153.16  2171.54  2622.53
                             3416.20  4348.92  4359.67  4373.02  4384.94
                             4406.31  4441.27  4449.21  4450.59  4472.95
                             4494.42

 Zero-point correction=                           0.155852 (Hartree/Particle)
 Thermal correction to Energy=                    0.166721
 Thermal correction to Enthalpy=                  0.167666
 Thermal correction to Gibbs Free Energy=         0.117365
 Sum of electronic and zero-point Energies=           -423.035101
 Sum of electronic and thermal Energies=              -423.024232
 Sum of electronic and thermal Enthalpies=            -423.023288
 Sum of electronic and thermal Free Energies=         -423.073589

                     E (Thermal)             CV                S
                      KCal/Mol        Cal/Mol-Kelvin    Cal/Mol-Kelvin
 Total                  104.619             36.377            105.867
 Electronic               0.000              0.000              0.000
 Translational            0.889              2.981             40.409
 Rotational               0.889              2.981             29.784
 Vibrational            102.842             30.415             35.675
 Vibration     1          0.593              1.985              6.120
 Vibration     2          0.593              1.984              5.922
 Vibration     3          0.601              1.958              3.730
 Vibration     4          0.602              1.957              3.684
 Vibration     5          0.614              1.915              2.825
 Vibration     6          0.638              1.839              2.126
 Vibration     7          0.650              1.800              1.905
 Vibration     8          0.661              1.769              1.755
 Vibration     9          0.689              1.685              1.452
 Vibration    10          0.715              1.610              1.247
 Vibration    11          0.734              1.557              1.126
 Vibration    12          0.779              1.436              0.906
 Vibration    13          0.854              1.253              0.662
 Vibration    14          0.899              1.153              0.557

 Optimization completed.
    -- Stationary point found.
 Normal termination of Gaussian 09 at Tue Jan 28 08:55:53 2020.
