 Gaussian 09, Revision D.01,
 Gaussian 09:  ES64L-G09RevD.01 24-Apr-2013

 -----------------------------
 # b3lyp 6-31G(2df,p) opt Freq
 -----------------------------

 -----
 titel
 -----
 Symbolic Z-matrix:
 Charge =  0 Multiplicity = 1

 SCF Done:  E(RB3LYP) =  -423.118166944     A.U. after   14 cycles
 Optimization completed.
    -- Stationary point found.
 Normal termination of Gaussian 09 at Mon Jan 27 14:00:17 2020.

 ----------------------------------------------------------------------
 #N Geom=AllCheck Guess=TCheck SCRF=Check GenChk RB3LYP/6-31G(2df,p) Fr
 eq
 ----------------------------------------------------------------------

 Structure from the checkpoint file:  "/scratch/puck/g09_cf7e8594-93e3-4ac2-a2df-0f58b3d21281/Gau-160088.chk"
 -----
 titel
 -----
 Charge =  0 Multiplicity = 1

                         Standard orientation:
 ---------------------------------------------------------------------
 Center     Atomic      Atomic             Coordinates (Angstroms)
 Number     Number       Type             X           Y           Z
 ---------------------------------------------------------------------
      1          6           0       -4.610544    0.132680   -0.357786
      2          6           0       -3.207417   -0.125231   -0.070877
      3          6           0       -2.045928   -0.330843    0.166347
      4          6           0       -0.647468   -0.607020    0.458780
      5          8           0        0.130067    0.574907    0.282357
      6          6           0        1.480711    0.358697    0.533771
      7          6           0        2.447700    1.285978   -0.142966
      8          6           0        2.365440   -0.170994   -0.556773
      9          8           0        3.367592   -1.065037   -0.173809
     10          1           0       -4.782013    1.199164   -0.540533
     11          1           0       -4.945524   -0.413891   -1.246152
     12          1           0       -5.250674   -0.166227    0.479525
     13          1           0       -0.542341   -0.973029    1.493667
     14          1           0       -0.270096   -1.406762   -0.197973
     15          1           0        1.724573    0.029918    1.545362
     16          1           0        2.033190    2.023576   -0.820812
     17          1           0        3.313262    1.602849    0.428197
     18          1           0        1.882783   -0.375274   -1.512657
     19          1           0        4.160603   -0.858877   -0.679992
 ---------------------------------------------------------------------

 SCF Done:  E(RB3LYP) =  -423.118166944     A.U. after    1 cycles

 The electronic state is 1-A.
 Alpha  occ. eigenvalues --  -19.14578 -19.14396 -10.24708 -10.23296 -10.23222
 Alpha  occ. eigenvalues --  -10.20291 -10.18395 -10.17530 -10.16676  -1.04383
 Alpha  occ. eigenvalues --   -1.02580  -0.84065  -0.77769  -0.73415  -0.66377
 Alpha  occ. eigenvalues --   -0.60982  -0.58697  -0.53206  -0.50378  -0.49223
 Alpha  occ. eigenvalues --   -0.46660  -0.45044  -0.43665  -0.42597  -0.42403
 Alpha  occ. eigenvalues --   -0.42141  -0.37693  -0.36147  -0.32606  -0.30418
 Alpha  occ. eigenvalues --   -0.26540  -0.25382  -0.25129  -0.24041
 Alpha virt. eigenvalues --    0.04178   0.06207   0.08119   0.10966   0.11191
 Alpha virt. eigenvalues --    0.11575   0.12997   0.14598   0.16587   0.17052
 Alpha virt. eigenvalues --    0.18103   0.18504   0.20971   0.21388   0.22148

 Mulliken charges:
               1
     1  C   -0.498638
     2  C    0.126805
     3  C    0.007404
     4  C   -0.214197
     5  O   -0.247190
     6  C    0.124841
     7  C   -0.352181
     8  C    0.063283
     9  O   -0.420950
    10  H    0.153137
    11  H    0.147989
    12  H    0.148714
    13  H    0.117433
    14  H    0.121896
    15  H    0.094759
    16  H    0.127184
    17  H    0.116373
    18  H    0.094402
    19  H    0.288936
 Sum of Mulliken charges =   0.00000

 Dipole moment (field-independent basis, Debye):
    X=              0.2283    Y=              0.0597    Z=             -0.8252  Tot=              0.8582
 Quadrupole moment (field-independent basis, Debye-Ang):
   XX=            -38.1096   YY=            -55.3192   ZZ=            -51.2621
   XY=              2.3141   XZ=             -2.0253   YZ=             -0.1298

  Exact polarizability: 121.490  -2.340  64.829   4.405  -1.604  61.576
 Approx polarizability: 153.265  -8.052  95.757   8.870  -3.147  91.331

                      1                      2                      3
                      A                      A                      A
 Frequencies --     29.9315                34.6205                72.0248
 Red. masses --      1.0825                 3.3938                 4.0015
 Frc consts  --      0.0006                 0.0024                 0.0122
 IR Inten    --      0.0694                 0.3255                 1.3275

                      4                      5                      6
                      A                      A                      A
 Frequencies --    105.4331               164.3740               203.6726
 Red. masses --      3.3148                 4.2690                 2.5955
 Frc consts  --      0.0217                 0.0680                 0.0634
 IR Inten    --      4.3238                 2.6436                 9.3626

                      7                      8                      9
                      A                      A                      A
 Frequencies --    292.6762               301.3709               312.1380
 Red. masses --      2.0804                 3.1964                 1.7107
 Frc consts  --      0.1050                 0.1710                 0.0982
 IR Inten    --     28.3715                 3.8327                61.2209

                     10                     11                     12
                      A                      A                      A
 Frequencies --    374.8454               375.8509               421.8324
 Red. masses --      3.3282                 4.1738                 3.4940
 Frc consts  --      0.2755                 0.3474                 0.3663
 IR Inten    --     16.8453                 0.1592                11.5195

                     13                     14                     15
                      A                      A                      A
 Frequencies --    472.6139               533.2530               779.4930
 Red. masses --      3.1034                 4.0346                 3.2278
 Frc consts  --      0.4084                 0.6760                 1.1555
 IR Inten    --      0.9846                 1.7702                 0.7030

                     16                     17                     18
                      A                      A                      A
 Frequencies --    825.0691               855.5775               916.1645
 Red. masses --      1.8688                 1.9520                 2.7443
 Frc consts  --      0.7495                 0.8419                 1.3572
 IR Inten    --     11.6479                 3.5470                24.9936

                     19                     20                     21
                      A                      A                      A
 Frequencies --    987.0898              1019.8276              1027.8637
 Red. masses --      3.1277                 1.7010                 1.7189
 Frc consts  --      1.7955                 1.0423                 1.0699
 IR Inten    --      4.2325                25.0206                10.5594

                     22                     23                     24
                      A                      A                      A
 Frequencies --   1051.1737              1057.8135              1059.0386
 Red. masses --      1.4372                 1.4586                 2.2995
 Frc consts  --      0.9357                 0.9616                 1.5195
 IR Inten    --      6.5739                 4.6704                45.2332

                     25                     26                     27
                      A                      A                      A
 Frequencies --   1093.9597              1109.0232              1171.9893
 Red. masses --      1.2858                 1.7062                 3.1032
 Frc consts  --      0.9066                 1.2364                 2.5114
 IR Inten    --     26.1972                75.9283                 3.2940

                     28                     29                     30
                      A                      A                      A
 Frequencies --   1183.2713              1197.8439              1227.1635
 Red. masses --      2.8238                 2.8490                 1.7792
 Frc consts  --      2.3294                 2.4084                 1.5786
 IR Inten    --     15.2583               148.5835                34.3918

                     31                     32                     33
                      A                      A                      A
 Frequencies --   1253.2687              1289.3796              1345.9692
 Red. masses --      1.0703                 1.1723                 1.3065
 Frc consts  --      0.9905                 1.1483                 1.3946
 IR Inten    --      2.8682                64.6413                78.0329

                     34                     35                     36
                      A                      A                      A
 Frequencies --   1403.6094              1414.7878              1428.5147
 Red. masses --      1.4050                 1.2427                 1.2438
 Frc consts  --      1.6309                 1.4655                 1.4954
 IR Inten    --     49.6509                 1.5577                16.8485

                     37                     38                     39
                      A                      A                      A
 Frequencies --   1476.7481              1479.3179              1489.9839
 Red. masses --      1.0393                 1.0402                 1.6813
 Frc consts  --      1.3354                 1.3412                 2.1992
 IR Inten    --      5.6668                 5.5190                12.7033

                     40                     41                     42
                      A                      A                      A
 Frequencies --   1503.1644              2380.6275              2964.9036
 Red. masses --      1.1847                11.8492                 1.0581
 Frc consts  --      1.5771                39.5661                 5.4803
 IR Inten    --      4.6961                15.2778                37.1653

                     43                     44                     45
                      A                      A                      A
 Frequencies --   2989.4622              3028.2355              3088.8474
 Red. masses --      1.0999                 1.0348                 1.1004
 Frc consts  --      5.7916                 5.5908                 6.1860
 IR Inten    --     29.4584                30.6674                10.4458

                     46                     47                     48
                      A                      A                      A
 Frequencies --   3090.7250              3093.8551              3104.2274
 Red. masses --      1.0999                 1.0875                 1.0865
 Frc consts  --      6.1903                 6.1333                 6.1684
 IR Inten    --      9.1051                14.6476                38.4235

                     49                     50                     51
                      A                      A                      A
 Frequencies --   3138.3514              3233.4171              3799.4661
 Red. masses --      1.0546                 1.1174                 1.0662
 Frc consts  --      6.1200                 6.8833                 9.0688
 IR Inten    --      5.4724                 5.0322                19.1643

 - Thermochemistry -
 -------------------
 Temperature   298.150 Kelvin.  Pressure   1.00000 Atm.
 Atom     1 has atomic number  6 and mass  12.00000

 Molecular mass:   126.06808 amu.
 Principal axes and moments of inertia in atomic units:
                           1         2         3
     Eigenvalues --   312.444323284.807473426.04791
           X            0.99999   0.00396   0.00243
           Y           -0.00389   0.99957  -0.02909
           Z           -0.00254   0.02908   0.99957
 This molecule is an asymmetric top.
 Rotational symmetry number  1.
 Rotational temperatures (Kelvin)      0.27721     0.02637     0.02528
 Rotational constants (GHZ):           5.77620     0.54942     0.52677
 Zero-point vibrational energy     408248.7 (Joules/Mol)
                                   97.57379 (Kcal/Mol)
 Warning -- explicit consideration of  14 degrees of freedom as
           vibrations may cause significant error
 Vibrational temperatures:     43.06    49.81   103.63   151.69   236.50
          (Kelvin)            293.04   421.10   433.60   449.10   539.32
                              540.76   606.92   679.99   767.23  1121.52
                             1187.09  1230.98  1318.15  1420.20  1467.30
                             1478.86  1512.40  1521.96  1523.72  1573.96
                             1595.64  1686.23  1702.46  1723.43  1765.61
                             1803.17  1855.13  1936.55  2019.48  2035.56
                             2055.31  2124.71  2128.41  2143.75  2162.72
                             3425.19  4265.83  4301.16  4356.95  4444.16
                             4446.86  4451.36  4466.29  4515.38  4652.16
                             5466.58

 Zero-point correction=                           0.155494 (Hartree/Particle)
 Thermal correction to Energy=                    0.166075
 Thermal correction to Enthalpy=                  0.167019
 Thermal correction to Gibbs Free Energy=         0.117753
 Sum of electronic and zero-point Energies=           -422.962673
 Sum of electronic and thermal Energies=              -422.952092
 Sum of electronic and thermal Enthalpies=            -422.951148
 Sum of electronic and thermal Free Energies=         -423.000414

                     E (Thermal)             CV                S
                      KCal/Mol        Cal/Mol-Kelvin    Cal/Mol-Kelvin
 Total                  104.213             36.380            103.689
 Electronic               0.000              0.000              0.000
 Translational            0.889              2.981             40.409
 Rotational               0.889              2.981             29.643
 Vibrational            102.436             30.419             33.637
 Vibration     1          0.594              1.984              5.834
 Vibration     2          0.594              1.983              5.545
 Vibration     3          0.598              1.967              4.097
 Vibration     4          0.605              1.945              3.351
 Vibration     5          0.623              1.886              2.499
 Vibration     6          0.639              1.835              2.100
 Vibration     7          0.688              1.687              1.458
 Vibration     8          0.693              1.671              1.409
 Vibration     9          0.700              1.651              1.351
 Vibration    10          0.746              1.524              1.060
 Vibration    11          0.747              1.522              1.056
 Vibration    12          0.784              1.423              0.886
 Vibration    13          0.829              1.311              0.730
 Vibration    14          0.888              1.176              0.580

 Optimization completed on the basis of negligible forces.
    -- Stationary point found.
 Normal termination of Gaussian 09 at Mon Jan 27 14:33:28 2020.
