 Gaussian 09, Revision D.01,
 Gaussian 09:  ES64L-G09RevD.01 24-Apr-2013

 -----------------------------
 # b3lyp 6-31G(2df,p) opt Freq
 -----------------------------

 -----
 titel
 -----
 Symbolic Z-matrix:
 Charge =  0 Multiplicity = 1

 SCF Done:  E(RB3LYP) =  -423.163674225     A.U. after   14 cycles
 Optimization completed.
    -- Stationary point found.
 Normal termination of Gaussian 09 at Mon Jan 27 17:58:34 2020.

 ----------------------------------------------------------------------
 #N Geom=AllCheck Guess=TCheck SCRF=Check GenChk RB3LYP/6-31G(2df,p) Fr
 eq
 ----------------------------------------------------------------------

 Structure from the checkpoint file:  "/scratch/puck/g09_75ae2e58-ec75-46a6-b8bd-f424d7a01cfd/Gau-61632.chk"
 -----
 titel
 -----
 Charge =  0 Multiplicity = 1

                         Standard orientation:
 ---------------------------------------------------------------------
 Center     Atomic      Atomic             Coordinates (Angstroms)
 Number     Number       Type             X           Y           Z
 ---------------------------------------------------------------------
      1          8           0       -1.832546    0.893946   -0.996232
      2          6           0       -1.094319    0.251442    0.007186
      3          6           0       -1.733495   -0.985688    0.579023
      4          6           0       -0.513596   -1.102828   -0.298986
      5          8           0        0.688094   -1.450681    0.318827
      6          6           0        1.814740   -0.882072   -0.329148
      7          6           0        1.939393    0.618816   -0.252665
      8          6           0        1.084791    1.498274    0.273128
      9          6           0       -0.256750    1.163119    0.894650
     10          1           0       -1.200350    1.299573   -1.601913
     11          1           0       -1.610060   -1.181056    1.638121
     12          1           0       -2.677818   -1.299981    0.150208
     13          1           0       -0.649528   -1.497189   -1.307650
     14          1           0        2.691474   -1.339322    0.147217
     15          1           0        1.841950   -1.195764   -1.388786
     16          1           0        2.872689    0.989304   -0.676227
     17          1           0        1.372986    2.547036    0.269409
     18          1           0       -0.101239    0.687638    1.868720
     19          1           0       -0.829072    2.077269    1.081002
 ---------------------------------------------------------------------

 SCF Done:  E(RB3LYP) =  -423.163674225     A.U. after    1 cycles

 The electronic state is 1-A.
 Alpha  occ. eigenvalues --  -19.14670 -19.14065 -10.23670 -10.23443 -10.22717
 Alpha  occ. eigenvalues --  -10.18714 -10.18610 -10.18557 -10.18157  -1.04509
 Alpha  occ. eigenvalues --   -1.02398  -0.84272  -0.79907  -0.72043  -0.67322
 Alpha  occ. eigenvalues --   -0.59638  -0.56902  -0.55233  -0.52307  -0.48409
 Alpha  occ. eigenvalues --   -0.47438  -0.45560  -0.43999  -0.42648  -0.39733
 Alpha  occ. eigenvalues --   -0.39048  -0.37151  -0.36228  -0.33861  -0.31485
 Alpha  occ. eigenvalues --   -0.30964  -0.26877  -0.24690  -0.23000
 Alpha virt. eigenvalues --    0.01232   0.08520   0.08933   0.11080   0.12215
 Alpha virt. eigenvalues --    0.13354   0.14206   0.15667   0.16629   0.17112
 Alpha virt. eigenvalues --    0.18075   0.18913   0.20413   0.22459   0.22585

 Mulliken charges:
               1
     1  O   -0.466519
     2  C    0.376722
     3  C   -0.363962
     4  C    0.034486
     5  O   -0.239939
     6  C   -0.127673
     7  C   -0.034129
     8  C   -0.098294
     9  C   -0.319469
    10  H    0.279679
    11  H    0.123907
    12  H    0.123572
    13  H    0.084327
    14  H    0.119729
    15  H    0.097576
    16  H    0.088900
    17  H    0.088986
    18  H    0.124010
    19  H    0.108093
 Sum of Mulliken charges =   0.00000

 Dipole moment (field-independent basis, Debye):
    X=              1.4122    Y=              0.7372    Z=             -0.7612  Tot=              1.7656
 Quadrupole moment (field-independent basis, Debye-Ang):
   XX=            -54.0567   YY=            -53.4823   ZZ=            -50.9999
   XY=              2.0178   XZ=             -2.8272   YZ=              0.6543

  Exact polarizability:  86.726  -0.744  77.616  -7.679   2.946  64.737
 Approx polarizability: 120.700  -9.097 114.997 -12.365   4.278 101.238

                      1                      2                      3
                      A                      A                      A
 Frequencies --    127.4391               159.4539               259.4571
 Red. masses --      2.5051                 3.3812                 4.0069
 Frc consts  --      0.0240                 0.0507                 0.1589
 IR Inten    --      0.9999                 0.5907                 3.2594

                      4                      5                      6
                      A                      A                      A
 Frequencies --    311.8085               339.4921               381.2049
 Red. masses --      2.1120                 1.2727                 3.1044
 Frc consts  --      0.1210                 0.0864                 0.2658
 IR Inten    --      5.5629                48.7941                 2.5822

                      7                      8                      9
                      A                      A                      A
 Frequencies --    391.9486               420.8738               447.4918
 Red. masses --      3.3826                 3.4625                 2.8786
 Frc consts  --      0.3062                 0.3614                 0.3396
 IR Inten    --     33.6210                 6.0215                 9.2712

                     10                     11                     12
                      A                      A                      A
 Frequencies --    458.7392               594.0072               664.2365
 Red. masses --      2.4186                 3.6292                 1.3165
 Frc consts  --      0.2999                 0.7545                 0.3422
 IR Inten    --      2.8327                 6.5513                15.4632

                     13                     14                     15
                      A                      A                      A
 Frequencies --    757.4370               805.7258               841.8646
 Red. masses --      2.9972                 2.6279                 2.9730
 Frc consts  --      1.0131                 1.0051                 1.2415
 IR Inten    --     12.3458                 0.7165                10.7079

                     16                     17                     18
                      A                      A                      A
 Frequencies --    866.6248               907.7733               929.0213
 Red. masses --      2.9139                 1.5642                 2.7558
 Frc consts  --      1.2894                 0.7595                 1.4014
 IR Inten    --      2.0340                 6.6889                10.0381

                     19                     20                     21
                      A                      A                      A
 Frequencies --    945.7563               974.7843              1000.4056
 Red. masses --      2.7590                 2.1362                 1.2211
 Frc consts  --      1.4540                 1.1960                 0.7200
 IR Inten    --     19.2588                 2.5666                 0.7671

                     22                     23                     24
                      A                      A                      A
 Frequencies --   1018.5408              1041.4692              1078.2876
 Red. masses --      1.8537                 1.4418                 2.5259
 Frc consts  --      1.1330                 0.9214                 1.7303
 IR Inten    --      1.3000                11.1503                11.9777

                     25                     26                     27
                      A                      A                      A
 Frequencies --   1085.9974              1111.2294              1165.3867
 Red. masses --      2.4113                 1.6906                 1.9021
 Frc consts  --      1.6756                 1.2300                 1.5220
 IR Inten    --     15.0108                35.2395                62.0316

                     28                     29                     30
                      A                      A                      A
 Frequencies --   1200.6781              1243.7070              1272.2648
 Red. masses --      1.7283                 1.1622                 1.3421
 Frc consts  --      1.4680                 1.0591                 1.2800
 IR Inten    --     32.7905                15.4334                96.5765

                     31                     32                     33
                      A                      A                      A
 Frequencies --   1281.0403              1298.4606              1324.1539
 Red. masses --      2.0418                 1.3638                 1.2791
 Frc consts  --      1.9742                 1.3548                 1.3214
 IR Inten    --     13.5168                 6.4337                 6.4886

                     34                     35                     36
                      A                      A                      A
 Frequencies --   1363.0676              1401.2524              1415.2312
 Red. masses --      1.6728                 1.4029                 1.5105
 Frc consts  --      1.8312                 1.6230                 1.7824
 IR Inten    --     18.9761                16.5208                 5.2219

                     37                     38                     39
                      A                      A                      A
 Frequencies --   1421.4116              1467.7417              1477.6879
 Red. masses --      1.3063                 1.1116                 1.1960
 Frc consts  --      1.5550                 1.4110                 1.5387
 IR Inten    --      6.1034                 5.7348                 6.6069

                     40                     41                     42
                      A                      A                      A
 Frequencies --   1490.8780              1724.9499              2940.5496
 Red. masses --      1.6547                 6.7964                 1.0721
 Frc consts  --      2.1669                11.9147                 5.4620
 IR Inten    --     19.2022                 0.7648                57.9184

                     43                     44                     45
                      A                      A                      A
 Frequencies --   3040.3619              3045.2032              3085.0979
 Red. masses --      1.0872                 1.0602                 1.0989
 Frc consts  --      5.9213                 5.7925                 6.1625
 IR Inten    --     30.8326                19.5509                15.9629

                     46                     47                     48
                      A                      A                      A
 Frequencies --   3087.6839              3125.7633              3142.3856
 Red. masses --      1.0903                 1.0838                 1.0546
 Frc consts  --      6.1241                 6.2392                 6.1353
 IR Inten    --     26.1989                10.5394                 5.9344

                     49                     50                     51
                      A                      A                      A
 Frequencies --   3155.2436              3237.0326              3776.6103
 Red. masses --      1.0941                 1.1177                 1.0657
 Frc consts  --      6.4174                 6.9003                 8.9553
 IR Inten    --     34.7571                 3.2850                11.4357

 - Thermochemistry -
 -------------------
 Temperature   298.150 Kelvin.  Pressure   1.00000 Atm.
 Atom     1 has atomic number  8 and mass  15.99491

 Molecular mass:   126.06808 amu.
 Principal axes and moments of inertia in atomic units:
                           1         2         3
     Eigenvalues --   722.615291061.492961432.70361
           X            0.99895   0.03834  -0.02489
           Y           -0.03770   0.99897   0.02539
           Z            0.02584  -0.02443   0.99937
 This molecule is an asymmetric top.
 Rotational symmetry number  1.
 Warning -- assumption of classical behavior for rotation
           may cause significant error
 Rotational temperatures (Kelvin)      0.11986     0.08160     0.06045
 Rotational constants (GHZ):           2.49751     1.70019     1.25968
 Zero-point vibrational energy     419320.5 (Joules/Mol)
                                  100.22000 (Kcal/Mol)
 Warning -- explicit consideration of  11 degrees of freedom as
           vibrations may cause significant error
 Vibrational temperatures:    183.36   229.42   373.30   448.62   488.45
          (Kelvin)            548.47   563.93   605.54   643.84   660.02
                              854.64   955.69  1089.78  1159.26  1211.25
                             1246.88  1306.08  1336.65  1360.73  1402.50
                             1439.36  1465.45  1498.44  1551.41  1562.51
                             1598.81  1676.73  1727.51  1789.41  1830.50
                             1843.13  1868.19  1905.16  1961.15  2016.09
                             2036.20  2045.09  2111.75  2126.06  2145.04
                             2481.82  4230.79  4374.40  4381.36  4438.76
                             4442.48  4497.27  4521.19  4539.69  4657.36
                             5433.69

 Zero-point correction=                           0.159711 (Hartree/Particle)
 Thermal correction to Energy=                    0.167662
 Thermal correction to Enthalpy=                  0.168606
 Thermal correction to Gibbs Free Energy=         0.127727
 Sum of electronic and zero-point Energies=           -423.003963
 Sum of electronic and thermal Energies=              -422.996013
 Sum of electronic and thermal Enthalpies=            -422.995068
 Sum of electronic and thermal Free Energies=         -423.035947

                     E (Thermal)             CV                S
                      KCal/Mol        Cal/Mol-Kelvin    Cal/Mol-Kelvin
 Total                  105.209             31.989             86.037
 Electronic               0.000              0.000              0.000
 Translational            0.889              2.981             40.409
 Rotational               0.889              2.981             28.487
 Vibrational            103.432             26.027             17.141
 Vibration     1          0.611              1.926              2.984
 Vibration     2          0.621              1.892              2.556
 Vibration     3          0.668              1.747              1.665
 Vibration     4          0.700              1.651              1.353
 Vibration     5          0.719              1.597              1.215
 Vibration     6          0.751              1.510              1.034
 Vibration     7          0.759              1.487              0.993
 Vibration     8          0.783              1.425              0.889
 Vibration     9          0.807              1.366              0.803
 Vibration    10          0.817              1.342              0.770
 Vibration    11          0.952              1.045              0.460

 Normal termination of Gaussian 09 at Mon Jan 27 18:43:33 2020.
