 Gaussian 09, Revision D.01,
 Gaussian 09:  ES64L-G09RevD.01 24-Apr-2013

 -----------------------------
 # b3lyp 6-31G(2df,p) opt Freq
 -----------------------------

 -----
 titel
 -----
 Symbolic Z-matrix:
 Charge =  0 Multiplicity = 1

 SCF Done:  E(RB3LYP) =  -423.181107119     A.U. after   14 cycles
 Optimization completed.
    -- Stationary point found.
 Normal termination of Gaussian 09 at Tue Jan 28 04:03:05 2020.

 ----------------------------------------------------------------------
 #N Geom=AllCheck Guess=TCheck SCRF=Check GenChk RB3LYP/6-31G(2df,p) Fr
 eq
 ----------------------------------------------------------------------

 Structure from the checkpoint file:  "/scratch/puck/g09_beb3b28d-de98-4f30-9161-6193b8985d9f/Gau-117296.chk"
 -----
 titel
 -----
 Charge =  0 Multiplicity = 1

                         Standard orientation:
 ---------------------------------------------------------------------
 Center     Atomic      Atomic             Coordinates (Angstroms)
 Number     Number       Type             X           Y           Z
 ---------------------------------------------------------------------
      1          8           0        1.514401    1.459645   -0.949204
      2          6           0        1.177614    0.131951   -0.666657
      3          6           0        2.069242   -0.721233    0.264663
      4          6           0        0.777332   -1.359319    0.840375
      5          6           0       -0.055029   -0.184875    0.268844
      6          6           0       -0.633576    0.964941    1.144448
      7          6           0       -1.974353    0.910628    0.346380
      8          6           0       -1.436307   -0.347660   -0.353993
      9          8           0       -1.912338   -1.177484   -1.076923
     10          1           0        1.841342    1.867157   -0.140264
     11          1           0        1.023277   -0.357419   -1.632943
     12          1           0        2.817347   -1.369419   -0.197199
     13          1           0        2.566798   -0.089770    1.009887
     14          1           0        0.513563   -2.295955    0.341862
     15          1           0        0.728479   -1.506958    1.921266
     16          1           0       -0.743328    0.691449    2.196445
     17          1           0       -0.102502    1.917084    1.077741
     18          1           0       -2.897212    0.775069    0.916345
     19          1           0       -2.113810    1.744877   -0.348495
 ---------------------------------------------------------------------

 SCF Done:  E(RB3LYP) =  -423.181107119     A.U. after    1 cycles

 The electronic state is 1-A.
 Alpha  occ. eigenvalues --  -19.15182 -19.13237 -10.26092 -10.24397 -10.19538
 Alpha  occ. eigenvalues --  -10.19433 -10.19359 -10.19168 -10.19105  -1.04035
 Alpha  occ. eigenvalues --   -1.03499  -0.86437  -0.80704  -0.66467  -0.66179
 Alpha  occ. eigenvalues --   -0.63420  -0.58842  -0.54359  -0.49265  -0.47823
 Alpha  occ. eigenvalues --   -0.46176  -0.44115  -0.42223  -0.41646  -0.39983
 Alpha  occ. eigenvalues --   -0.39093  -0.38349  -0.36612  -0.34597  -0.33788
 Alpha  occ. eigenvalues --   -0.31753  -0.30452  -0.27520  -0.23188
 Alpha virt. eigenvalues --   -0.02145   0.05997   0.08498   0.09683   0.10499
 Alpha virt. eigenvalues --    0.13788   0.14316   0.15229   0.16635   0.17134
 Alpha virt. eigenvalues --    0.18178   0.18498   0.19343   0.21214   0.21735

 Mulliken charges:
               1
     1  O   -0.417851
     2  C    0.100920
     3  C   -0.267595
     4  C   -0.299640
     5  C    0.202153
     6  C   -0.318641
     7  C   -0.336287
     8  C    0.337856
     9  O   -0.309916
    10  H    0.283527
    11  H    0.113472
    12  H    0.109673
    13  H    0.095707
    14  H    0.127944
    15  H    0.107194
    16  H    0.109877
    17  H    0.094947
    18  H    0.128560
    19  H    0.138100
 Sum of Mulliken charges =   0.00000

 Dipole moment (field-independent basis, Debye):
    X=              1.6462    Y=              1.2344    Z=              2.7920  Tot=              3.4682
 Quadrupole moment (field-independent basis, Debye-Ang):
   XX=            -54.3310   YY=            -53.9839   ZZ=            -55.0534
   XY=             -3.9043   XZ=             -1.3291   YZ=              0.5239

  Exact polarizability:  85.662  -2.927  75.272   1.070   3.779  68.401
 Approx polarizability: 114.684   3.809 113.879   4.213   8.962 106.670

                      1                      2                      3
                      A                      A                      A
 Frequencies --     42.6938                92.4295               130.4069
 Red. masses --      2.5994                 3.3630                 3.6150
 Frc consts  --      0.0028                 0.0169                 0.0362
 IR Inten    --      3.1984                 0.9106                 0.8134

                      4                      5                      6
                      A                      A                      A
 Frequencies --    225.1449               258.4072               323.9492
 Red. masses --      3.6160                 2.9142                 1.1850
 Frc consts  --      0.1080                 0.1147                 0.0733
 IR Inten    --      9.0733                 0.7771                77.3486

                      7                      8                      9
                      A                      A                      A
 Frequencies --    380.4042               422.7658               496.0176
 Red. masses --      2.4794                 2.7459                 2.7341
 Frc consts  --      0.2114                 0.2892                 0.3963
 IR Inten    --     17.8259                25.0781                 1.3853

                     10                     11                     12
                      A                      A                      A
 Frequencies --    528.1830               590.8735               661.8270
 Red. masses --      2.4766                 3.4868                 3.3642
 Frc consts  --      0.4071                 0.7173                 0.8682
 IR Inten    --      4.5223                 1.3841                 2.6243

                     13                     14                     15
                      A                      A                      A
 Frequencies --    726.6940               737.0229               780.9682
 Red. masses --      1.4443                 2.8412                 1.4792
 Frc consts  --      0.4494                 0.9093                 0.5315
 IR Inten    --      2.2441                 0.4295                 2.9636

                     16                     17                     18
                      A                      A                      A
 Frequencies --    844.0954               871.7659               930.2708
 Red. masses --      2.5210                 2.1088                 2.8534
 Frc consts  --      1.0583                 0.9442                 1.4549
 IR Inten    --     20.4419                 3.6720                 9.2841

                     19                     20                     21
                      A                      A                      A
 Frequencies --    942.4016               963.7755              1034.5785
 Red. masses --      2.6616                 2.3010                 3.9205
 Frc consts  --      1.3927                 1.2593                 2.4724
 IR Inten    --      0.6790                24.2916                28.3274

                     22                     23                     24
                      A                      A                      A
 Frequencies --   1050.8801              1080.0675              1110.5062
 Red. masses --      1.3487                 1.6223                 2.6743
 Frc consts  --      0.8775                 1.1150                 1.9431
 IR Inten    --     20.6796                22.7044                28.6299

                     25                     26                     27
                      A                      A                      A
 Frequencies --   1145.2941              1160.2163              1186.2561
 Red. masses --      3.1642                 1.8432                 2.1854
 Frc consts  --      2.4454                 1.4619                 1.8119
 IR Inten    --    106.3859                13.4399                22.2376

                     28                     29                     30
                      A                      A                      A
 Frequencies --   1210.4089              1220.7665              1232.9351
 Red. masses --      1.5304                 1.2977                 1.2346
 Frc consts  --      1.3211                 1.1395                 1.1057
 IR Inten    --      7.4248                 5.2208                 4.5997

                     31                     32                     33
                      A                      A                      A
 Frequencies --   1244.3026              1261.7288              1282.9511
 Red. masses --      1.4382                 1.4251                 1.9879
 Frc consts  --      1.3120                 1.3367                 1.9278
 IR Inten    --     10.4573                 2.5719                41.3047

                     34                     35                     36
                      A                      A                      A
 Frequencies --   1293.4558              1321.3020              1428.2228
 Red. masses --      1.5436                 1.5243                 1.2061
 Frc consts  --      1.5216                 1.5679                 1.4496
 IR Inten    --      2.1879                 2.0541                53.8612

                     37                     38                     39
                      A                      A                      A
 Frequencies --   1433.9238              1476.1927              1479.7448
 Red. masses --      1.1000                 1.0922                 1.0987
 Frc consts  --      1.3325                 1.4022                 1.4174
 IR Inten    --      4.0871                 5.1948                 2.4536

                     40                     41                     42
                      A                      A                      A
 Frequencies --   1493.1001              1876.7133              3040.5698
 Red. masses --      1.1351                12.7264                 1.0634
 Frc consts  --      1.4909                26.4090                 5.7926
 IR Inten    --      5.9711               245.0719                29.0151

                     43                     44                     45
                      A                      A                      A
 Frequencies --   3057.9280              3064.2529              3067.3597
 Red. masses --      1.0585                 1.0591                 1.0593
 Frc consts  --      5.8314                 5.8592                 5.8722
 IR Inten    --     15.3193                23.1987                26.2420

                     46                     47                     48
                      A                      A                      A
 Frequencies --   3072.9411              3105.3749              3107.6957
 Red. masses --      1.0845                 1.1031                 1.1061
 Frc consts  --      6.0337                 6.2672                 6.2938
 IR Inten    --      7.6461                23.5584                 4.7554

                     49                     50                     51
                      A                      A                      A
 Frequencies --   3121.8751              3123.8858              3811.8925
 Red. masses --      1.1078                 1.1067                 1.0658
 Frc consts  --      6.3611                 6.3629                 9.1242
 IR Inten    --     26.2623                23.7993                17.2756

 - Thermochemistry -
 -------------------
 Temperature   298.150 Kelvin.  Pressure   1.00000 Atm.
 Atom     1 has atomic number  8 and mass  15.99491

 Molecular mass:   126.06808 amu.
 Principal axes and moments of inertia in atomic units:
                           1         2         3
     Eigenvalues --   749.024591293.952531460.74960
           X            0.99789  -0.06417  -0.00982
           Y            0.06430   0.99783   0.01383
           Z            0.00891  -0.01443   0.99986
 This molecule is an asymmetric top.
 Rotational symmetry number  1.
 Warning -- assumption of classical behavior for rotation
           may cause significant error
 Rotational temperatures (Kelvin)      0.11564     0.06694     0.05929
 Rotational constants (GHZ):           2.40946     1.39475     1.23549
 Zero-point vibrational energy     415985.9 (Joules/Mol)
                                   99.42303 (Kcal/Mol)
 Warning -- explicit consideration of  11 degrees of freedom as
           vibrations may cause significant error
 Vibrational temperatures:     61.43   132.99   187.63   323.93   371.79
          (Kelvin)            466.09   547.32   608.26   713.66   759.94
                              850.13   952.22  1045.55  1060.41  1123.64
                             1214.46  1254.28  1338.45  1355.90  1386.66
                             1488.53  1511.98  1553.97  1597.77  1647.82
                             1669.29  1706.76  1741.51  1756.41  1773.92
                             1790.27  1815.34  1845.88  1860.99  1901.06
                             2054.89  2063.09  2123.91  2129.02  2148.24
                             2700.17  4374.70  4399.67  4408.77  4413.24
                             4421.27  4467.94  4471.28  4491.68  4494.57
                             5484.46

 Zero-point correction=                           0.158441 (Hartree/Particle)
 Thermal correction to Energy=                    0.167138
 Thermal correction to Enthalpy=                  0.168082
 Thermal correction to Gibbs Free Energy=         0.124411
 Sum of electronic and zero-point Energies=           -423.022666
 Sum of electronic and thermal Energies=              -423.013969
 Sum of electronic and thermal Enthalpies=            -423.013025
 Sum of electronic and thermal Free Energies=         -423.056697

                     E (Thermal)             CV                S
                      KCal/Mol        Cal/Mol-Kelvin    Cal/Mol-Kelvin
 Total                  104.880             32.737             91.914
 Electronic               0.000              0.000              0.000
 Translational            0.889              2.981             40.409
 Rotational               0.889              2.981             28.739
 Vibrational            103.103             26.775             22.766
 Vibration     1          0.595              1.980              5.130
 Vibration     2          0.602              1.955              3.608
 Vibration     3          0.612              1.923              2.940
 Vibration     4          0.650              1.803              1.917
 Vibration     5          0.667              1.749              1.673
 Vibration     6          0.709              1.628              1.290
 Vibration     7          0.750              1.512              1.038
 Vibration     8          0.785              1.421              0.883
 Vibration     9          0.852              1.259              0.668
 Vibration    10          0.883              1.188              0.591
 Vibration    11          0.948              1.051              0.466

 Optimization completed.
    -- Stationary point found.
 Normal termination of Gaussian 09 at Tue Jan 28 04:42:47 2020.
