 Gaussian 09, Revision D.01,
 Gaussian 09:  ES64L-G09RevD.01 24-Apr-2013

 -----------------------------
 # b3lyp 6-31G(2df,p) opt Freq
 -----------------------------

 -----
 titel
 -----
 Symbolic Z-matrix:
 Charge =  0 Multiplicity = 1

 SCF Done:  E(RB3LYP) =  -423.177843358     A.U. after   14 cycles
 Optimization completed.
    -- Stationary point found.
 Normal termination of Gaussian 09 at Tue Jan 28 11:38:00 2020.

 ----------------------------------------------------------------------
 #N Geom=AllCheck Guess=TCheck SCRF=Check GenChk RB3LYP/6-31G(2df,p) Fr
 eq
 ----------------------------------------------------------------------

 Structure from the checkpoint file:  "/scratch/puck/g09_f5f2c49f-44c0-4bb5-9f4b-a718441d118e/Gau-24647.chk"
 -----
 titel
 -----
 Charge =  0 Multiplicity = 1

                         Standard orientation:
 ---------------------------------------------------------------------
 Center     Atomic      Atomic             Coordinates (Angstroms)
 Number     Number       Type             X           Y           Z
 ---------------------------------------------------------------------
      1          8           0        3.108093   -0.272103   -0.364349
      2          6           0        2.174503    0.525768    0.334007
      3          6           0        0.800915    0.415152   -0.309283
      4          8           0        0.398769   -0.982251   -0.353946
      5          6           0       -0.651818   -0.764600    0.623543
      6          6           0       -2.055281   -1.042981    0.065133
      7          6           0       -2.494906    0.309479   -0.449435
      8          6           0       -1.629686    1.281899   -0.158531
      9          6           0       -0.420426    0.771223    0.574244
     10          1           0        2.688126   -1.137357   -0.454666
     11          1           0        2.107020    0.234056    1.396016
     12          1           0        2.532844    1.560867    0.294170
     13          1           0        0.814017    0.844187   -1.317996
     14          1           0       -0.435701   -1.290786    1.558378
     15          1           0       -1.999755   -1.803469   -0.722821
     16          1           0       -2.738085   -1.428763    0.833890
     17          1           0       -3.425145    0.449273   -0.989408
     18          1           0       -1.748385    2.325344   -0.429191
     19          1           0       -0.189625    1.305832    1.499913
 ---------------------------------------------------------------------

 SCF Done:  E(RB3LYP) =  -423.177843358     A.U. after    1 cycles

 The electronic state is 1-A.
 Alpha  occ. eigenvalues --  -19.13847 -19.12762 -10.23788 -10.23266 -10.22369
 Alpha  occ. eigenvalues --  -10.19750 -10.18899 -10.18875 -10.18638  -1.04504
 Alpha  occ. eigenvalues --   -1.00749  -0.83476  -0.75615  -0.70087  -0.69489
 Alpha  occ. eigenvalues --   -0.61740  -0.55438  -0.53446  -0.52472  -0.49476
 Alpha  occ. eigenvalues --   -0.48056  -0.46424  -0.42476  -0.41403  -0.39285
 Alpha  occ. eigenvalues --   -0.38950  -0.37758  -0.36141  -0.34107  -0.32092
 Alpha  occ. eigenvalues --   -0.30303  -0.27573  -0.25444  -0.24294
 Alpha virt. eigenvalues --    0.01449   0.07305   0.09517   0.11796   0.12653
 Alpha virt. eigenvalues --    0.12759   0.14165   0.14821   0.15772   0.16160
 Alpha virt. eigenvalues --    0.16357   0.16980   0.19332   0.21126   0.21762

 Mulliken charges:
               1
     1  O   -0.421780
     2  C   -0.071498
     3  C    0.114984
     4  O   -0.324384
     5  C    0.122528
     6  C   -0.275872
     7  C   -0.061011
     8  C   -0.086194
     9  C   -0.141465
    10  H    0.291427
    11  H    0.079866
    12  H    0.105783
    13  H    0.085132
    14  H    0.077444
    15  H    0.123832
    16  H    0.105250
    17  H    0.097958
    18  H    0.097516
    19  H    0.080484
 Sum of Mulliken charges =   0.00000

 Dipole moment (field-independent basis, Debye):
    X=             -2.2863    Y=              0.6293    Z=              1.1259  Tot=              2.6250
 Quadrupole moment (field-independent basis, Debye-Ang):
   XX=            -59.1343   YY=            -50.2405   ZZ=            -52.8785
   XY=              0.9621   XZ=              2.2106   YZ=             -0.8905

  Exact polarizability:  91.449   6.792  76.546   3.685  -1.159  61.531
 Approx polarizability: 120.751  14.112 120.383   3.462   2.110  95.765

                      1                      2                      3
                      A                      A                      A
 Frequencies --     90.0235               126.7713               149.9347
 Red. masses --      5.5015                 2.6215                 4.1328
 Frc consts  --      0.0263                 0.0248                 0.0547
 IR Inten    --      1.4718                 3.2633                 0.7371

                      4                      5                      6
                      A                      A                      A
 Frequencies --    251.5242               335.9771               364.3071
 Red. masses --      2.6260                 3.1914                 4.2626
 Frc consts  --      0.0979                 0.2123                 0.3333
 IR Inten    --      0.2200                 2.0140                 5.3207

                      7                      8                      9
                      A                      A                      A
 Frequencies --    441.4768               482.7840               561.0104
 Red. masses --      2.2080                 1.1264                 2.7769
 Frc consts  --      0.2535                 0.1547                 0.5149
 IR Inten    --      3.0120               112.3916                 8.2680

                     10                     11                     12
                      A                      A                      A
 Frequencies --    675.3907               739.5590               772.5440
 Red. masses --      4.1662                 1.3442                 4.0054
 Frc consts  --      1.1197                 0.4332                 1.4084
 IR Inten    --      1.7175                20.7977                 5.8034

                     13                     14                     15
                      A                      A                      A
 Frequencies --    822.9401               849.7131               884.9770
 Red. masses --      3.5846                 2.2587                 2.3477
 Frc consts  --      1.4303                 0.9608                 1.0833
 IR Inten    --      8.0498                12.7161                26.3001

                     16                     17                     18
                      A                      A                      A
 Frequencies --    904.5370               954.1298               973.5771
 Red. masses --      2.8264                 2.4723                 1.2733
 Frc consts  --      1.3625                 1.3261                 0.7111
 IR Inten    --     14.1082                17.5164                 1.6049

                     19                     20                     21
                      A                      A                      A
 Frequencies --    986.7111              1015.0068              1026.8924
 Red. masses --      2.4709                 2.0152                 2.5408
 Frc consts  --      1.4174                 1.2232                 1.5786
 IR Inten    --      3.3962                22.0452                25.9811

                     22                     23                     24
                      A                      A                      A
 Frequencies --   1034.0985              1071.5984              1093.1733
 Red. masses --      3.0745                 2.4806                 3.3502
 Frc consts  --      1.9371                 1.6783                 2.3588
 IR Inten    --     76.4502                18.3951                54.1824

                     25                     26                     27
                      A                      A                      A
 Frequencies --   1100.9343              1130.9739              1180.1103
 Red. masses --      2.3376                 1.1107                 1.1913
 Frc consts  --      1.6693                 0.8370                 0.9775
 IR Inten    --      3.9899                 0.3417                10.6783

                     28                     29                     30
                      A                      A                      A
 Frequencies --   1209.2054              1224.7370              1227.9408
 Red. masses --      1.3620                 1.3296                 1.7110
 Frc consts  --      1.1734                 1.1750                 1.5201
 IR Inten    --      7.1172                 0.5791                16.0010

                     31                     32                     33
                      A                      A                      A
 Frequencies --   1270.3070              1303.7568              1323.0009
 Red. masses --      1.5078                 1.4335                 1.2643
 Frc consts  --      1.4336                 1.4357                 1.3038
 IR Inten    --      1.6222                 4.2908                 2.4948

                     34                     35                     36
                      A                      A                      A
 Frequencies --   1338.6938              1357.0648              1384.9136
 Red. masses --      1.7305                 1.3348                 1.6451
 Frc consts  --      1.8272                 1.4483                 1.8590
 IR Inten    --     11.0643                 5.2134                 8.7735

                     37                     38                     39
                      A                      A                      A
 Frequencies --   1398.0974              1436.5890              1466.5774
 Red. masses --      1.2874                 1.3321                 1.0949
 Frc consts  --      1.4827                 1.6197                 1.3876
 IR Inten    --     13.9578                70.4164                 2.9427

                     40                     41                     42
                      A                      A                      A
 Frequencies --   1500.3646              1677.9412              2959.6239
 Red. masses --      1.0948                 6.2624                 1.0702
 Frc consts  --      1.4520                10.3884                 5.5232
 IR Inten    --      0.4602                 1.2889                46.6010

                     43                     44                     45
                      A                      A                      A
 Frequencies --   3018.3521              3041.8493              3055.3017
 Red. masses --      1.0648                 1.0847                 1.0861
 Frc consts  --      5.7156                 5.9135                 5.9737
 IR Inten    --     27.1796                33.2340                34.4990

                     46                     47                     48
                      A                      A                      A
 Frequencies --   3063.0532              3066.9828              3070.9236
 Red. masses --      1.0968                 1.0929                 1.0874
 Frc consts  --      6.0627                 6.0571                 6.0422
 IR Inten    --     10.8243                47.5953                49.9827

                     49                     50                     51
                      A                      A                      A
 Frequencies --   3182.3043              3206.8723              3771.2038
 Red. masses --      1.0844                 1.1035                 1.0653
 Frc consts  --      6.4703                 6.6864                 8.9261
 IR Inten    --      4.8117                21.3426                26.1551

 - Thermochemistry -
 -------------------
 Temperature   298.150 Kelvin.  Pressure   1.00000 Atm.
 Atom     1 has atomic number  8 and mass  15.99491

 Molecular mass:   126.06808 amu.
 Principal axes and moments of inertia in atomic units:
                           1         2         3
     Eigenvalues --   421.444611645.131501859.01522
           X            0.99988   0.01259   0.00890
           Y           -0.01242   0.99975  -0.01885
           Z           -0.00914   0.01874   0.99978
 This molecule is an asymmetric top.
 Rotational symmetry number  1.
 Rotational temperatures (Kelvin)      0.20552     0.05265     0.04659
 Rotational constants (GHZ):           4.28227     1.09702     0.97080
 Zero-point vibrational energy     422140.2 (Joules/Mol)
                                  100.89393 (Kcal/Mol)
 Warning -- explicit consideration of   9 degrees of freedom as
           vibrations may cause significant error
 Vibrational temperatures:    129.52   182.40   215.72   361.89   483.40
          (Kelvin)            524.16   635.19   694.62   807.17   971.74
                             1064.06  1111.52  1184.03  1222.55  1273.28
                             1301.43  1372.78  1400.76  1419.66  1460.37
                             1477.47  1487.84  1541.79  1572.83  1584.00
                             1627.22  1697.91  1739.77  1762.12  1766.73
                             1827.69  1875.81  1903.50  1926.08  1952.51
                             1992.58  2011.55  2066.93  2110.08  2158.69
                             2414.18  4258.23  4342.73  4376.54  4395.89
                             4407.04  4412.70  4418.37  4578.62  4613.97
                             5425.91

 Zero-point correction=                           0.160785 (Hartree/Particle)
 Thermal correction to Energy=                    0.168628
 Thermal correction to Enthalpy=                  0.169572
 Thermal correction to Gibbs Free Energy=         0.128166
 Sum of electronic and zero-point Energies=           -423.017059
 Sum of electronic and thermal Energies=              -423.009215
 Sum of electronic and thermal Enthalpies=            -423.008271
 Sum of electronic and thermal Free Energies=         -423.049678

                     E (Thermal)             CV                S
                      KCal/Mol        Cal/Mol-Kelvin    Cal/Mol-Kelvin
 Total                  105.816             30.380             87.147
 Electronic               0.000              0.000              0.000
 Translational            0.889              2.981             40.409
 Rotational               0.889              2.981             28.646
 Vibrational            104.038             24.418             18.093
 Vibration     1          0.602              1.956              3.660
 Vibration     2          0.611              1.926              2.994
 Vibration     3          0.618              1.903              2.673
 Vibration     4          0.663              1.760              1.720
 Vibration     5          0.717              1.604              1.231
 Vibration     6          0.738              1.546              1.104
 Vibration     7          0.801              1.380              0.822
 Vibration     8          0.839              1.288              0.703
 Vibration     9          0.917              1.116              0.522

 Optimization completed.
    -- Stationary point found.
 Normal termination of Gaussian 09 at Tue Jan 28 12:20:03 2020.
