 Gaussian 09, Revision D.01,
 Gaussian 09:  ES64L-G09RevD.01 24-Apr-2013

 -----------------------------
 # b3lyp 6-31G(2df,p) opt Freq
 -----------------------------

 -----
 titel
 -----
 Symbolic Z-matrix:
 Charge =  0 Multiplicity = 1

 SCF Done:  E(RB3LYP) =  -423.123858757     A.U. after   14 cycles
 Optimization completed.
    -- Stationary point found.
 Normal termination of Gaussian 09 at Mon Jan 27 15:30:30 2020.

 ----------------------------------------------------------------------
 #N Geom=AllCheck Guess=TCheck SCRF=Check GenChk RB3LYP/6-31G(2df,p) Fr
 eq
 ----------------------------------------------------------------------

 Structure from the checkpoint file:  "/scratch/puck/g09_18029619-fd0e-43b4-b56b-1251a4c3f51a/Gau-35645.chk"
 -----
 titel
 -----
 Charge =  0 Multiplicity = 1

                         Standard orientation:
 ---------------------------------------------------------------------
 Center     Atomic      Atomic             Coordinates (Angstroms)
 Number     Number       Type             X           Y           Z
 ---------------------------------------------------------------------
      1          6           0       -1.744175   -1.003644   -1.086921
      2          6           0       -0.781657   -0.948231    0.098412
      3          8           0       -1.471514   -0.819133    1.331450
      4          6           0        0.289390    0.163405   -0.028305
      5          6           0        1.442950   -0.027253    0.999017
      6          8           0        2.320581   -0.538625   -0.022815
      7          6           0        1.406900   -0.158521   -1.064267
      8          6           0       -0.321500    1.478838   -0.078564
      9          6           0       -0.852924    2.558748   -0.094700
     10          1           0       -2.286349   -0.057842   -1.189332
     11          1           0       -1.216664   -1.193961   -2.027067
     12          1           0       -2.470081   -1.805657   -0.931352
     13          1           0       -0.240855   -1.898934    0.174598
     14          1           0       -1.927170    0.031907    1.315681
     15          1           0        1.815501    0.908088    1.432698
     16          1           0        1.245498   -0.753917    1.792894
     17          1           0        1.755625    0.714018   -1.629798
     18          1           0        1.198993   -0.983324   -1.755627
     19          1           0       -1.300932    3.521633   -0.119805
 ---------------------------------------------------------------------

 SCF Done:  E(RB3LYP) =  -423.123858757     A.U. after    1 cycles

 The electronic state is 1-A.
 Alpha  occ. eigenvalues --  -19.14001 -19.13868 -10.24386 -10.24049 -10.23529
 Alpha  occ. eigenvalues --  -10.22347 -10.19422 -10.18756 -10.18034  -1.04703
 Alpha  occ. eigenvalues --   -1.02394  -0.81340  -0.74978  -0.71978  -0.69811
 Alpha  occ. eigenvalues --   -0.62686  -0.59612  -0.53710  -0.51416  -0.50718
 Alpha  occ. eigenvalues --   -0.46957  -0.45241  -0.44799  -0.42476  -0.41217
 Alpha  occ. eigenvalues --   -0.38803  -0.37621  -0.35231  -0.33084  -0.32775
 Alpha  occ. eigenvalues --   -0.28937  -0.27503  -0.26592  -0.25315
 Alpha virt. eigenvalues --    0.03154   0.03650   0.07725   0.08954   0.10461
 Alpha virt. eigenvalues --    0.11372   0.12887   0.13015   0.14456   0.16335
 Alpha virt. eigenvalues --    0.17101   0.17872   0.18993   0.19903   0.20759

 Mulliken charges:
               1
     1  C   -0.420117
     2  C    0.079048
     3  O   -0.437921
     4  C    0.075758
     5  C   -0.117719
     6  O   -0.270835
     7  C   -0.119370
     8  C    0.249972
     9  C   -0.442649
    10  H    0.125273
    11  H    0.118113
    12  H    0.128847
    13  H    0.099865
    14  H    0.283908
    15  H    0.106457
    16  H    0.125118
    17  H    0.107894
    18  H    0.107873
    19  H    0.200487
 Sum of Mulliken charges =   0.00000

 Dipole moment (field-independent basis, Debye):
    X=             -1.4265    Y=              1.3431    Z=             -1.0200  Tot=              2.2090
 Quadrupole moment (field-independent basis, Debye-Ang):
   XX=            -57.4166   YY=            -50.0361   ZZ=            -53.4663
   XY=             -1.7516   XZ=              0.9809   YZ=              2.5572

  Exact polarizability:  75.270  -7.641  86.433   0.744   1.254  68.540
 Approx polarizability: 106.417 -20.953 134.147  -1.515  -0.055  99.848

                      1                      2                      3
                      A                      A                      A
 Frequencies --     86.1833                95.0175               140.4405
 Red. masses --      4.4903                 3.7121                 3.8595
 Frc consts  --      0.0197                 0.0197                 0.0449
 IR Inten    --      2.8837                 2.6589                 0.0129

                      4                      5                      6
                      A                      A                      A
 Frequencies --    176.3901               197.1978               238.0783
 Red. masses --      3.6425                 2.3372                 1.1073
 Frc consts  --      0.0668                 0.0535                 0.0370
 IR Inten    --      0.0438                 0.2293                 0.5649

                      7                      8                      9
                      A                      A                      A
 Frequencies --    307.8884               333.5122               381.3049
 Red. masses --      2.4311                 2.3530                 1.3005
 Frc consts  --      0.1358                 0.1542                 0.1114
 IR Inten    --      4.3768                15.5713                81.6762

                     10                     11                     12
                      A                      A                      A
 Frequencies --    427.4776               479.3912               526.2937
 Red. masses --      3.9107                 2.9177                 6.0389
 Frc consts  --      0.4211                 0.3951                 0.9855
 IR Inten    --     10.8244                20.6479                 1.2701

                     13                     14                     15
                      A                      A                      A
 Frequencies --    549.6635               627.1212               647.6857
 Red. masses --      4.9122                 1.2205                 1.2277
 Frc consts  --      0.8744                 0.2828                 0.3034
 IR Inten    --      5.2672                43.9056                40.1586

                     16                     17                     18
                      A                      A                      A
 Frequencies --    667.5103               802.5096               874.2924
 Red. masses --      3.1611                 2.7931                 2.5740
 Frc consts  --      0.8298                 1.0598                 1.1592
 IR Inten    --      5.5894                 7.1426                12.1856

                     19                     20                     21
                      A                      A                      A
 Frequencies --    922.8508               974.2301               978.7298
 Red. masses --      1.9799                 1.4089                 3.3027
 Frc consts  --      0.9935                 0.7879                 1.8640
 IR Inten    --     10.2140                 1.7231                15.4367

                     22                     23                     24
                      A                      A                      A
 Frequencies --   1024.0922              1040.3785              1047.0739
 Red. masses --      1.9645                 8.6027                 4.1841
 Frc consts  --      1.2139                 5.4861                 2.7027
 IR Inten    --      9.2266                86.5902                 7.1216

                     25                     26                     27
                      A                      A                      A
 Frequencies --   1095.9592              1128.7382              1151.5303
 Red. masses --      1.9727                 2.9224                 1.8112
 Frc consts  --      1.3961                 2.1937                 1.4150
 IR Inten    --     41.0374                71.7868                 2.8464

                     28                     29                     30
                      A                      A                      A
 Frequencies --   1157.2322              1169.8833              1252.4394
 Red. masses --      1.2319                 1.5982                 2.4973
 Frc consts  --      0.9720                 1.2888                 2.3080
 IR Inten    --      0.9123                 3.1583                 6.2148

                     31                     32                     33
                      A                      A                      A
 Frequencies --   1301.8703              1316.0006              1359.9268
 Red. masses --      1.2553                 1.5752                 1.3641
 Frc consts  --      1.2535                 1.6073                 1.4864
 IR Inten    --      0.3115                18.0270                 7.5643

                     34                     35                     36
                      A                      A                      A
 Frequencies --   1369.3960              1405.3287              1430.0471
 Red. masses --      1.4986                 1.2596                 1.1865
 Frc consts  --      1.6557                 1.4657                 1.4296
 IR Inten    --      2.3223                11.7699                54.4562

                     37                     38                     39
                      A                      A                      A
 Frequencies --   1491.5522              1494.7365              1509.7270
 Red. masses --      1.0497                 1.0563                 1.0746
 Frc consts  --      1.3759                 1.3905                 1.4431
 IR Inten    --      7.0649                 0.1008                 0.0635

                     40                     41                     42
                      A                      A                      A
 Frequencies --   1534.6363              2224.3968              3015.9740
 Red. masses --      1.1066                 5.9781                 1.0533
 Frc consts  --      1.5356                17.4277                 5.6449
 IR Inten    --      1.6695                 2.2806                76.3637

                     43                     44                     45
                      A                      A                      A
 Frequencies --   3030.0655              3039.1618              3046.0307
 Red. masses --      1.0586                 1.0363                 1.0851
 Frc consts  --      5.7264                 5.6395                 5.9320
 IR Inten    --     21.9639                11.2635                14.4698

                     46                     47                     48
                      A                      A                      A
 Frequencies --   3067.5544              3088.6845              3109.1652
 Red. masses --      1.1110                 1.1096                 1.1007
 Frc consts  --      6.1597                 6.2368                 6.2693
 IR Inten    --     36.5745                27.9979                25.9107

                     49                     50                     51
                      A                      A                      A
 Frequencies --   3123.9391              3498.1734              3776.3413
 Red. masses --      1.1017                 1.1606                 1.0655
 Frc consts  --      6.3343                 8.3677                 8.9527
 IR Inten    --     18.1844                74.8037                19.1294

 - Thermochemistry -
 -------------------
 Temperature   298.150 Kelvin.  Pressure   1.00000 Atm.
 Atom     1 has atomic number  6 and mass  12.00000

 Molecular mass:   126.06808 amu.
 Principal axes and moments of inertia in atomic units:
                           1         2         3
     Eigenvalues --   910.158701212.831841499.35989
           X            0.99912   0.02844   0.03088
           Y           -0.02998   0.99827   0.05049
           Z           -0.02939  -0.05137   0.99825
 This molecule is an asymmetric top.
 Rotational symmetry number  1.
 Warning -- assumption of classical behavior for rotation
           may cause significant error
 Rotational temperatures (Kelvin)      0.09516     0.07141     0.05777
 Rotational constants (GHZ):           1.98289     1.48804     1.20367
 Zero-point vibrational energy     411119.4 (Joules/Mol)
                                   98.25991 (Kcal/Mol)
 Warning -- explicit consideration of  13 degrees of freedom as
           vibrations may cause significant error
 Vibrational temperatures:    124.00   136.71   202.06   253.79   283.72
          (Kelvin)            342.54   442.98   479.85   548.61   615.04
                              689.74   757.22   790.84   902.29   931.87
                              960.40  1154.63  1257.91  1327.77  1401.70
                             1408.17  1473.44  1496.87  1506.50  1576.84
                             1624.00  1656.79  1665.00  1683.20  1801.98
                             1873.10  1893.43  1956.63  1970.25  2021.95
                             2057.52  2146.01  2150.59  2172.16  2208.00
                             3200.41  4339.31  4359.58  4372.67  4382.55
                             4413.52  4443.92  4473.39  4494.65  5033.08
                             5433.31

 Zero-point correction=                           0.156587 (Hartree/Particle)
 Thermal correction to Energy=                    0.166253
 Thermal correction to Enthalpy=                  0.167197
 Thermal correction to Gibbs Free Energy=         0.122227
 Sum of electronic and zero-point Energies=           -422.967272
 Sum of electronic and thermal Energies=              -422.957606
 Sum of electronic and thermal Enthalpies=            -422.956662
 Sum of electronic and thermal Free Energies=         -423.001631

                     E (Thermal)             CV                S
                      KCal/Mol        Cal/Mol-Kelvin    Cal/Mol-Kelvin
 Total                  104.325             35.810             94.646
 Electronic               0.000              0.000              0.000
 Translational            0.889              2.981             40.409
 Rotational               0.889              2.981             28.894
 Vibrational            102.548             29.848             25.343
 Vibration     1          0.601              1.959              3.745
 Vibration     2          0.603              1.953              3.554
 Vibration     3          0.615              1.913              2.798
 Vibration     4          0.628              1.871              2.366
 Vibration     5          0.637              1.844              2.159
 Vibration     6          0.656              1.782              1.817
 Vibration     7          0.698              1.659              1.374
 Vibration     8          0.715              1.609              1.243
 Vibration     9          0.751              1.510              1.034
 Vibration    10          0.789              1.410              0.867
 Vibration    11          0.836              1.296              0.712
 Vibration    12          0.881              1.192              0.596
 Vibration    13          0.905              1.140              0.545

 Optimization completed.
    -- Stationary point found.
 Normal termination of Gaussian 09 at Mon Jan 27 16:11:47 2020.
