 Gaussian 09, Revision D.01,
 Gaussian 09:  ES64L-G09RevD.01 24-Apr-2013

 -----------------------------
 # b3lyp 6-31G(2df,p) opt Freq
 -----------------------------

 -----
 titel
 -----
 Symbolic Z-matrix:
 Charge =  0 Multiplicity = 1

 SCF Done:  E(RB3LYP) =  -423.166404040     A.U. after   14 cycles
 Optimization completed.
    -- Stationary point found.
 Normal termination of Gaussian 09 at Tue Jan 28 00:44:45 2020.

 ----------------------------------------------------------------------
 #N Geom=AllCheck Guess=TCheck SCRF=Check GenChk RB3LYP/6-31G(2df,p) Fr
 eq
 ----------------------------------------------------------------------

 Structure from the checkpoint file:  "/scratch/puck/g09_e8f1a335-6dad-4995-89c8-661b783d18f3/Gau-189849.chk"
 -----
 titel
 -----
 Charge =  0 Multiplicity = 1

                         Standard orientation:
 ---------------------------------------------------------------------
 Center     Atomic      Atomic             Coordinates (Angstroms)
 Number     Number       Type             X           Y           Z
 ---------------------------------------------------------------------
      1          8           0        3.015332   -0.775481   -0.450568
      2          6           0        2.017212   -0.183110    0.369166
      3          6           0        0.650101   -0.917094    0.345695
      4          6           0       -0.437197    0.188653    0.406044
      5          6           0        0.331220    1.429417   -0.005901
      6          6           0        1.647314    1.230597   -0.019060
      7          6           0       -1.645369   -0.088594   -0.459982
      8          6           0       -2.992011    0.379713   -0.108247
      9          8           0       -2.622997   -0.989331    0.065148
     10          1           0        2.707643   -0.721282   -1.362475
     11          1           0        2.458677   -0.201621    1.373893
     12          1           0        0.574450   -1.453030   -0.608649
     13          1           0        0.547308   -1.660374    1.138334
     14          1           0       -0.802753    0.303073    1.436386
     15          1           0       -0.166980    2.369051   -0.221953
     16          1           0        2.404399    1.974959   -0.240449
     17          1           0       -1.424958   -0.245335   -1.518722
     18          1           0       -3.141154    0.942412    0.812899
     19          1           0       -3.722933    0.573154   -0.892191
 ---------------------------------------------------------------------

 SCF Done:  E(RB3LYP) =  -423.166404040     A.U. after    1 cycles

 The electronic state is 1-A.
 Alpha  occ. eigenvalues --  -19.15104 -19.13404 -10.23941 -10.23513 -10.23390
 Alpha  occ. eigenvalues --  -10.19915 -10.19119 -10.18378 -10.18299  -1.07130
 Alpha  occ. eigenvalues --   -1.01641  -0.84553  -0.73340  -0.70913  -0.66353
 Alpha  occ. eigenvalues --   -0.62092  -0.58339  -0.55047  -0.51932  -0.49528
 Alpha  occ. eigenvalues --   -0.48002  -0.45211  -0.44143  -0.41299  -0.39041
 Alpha  occ. eigenvalues --   -0.38175  -0.36847  -0.36179  -0.35294  -0.32585
 Alpha  occ. eigenvalues --   -0.29927  -0.27400  -0.26801  -0.25246
 Alpha virt. eigenvalues --    0.00457   0.08958   0.09980   0.10424   0.11430
 Alpha virt. eigenvalues --    0.11962   0.12173   0.13633   0.14385   0.16901
 Alpha virt. eigenvalues --    0.17160   0.18119   0.19218   0.20512   0.21055

 Mulliken charges:
               1
     1  O   -0.431619
     2  C    0.106828
     3  C   -0.265711
     4  C   -0.052213
     5  C   -0.081840
     6  C   -0.128990
     7  C    0.090032
     8  C   -0.185703
     9  O   -0.238941
    10  H    0.272777
    11  H    0.096779
    12  H    0.098419
    13  H    0.114238
    14  H    0.088004
    15  H    0.098988
    16  H    0.102693
    17  H    0.088604
    18  H    0.112513
    19  H    0.115140
 Sum of Mulliken charges =   0.00000

 Dipole moment (field-independent basis, Debye):
    X=             -0.6997    Y=              2.1420    Z=             -0.7942  Tot=              2.3892
 Quadrupole moment (field-independent basis, Debye-Ang):
   XX=            -60.2306   YY=            -54.7611   ZZ=            -49.4169
   XY=             -2.6026   XZ=             -0.1040   YZ=              0.6190

  Exact polarizability: 100.968  -4.582  69.523  -1.254  -0.792  61.798
 Approx polarizability: 137.951  -7.968 104.524  -4.241  -1.582  96.487

                      1                      2                      3
                      A                      A                      A
 Frequencies --     56.0215                69.5375               166.8717
 Red. masses --      3.3667                 4.2674                 3.4821
 Frc consts  --      0.0062                 0.0122                 0.0571
 IR Inten    --      0.4448                 2.4410                 1.9384

                      4                      5                      6
                      A                      A                      A
 Frequencies --    215.2887               306.3880               341.0969
 Red. masses --      2.6929                 2.2572                 1.6235
 Frc consts  --      0.0735                 0.1248                 0.1113
 IR Inten    --      2.5921                14.1164                45.3516

                      7                      8                      9
                      A                      A                      A
 Frequencies --    371.8729               384.8526               491.7435
 Red. masses --      2.2041                 4.1433                 3.5186
 Frc consts  --      0.1796                 0.3616                 0.5013
 IR Inten    --      3.0002                35.5181                 4.0130

                     10                     11                     12
                      A                      A                      A
 Frequencies --    556.2802               601.4049               765.5912
 Red. masses --      2.6339                 2.8693                 4.0449
 Frc consts  --      0.4802                 0.6115                 1.3968
 IR Inten    --      0.8993                 7.3023                 0.6527

                     13                     14                     15
                      A                      A                      A
 Frequencies --    781.4965               838.6246               862.0657
 Red. masses --      1.4504                 2.0543                 4.5770
 Frc consts  --      0.5219                 0.8512                 2.0041
 IR Inten    --     33.9259                 6.9752                12.9264

                     16                     17                     18
                      A                      A                      A
 Frequencies --    869.2772               915.9243               951.6924
 Red. masses --      3.5664                 2.3593                 1.7526
 Frc consts  --      1.5878                 1.1662                 0.9353
 IR Inten    --     16.6979                24.7754                13.8599

                     19                     20                     21
                      A                      A                      A
 Frequencies --    984.6782              1003.9199              1033.9757
 Red. masses --      1.2932                 2.4638                 2.1420
 Frc consts  --      0.7388                 1.4630                 1.3493
 IR Inten    --      4.2311                 8.5444                15.2452

                     22                     23                     24
                      A                      A                      A
 Frequencies --   1038.5360              1085.6774              1110.7601
 Red. masses --      1.7933                 1.8506                 1.6799
 Frc consts  --      1.1396                 1.2852                 1.2212
 IR Inten    --     11.4342                59.5421                34.3515

                     25                     26                     27
                      A                      A                      A
 Frequencies --   1135.3913              1149.4964              1159.6353
 Red. masses --      1.5689                 1.4915                 1.3862
 Frc consts  --      1.1916                 1.1611                 1.0983
 IR Inten    --      1.6563                19.3123                 5.5976

                     28                     29                     30
                      A                      A                      A
 Frequencies --   1174.5090              1190.1797              1245.0080
 Red. masses --      1.4066                 1.8311                 1.2972
 Frc consts  --      1.1433                 1.5282                 1.1847
 IR Inten    --      5.5522                 0.0435                 2.5477

                     31                     32                     33
                      A                      A                      A
 Frequencies --   1275.3036              1285.1702              1291.9781
 Red. masses --      1.4190                 1.3741                 1.5829
 Frc consts  --      1.3597                 1.3372                 1.5568
 IR Inten    --     10.4741                 4.8873                 5.8034

                     34                     35                     36
                      A                      A                      A
 Frequencies --   1308.9914              1325.7561              1373.5911
 Red. masses --      1.3994                 1.3374                 1.6316
 Frc consts  --      1.4127                 1.3850                 1.8137
 IR Inten    --      3.9847                 1.9545                 2.2861

                     37                     38                     39
                      A                      A                      A
 Frequencies --   1429.7405              1444.5296              1484.7980
 Red. masses --      1.2552                 1.7250                 1.0897
 Frc consts  --      1.5118                 2.1208                 1.4154
 IR Inten    --     76.4898                16.0888                 3.2156

                     40                     41                     42
                      A                      A                      A
 Frequencies --   1528.9509              1681.7956              3004.6038
 Red. masses --      1.3536                 6.8091                 1.0821
 Frc consts  --      1.8643                11.3472                 5.7557
 IR Inten    --      3.5324                 1.5396                13.7524

                     43                     44                     45
                      A                      A                      A
 Frequencies --   3026.0962              3037.6317              3078.7125
 Red. masses --      1.0830                 1.0690                 1.0599
 Frc consts  --      5.8431                 5.8118                 5.9189
 IR Inten    --     22.4481                27.1314                36.6875

                     46                     47                     48
                      A                      A                      A
 Frequencies --   3083.1351              3115.0013              3166.0915
 Red. masses --      1.0774                 1.0962                 1.1193
 Frc consts  --      6.0343                 6.2671                 6.6108
 IR Inten    --     17.1490                24.4522                28.6377

                     49                     50                     51
                      A                      A                      A
 Frequencies --   3177.6779              3205.2074              3794.0658
 Red. masses --      1.0849                 1.1039                 1.0659
 Frc consts  --      6.4546                 6.6819                 9.0401
 IR Inten    --      6.1764                15.9531                10.3668

 - Thermochemistry -
 -------------------
 Temperature   298.150 Kelvin.  Pressure   1.00000 Atm.
 Atom     1 has atomic number  8 and mass  15.99491

 Molecular mass:   126.06808 amu.
 Principal axes and moments of inertia in atomic units:
                           1         2         3
     Eigenvalues --   426.910711980.411982246.79416
           X            0.99994  -0.01102   0.00235
           Y            0.01102   0.99993  -0.00331
           Z           -0.00232   0.00334   0.99999
 This molecule is an asymmetric top.
 Rotational symmetry number  1.
 Rotational temperatures (Kelvin)      0.20289     0.04374     0.03855
 Rotational constants (GHZ):           4.22744     0.91130     0.80325
 Zero-point vibrational energy     418553.2 (Joules/Mol)
                                  100.03661 (Kcal/Mol)
 Warning -- explicit consideration of  11 degrees of freedom as
           vibrations may cause significant error
 Vibrational temperatures:     80.60   100.05   240.09   309.75   440.82
          (Kelvin)            490.76   535.04   553.72   707.51   800.36
                              865.29  1101.51  1124.40  1206.59  1240.32
                             1250.69  1317.81  1369.27  1416.73  1444.41
                             1487.66  1494.22  1562.05  1598.13  1633.57
                             1653.87  1668.45  1689.85  1712.40  1791.29
                             1834.88  1849.07  1858.87  1883.34  1907.46
                             1976.29  2057.08  2078.35  2136.29  2199.82
                             2419.73  4322.95  4353.87  4370.47  4429.58
                             4435.94  4481.79  4555.29  4571.96  4611.57
                             5458.81

 Zero-point correction=                           0.159418 (Hartree/Particle)
 Thermal correction to Energy=                    0.167890
 Thermal correction to Enthalpy=                  0.168835
 Thermal correction to Gibbs Free Energy=         0.125511
 Sum of electronic and zero-point Energies=           -423.006986
 Sum of electronic and thermal Energies=              -422.998514
 Sum of electronic and thermal Enthalpies=            -422.997569
 Sum of electronic and thermal Free Energies=         -423.040893

                     E (Thermal)             CV                S
                      KCal/Mol        Cal/Mol-Kelvin    Cal/Mol-Kelvin
 Total                  105.353             31.887             91.183
 Electronic               0.000              0.000              0.000
 Translational            0.889              2.981             40.409
 Rotational               0.889              2.981             29.031
 Vibrational            103.575             25.925             21.743
 Vibration     1          0.596              1.975              4.593
 Vibration     2          0.598              1.969              4.166
 Vibration     3          0.624              1.883              2.470
 Vibration     4          0.645              1.818              1.998
 Vibration     5          0.697              1.662              1.382
 Vibration     6          0.721              1.593              1.207
 Vibration     7          0.744              1.530              1.072
 Vibration     8          0.754              1.503              1.020
 Vibration     9          0.847              1.268              0.679
 Vibration    10          0.912              1.126              0.531
 Vibration    11          0.960              1.029              0.447

 Optimization completed.
    -- Stationary point found.
 Normal termination of Gaussian 09 at Tue Jan 28 01:24:30 2020.
