 Gaussian 09, Revision D.01,
 Gaussian 09:  ES64L-G09RevD.01 24-Apr-2013

 -----------------------------
 # b3lyp 6-31G(2df,p) opt Freq
 -----------------------------

 -----
 titel
 -----
 Symbolic Z-matrix:
 Charge =  0 Multiplicity = 1

 SCF Done:  E(RB3LYP) =  -423.162165589     A.U. after   14 cycles
 Optimization completed.
    -- Stationary point found.
 Normal termination of Gaussian 09 at Tue Jan 28 03:56:24 2020.

 ----------------------------------------------------------------------
 #N Geom=AllCheck Guess=TCheck SCRF=Check GenChk RB3LYP/6-31G(2df,p) Fr
 eq
 ----------------------------------------------------------------------

 Structure from the checkpoint file:  "/scratch/puck/g09_7edefa14-04e6-410f-9330-0db05cfcbbee/Gau-116813.chk"
 -----
 titel
 -----
 Charge =  0 Multiplicity = 1

                         Standard orientation:
 ---------------------------------------------------------------------
 Center     Atomic      Atomic             Coordinates (Angstroms)
 Number     Number       Type             X           Y           Z
 ---------------------------------------------------------------------
      1          8           0       -2.249229   -1.018292   -0.070498
      2          6           0       -1.634186    0.018670    0.674785
      3          6           0       -1.419201    1.312118   -0.157393
      4          6           0        0.062142    1.297276   -0.623834
      5          6           0        0.649283   -0.045889   -0.121808
      6          8           0        0.370064   -1.010818   -1.163830
      7          6           0       -0.209614   -0.357560    1.125413
      8          6           0        2.085392   -0.008082    0.144830
      9          6           0        3.265973   -0.008958    0.372506
     10          1           0       -1.622746   -1.249823   -0.770281
     11          1           0       -2.294124    0.194117    1.528507
     12          1           0       -2.125794    1.324285   -0.989910
     13          1           0       -1.618632    2.199025    0.451290
     14          1           0        0.182983    1.359021   -1.706942
     15          1           0        0.625772    2.120766   -0.180277
     16          1           0        0.789736   -1.841009   -0.909507
     17          1           0       -0.129464   -1.400730    1.442933
     18          1           0        0.116863    0.281003    1.953706
     19          1           0        4.309993    0.000769    0.568116
 ---------------------------------------------------------------------

 SCF Done:  E(RB3LYP) =  -423.162165589     A.U. after    1 cycles

 The electronic state is 1-A.
 Alpha  occ. eigenvalues --  -19.15928 -19.11665 -10.26776 -10.22702 -10.18874
 Alpha  occ. eigenvalues --  -10.18805 -10.18579 -10.18479 -10.17856  -1.04081
 Alpha  occ. eigenvalues --   -1.00185  -0.83120  -0.76051  -0.71741  -0.70022
 Alpha  occ. eigenvalues --   -0.60213  -0.58200  -0.56080  -0.51492  -0.49866
 Alpha  occ. eigenvalues --   -0.47222  -0.44122  -0.43689  -0.40006  -0.39130
 Alpha  occ. eigenvalues --   -0.37897  -0.36224  -0.35221  -0.34156  -0.31807
 Alpha  occ. eigenvalues --   -0.29343  -0.28051  -0.26956  -0.25051
 Alpha virt. eigenvalues --    0.02840   0.04403   0.06989   0.09919   0.11080
 Alpha virt. eigenvalues --    0.11998   0.14719   0.15206   0.15784   0.17401
 Alpha virt. eigenvalues --    0.17598   0.18074   0.19448   0.21397   0.22021

 Mulliken charges:
               1
     1  O   -0.448772
     2  C    0.137738
     3  C   -0.242185
     4  C   -0.234226
     5  C    0.180068
     6  O   -0.464601
     7  C   -0.264044
     8  C    0.244860
     9  C   -0.413849
    10  H    0.280466
    11  H    0.073326
    12  H    0.114384
    13  H    0.101221
    14  H    0.123071
    15  H    0.115010
    16  H    0.288104
    17  H    0.103377
    18  H    0.109688
    19  H    0.196363
 Sum of Mulliken charges =   0.00000

 Dipole moment (field-independent basis, Debye):
    X=              2.0193    Y=              0.4137    Z=              0.7385  Tot=              2.1896
 Quadrupole moment (field-independent basis, Debye-Ang):
   XX=            -54.5621   YY=            -50.4340   ZZ=            -53.5561
   XY=             -4.4609   XZ=              0.8704   YZ=              0.9770

  Exact polarizability:  99.903  -1.652  67.568   3.548   0.329  63.624
 Approx polarizability: 142.708   0.514  98.472   9.244   3.755  96.841

                      1                      2                      3
                      A                      A                      A
 Frequencies --     61.4826               138.0038               144.0576
 Red. masses --      2.3744                 4.2322                 3.4930
 Frc consts  --      0.0053                 0.0475                 0.0427
 IR Inten    --      0.9599                 0.4710                 0.6660

                      4                      5                      6
                      A                      A                      A
 Frequencies --    228.7172               316.5714               356.8757
 Red. masses --      4.2910                 1.3878                 3.7151
 Frc consts  --      0.1323                 0.0819                 0.2788
 IR Inten    --      1.5848                56.8217                 9.5491

                      7                      8                      9
                      A                      A                      A
 Frequencies --    370.2248               404.7760               432.0602
 Red. masses --      2.3591                 2.1348                 2.5025
 Frc consts  --      0.1905                 0.2061                 0.2752
 IR Inten    --     48.0494                10.8981                 1.6743

                     10                     11                     12
                      A                      A                      A
 Frequencies --    513.0914               533.4651               583.3779
 Red. masses --      4.1776                 4.9246                 3.0409
 Frc consts  --      0.6480                 0.8257                 0.6098
 IR Inten    --      3.9035                 4.3852                24.6923

                     13                     14                     15
                      A                      A                      A
 Frequencies --    593.4673               628.5833               672.0212
 Red. masses --      1.3318                 1.2351                 1.2641
 Frc consts  --      0.2764                 0.2875                 0.3364
 IR Inten    --     63.4942                42.9171                33.4085

                     16                     17                     18
                      A                      A                      A
 Frequencies --    742.6421               766.0142               796.0952
 Red. masses --      3.4223                 1.6774                 3.7008
 Frc consts  --      1.1121                 0.5799                 1.3819
 IR Inten    --     13.6690                 0.6352                 3.6264

                     19                     20                     21
                      A                      A                      A
 Frequencies --    840.4659               890.4352               940.0295
 Red. masses --      2.8705                 2.3599                 2.5709
 Frc consts  --      1.1947                 1.1024                 1.3385
 IR Inten    --      4.3777                16.2759                16.4575

                     22                     23                     24
                      A                      A                      A
 Frequencies --    961.2756               985.5602              1041.2590
 Red. masses --      1.9910                 2.5821                 2.5787
 Frc consts  --      1.0839                 1.4777                 1.6473
 IR Inten    --      3.8779                13.0731                49.0635

                     25                     26                     27
                      A                      A                      A
 Frequencies --   1075.6358              1085.6399              1109.7748
 Red. masses --      1.8318                 1.9244                 3.1991
 Frc consts  --      1.2487                 1.3364                 2.3214
 IR Inten    --     50.6507                 3.7764                48.9058

                     28                     29                     30
                      A                      A                      A
 Frequencies --   1186.8668              1197.1766              1254.1912
 Red. masses --      1.3583                 1.4257                 1.3939
 Frc consts  --      1.1273                 1.2039                 1.2919
 IR Inten    --     15.4479                61.9729                13.8909

                     31                     32                     33
                      A                      A                      A
 Frequencies --   1278.7494              1287.3207              1314.0081
 Red. masses --      1.5814                 1.3047                 1.3748
 Frc consts  --      1.5236                 1.2739                 1.3986
 IR Inten    --      7.7214                 2.6221                21.7980

                     34                     35                     36
                      A                      A                      A
 Frequencies --   1334.8445              1345.3270              1374.1739
 Red. masses --      1.4459                 1.3942                 1.6836
 Frc consts  --      1.5179                 1.4867                 1.8732
 IR Inten    --     16.8377                 1.8933                33.7971

                     37                     38                     39
                      A                      A                      A
 Frequencies --   1461.6010              1472.6577              1476.9472
 Red. masses --      1.1261                 1.1622                 1.0772
 Frc consts  --      1.4174                 1.4850                 1.3844
 IR Inten    --     35.8191                52.0487                 1.0986

                     40                     41                     42
                      A                      A                      A
 Frequencies --   1498.1797              2233.2224              3048.1599
 Red. masses --      1.1021                 5.9312                 1.0620
 Frc consts  --      1.4575                17.4282                 5.8135
 IR Inten    --     11.2937                 0.5335                11.6998

                     43                     44                     45
                      A                      A                      A
 Frequencies --   3056.2608              3076.3924              3082.1242
 Red. masses --      1.0659                 1.0717                 1.0730
 Frc consts  --      5.8662                 5.9757                 6.0058
 IR Inten    --     17.0341                46.3191                25.3626

                     46                     47                     48
                      A                      A                      A
 Frequencies --   3105.5748              3107.3429              3130.5820
 Red. masses --      1.1036                 1.1024                 1.1052
 Frc consts  --      6.2709                 6.2715                 6.3816
 IR Inten    --     15.8480                 6.6172                20.8343

                     49                     50                     51
                      A                      A                      A
 Frequencies --   3499.7714              3736.6607              3800.3589
 Red. masses --      1.1621                 1.0653                 1.0661
 Frc consts  --      8.3861                 8.7634                 9.0718
 IR Inten    --     71.7391                87.0924                25.8728

 - Thermochemistry -
 -------------------
 Temperature   298.150 Kelvin.  Pressure   1.00000 Atm.
 Atom     1 has atomic number  8 and mass  15.99491

 Molecular mass:   126.06808 amu.
 Principal axes and moments of inertia in atomic units:
                           1         2         3
     Eigenvalues --   567.791131513.261371626.81027
           X            0.99986  -0.01671   0.00220
           Y            0.01679   0.99872  -0.04767
           Z           -0.00140   0.04770   0.99886
 This molecule is an asymmetric top.
 Rotational symmetry number  1.
 Warning -- assumption of classical behavior for rotation
           may cause significant error
 Rotational temperatures (Kelvin)      0.15255     0.05724     0.05324
 Rotational constants (GHZ):           3.17853     1.19262     1.10937
 Zero-point vibrational energy     416121.6 (Joules/Mol)
                                   99.45545 (Kcal/Mol)
 Warning -- explicit consideration of  13 degrees of freedom as
           vibrations may cause significant error
 Vibrational temperatures:     88.46   198.56   207.27   329.07   455.48
          (Kelvin)            513.46   532.67   582.38   621.64   738.22
                              767.54   839.35   853.87   904.39   966.89
                             1068.50  1102.12  1145.40  1209.24  1281.14
                             1352.49  1383.06  1418.00  1498.14  1547.60
                             1561.99  1596.72  1707.63  1722.47  1804.50
                             1839.83  1852.17  1890.56  1920.54  1935.62
                             1977.13  2102.92  2118.82  2125.00  2155.54
                             3213.10  4385.62  4397.27  4426.24  4434.48
                             4468.22  4470.77  4504.20  5035.38  5376.21
                             5467.86

 Zero-point correction=                           0.158492 (Hartree/Particle)
 Thermal correction to Energy=                    0.167423
 Thermal correction to Enthalpy=                  0.168368
 Thermal correction to Gibbs Free Energy=         0.125038
 Sum of electronic and zero-point Energies=           -423.003673
 Sum of electronic and thermal Energies=              -422.994742
 Sum of electronic and thermal Enthalpies=            -422.993798
 Sum of electronic and thermal Free Energies=         -423.037128

                     E (Thermal)             CV                S
                      KCal/Mol        Cal/Mol-Kelvin    Cal/Mol-Kelvin
 Total                  105.060             34.948             91.195
 Electronic               0.000              0.000              0.000
 Translational            0.889              2.981             40.409
 Rotational               0.889              2.981             28.726
 Vibrational            103.282             28.986             22.060
 Vibration     1          0.597              1.973              4.409
 Vibration     2          0.614              1.915              2.831
 Vibration     3          0.616              1.909              2.749
 Vibration     4          0.651              1.797              1.889
 Vibration     5          0.703              1.642              1.328
 Vibration     6          0.732              1.561              1.136
 Vibration     7          0.742              1.533              1.079
 Vibration     8          0.770              1.460              0.945
 Vibration     9          0.793              1.400              0.852
 Vibration    10          0.868              1.221              0.626
 Vibration    11          0.888              1.176              0.580
 Vibration    12          0.940              1.067              0.479
 Vibration    13          0.951              1.046              0.461

 Optimization completed.
    -- Stationary point found.
 Normal termination of Gaussian 09 at Tue Jan 28 04:37:42 2020.
