 Gaussian 09, Revision D.01,
 Gaussian 09:  ES64L-G09RevD.01 24-Apr-2013

 -----------------------------
 # b3lyp 6-31G(2df,p) opt Freq
 -----------------------------

 -----
 titel
 -----
 Symbolic Z-matrix:
 Charge =  0 Multiplicity = 1

 SCF Done:  E(RB3LYP) =  -423.166638789     A.U. after   14 cycles
 Optimization completed.
    -- Stationary point found.
 Normal termination of Gaussian 09 at Tue Jan 28 08:20:19 2020.

 ----------------------------------------------------------------------
 #N Geom=AllCheck Guess=TCheck SCRF=Check GenChk RB3LYP/6-31G(2df,p) Fr
 eq
 ----------------------------------------------------------------------

 Structure from the checkpoint file:  "/scratch/puck/g09_6ae5ddb8-f557-439a-92be-dc8f2e55c00a/Gau-106664.chk"
 -----
 titel
 -----
 Charge =  0 Multiplicity = 1

                         Standard orientation:
 ---------------------------------------------------------------------
 Center     Atomic      Atomic             Coordinates (Angstroms)
 Number     Number       Type             X           Y           Z
 ---------------------------------------------------------------------
      1          6           0        4.158037    0.333064   -0.385287
      2          6           0        2.826245   -0.142357   -0.037633
      3          6           0        1.730679   -0.546035    0.258042
      4          6           0        0.394126   -1.025925    0.591493
      5          6           0       -0.743789   -0.303068   -0.177901
      6          6           0       -2.114037   -0.951646    0.077429
      7          8           0       -3.136758   -0.390007   -0.711910
      8          6           0       -0.757679    1.177824    0.146515
      9          8           0       -1.761614    1.823619    0.348032
     10          1           0        4.136270    0.951182   -1.289466
     11          1           0        4.588000    0.938561    0.420019
     12          1           0        4.840774   -0.502903   -0.572689
     13          1           0        0.322557   -2.098408    0.370902
     14          1           0        0.219120   -0.929970    1.671682
     15          1           0       -0.518510   -0.372332   -1.252606
     16          1           0       -2.063149   -2.015646   -0.178737
     17          1           0       -2.345048   -0.886341    1.153792
     18          1           0       -3.194984    0.535142   -0.438472
     19          1           0        0.240455    1.660679    0.190653
 ---------------------------------------------------------------------

 SCF Done:  E(RB3LYP) =  -423.166638789     A.U. after    1 cycles

 The electronic state is 1-A.
 Alpha  occ. eigenvalues --  -19.15548 -19.12456 -10.28130 -10.23162 -10.22385
 Alpha  occ. eigenvalues --  -10.21058 -10.20841 -10.18393 -10.17943  -1.06103
 Alpha  occ. eigenvalues --   -1.00953  -0.82797  -0.77884  -0.72667  -0.67032
 Alpha  occ. eigenvalues --   -0.65806  -0.57173  -0.52161  -0.49751  -0.47577
 Alpha  occ. eigenvalues --   -0.46552  -0.44949  -0.43446  -0.43321  -0.42697
 Alpha  occ. eigenvalues --   -0.41630  -0.40987  -0.39395  -0.36432  -0.33397
 Alpha  occ. eigenvalues --   -0.27695  -0.26468  -0.25394  -0.25014
 Alpha virt. eigenvalues --   -0.03594   0.04653   0.05041   0.10019   0.10240
 Alpha virt. eigenvalues --    0.10981   0.12001   0.13881   0.15016   0.16298
 Alpha virt. eigenvalues --    0.17143   0.17454   0.19678   0.20212   0.21013

 Mulliken charges:
               1
     1  C   -0.498299
     2  C    0.111680
     3  C    0.022655
     4  C   -0.380307
     5  C   -0.105370
     6  C   -0.071701
     7  O   -0.429373
     8  C    0.162916
     9  O   -0.267839
    10  H    0.150599
    11  H    0.150862
    12  H    0.151710
    13  H    0.139587
    14  H    0.136008
    15  H    0.124542
    16  H    0.107397
    17  H    0.091742
    18  H    0.294889
    19  H    0.108301
 Sum of Mulliken charges =   0.00000

 Dipole moment (field-independent basis, Debye):
    X=              3.2973    Y=             -0.6938    Z=              0.4199  Tot=              3.3955
 Quadrupole moment (field-independent basis, Debye-Ang):
   XX=            -55.5384   YY=            -54.5248   ZZ=            -53.3341
   XY=              2.8013   XZ=             -3.8404   YZ=             -2.1689

  Exact polarizability: 113.857   6.325  71.327  -5.844  -1.508  58.536
 Approx polarizability: 153.440   8.370 106.173 -11.857  -1.667  90.739

                      1                      2                      3
                      A                      A                      A
 Frequencies --     29.3571                50.5729                72.2820
 Red. masses --      1.0247                 4.2005                 3.8136
 Frc consts  --      0.0005                 0.0063                 0.0117
 IR Inten    --      0.0161                 0.3861                 0.7761

                      4                      5                      6
                      A                      A                      A
 Frequencies --    101.2993               149.3652               212.2237
 Red. masses --      3.1355                 2.5974                 2.8809
 Frc consts  --      0.0190                 0.0341                 0.0764
 IR Inten    --      5.0294                 4.6686                 8.7834

                      7                      8                      9
                      A                      A                      A
 Frequencies --    226.3231               245.9315               312.7200
 Red. masses --      4.7094                 3.9852                 4.0868
 Frc consts  --      0.1421                 0.1420                 0.2355
 IR Inten    --      7.9270                 6.2977                 1.3170

                     10                     11                     12
                      A                      A                      A
 Frequencies --    339.7060               384.0649               410.0632
 Red. masses --      2.6109                 4.1443                 4.8486
 Frc consts  --      0.1775                 0.3602                 0.4804
 IR Inten    --      8.7528                 0.1249                 0.1480

                     13                     14                     15
                      A                      A                      A
 Frequencies --    499.2956               576.5369               652.1649
 Red. masses --      4.2698                 1.0912                 3.5437
 Frc consts  --      0.6271                 0.2137                 0.8880
 IR Inten    --      3.0337               139.3024                 5.7191

                     16                     17                     18
                      A                      A                      A
 Frequencies --    766.4305               825.5577               880.1011
 Red. masses --      3.9247                 2.8138                 1.4413
 Frc consts  --      1.3583                 1.1299                 0.6577
 IR Inten    --      0.2862                17.6126                 0.6717

                     19                     20                     21
                      A                      A                      A
 Frequencies --    919.9983              1044.8565              1051.9465
 Red. masses --      1.4829                 3.2985                 1.4144
 Frc consts  --      0.7395                 2.1217                 0.9222
 IR Inten    --      5.4842                 0.4428                 2.7256

                     22                     23                     24
                      A                      A                      A
 Frequencies --   1053.7702              1085.5630              1097.5379
 Red. masses --      1.4644                 2.0850                 3.2233
 Frc consts  --      0.9581                 1.4477                 2.2877
 IR Inten    --      0.8868                77.4383                48.5341

                     25                     26                     27
                      A                      A                      A
 Frequencies --   1114.5210              1169.9522              1197.9261
 Red. masses --      2.8024                 3.3355                 1.3354
 Frc consts  --      2.0510                 2.6900                 1.1291
 IR Inten    --     15.7051                 1.4131                 1.9830

                     28                     29                     30
                      A                      A                      A
 Frequencies --   1223.3709              1260.2512              1337.2721
 Red. masses --      1.2485                 1.1223                 1.4029
 Frc consts  --      1.1010                 1.0502                 1.4781
 IR Inten    --     11.7126                 8.9652                 8.7167

                     31                     32                     33
                      A                      A                      A
 Frequencies --   1369.8964              1388.9618              1415.4178
 Red. masses --      1.6999                 1.2213                 1.2465
 Frc consts  --      1.8795                 1.3883                 1.4713
 IR Inten    --     24.3379                 1.2552                 8.0469

                     34                     35                     36
                      A                      A                      A
 Frequencies --   1426.2188              1451.1282              1477.3508
 Red. masses --      1.2435                 1.2167                 1.0852
 Frc consts  --      1.4902                 1.5095                 1.3955
 IR Inten    --     27.5621                75.0125                 3.9876

                     37                     38                     39
                      A                      A                      A
 Frequencies --   1478.1435              1478.5670              1502.1943
 Red. masses --      1.0395                 1.0396                 1.0829
 Frc consts  --      1.3381                 1.3390                 1.4398
 IR Inten    --      5.5611                 6.0370                 0.4635

                     40                     41                     42
                      A                      A                      A
 Frequencies --   1801.8277              2371.5291              2927.0845
 Red. masses --      9.9635                11.8148                 1.0846
 Frc consts  --     19.0584                39.1500                 5.4751
 IR Inten    --    157.6905                 1.9207                76.0856

                     43                     44                     45
                      A                      A                      A
 Frequencies --   2968.0065              3009.5626              3018.2285
 Red. masses --      1.0697                 1.0731                 1.0668
 Frc consts  --      5.5518                 5.7264                 5.7260
 IR Inten    --     45.1738                 0.5408                35.2641

                     46                     47                     48
                      A                      A                      A
 Frequencies --   3028.8226              3047.4106              3065.5851
 Red. masses --      1.0348                 1.1001                 1.0934
 Frc consts  --      5.5931                 6.0195                 6.0541
 IR Inten    --     29.7530                 5.6081                36.2719

                     49                     50                     51
                      A                      A                      A
 Frequencies --   3090.1094              3090.6205              3760.1944
 Red. masses --      1.1001                 1.1003                 1.0650
 Frc consts  --      6.1893                 6.1924                 8.8721
 IR Inten    --      9.1363                 9.1768                70.1659

 - Thermochemistry -
 -------------------
 Temperature   298.150 Kelvin.  Pressure   1.00000 Atm.
 Atom     1 has atomic number  6 and mass  12.00000

 Molecular mass:   126.06808 amu.
 Principal axes and moments of inertia in atomic units:
                           1         2         3
     Eigenvalues --   510.955712584.078102911.33435
           X            0.99982   0.01658  -0.00923
           Y           -0.01688   0.99930  -0.03330
           Z            0.00867   0.03345   0.99940
 This molecule is an asymmetric top.
 Rotational symmetry number  1.
 Warning -- assumption of classical behavior for rotation
           may cause significant error
 Rotational temperatures (Kelvin)      0.16951     0.03352     0.02975
 Rotational constants (GHZ):           3.53209     0.69841     0.61990
 Zero-point vibrational energy     409468.7 (Joules/Mol)
                                   97.86537 (Kcal/Mol)
 Warning -- explicit consideration of  14 degrees of freedom as
           vibrations may cause significant error
 Vibrational temperatures:     42.24    72.76   104.00   145.75   214.90
          (Kelvin)            305.34   325.63   353.84   449.93   488.76
                              552.58   589.99   718.37   829.51   938.32
                             1102.72  1187.79  1266.27  1323.67  1503.31
                             1513.51  1516.14  1561.88  1579.11  1603.55
                             1683.30  1723.55  1760.16  1813.22  1924.03
                             1970.97  1998.40  2036.47  2052.01  2087.85
                             2125.58  2126.72  2127.33  2161.32  2592.42
                             3412.10  4211.42  4270.29  4330.08  4342.55
                             4357.79  4384.54  4410.69  4445.97  4446.71
                             5410.07

 Zero-point correction=                           0.155958 (Hartree/Particle)
 Thermal correction to Energy=                    0.166724
 Thermal correction to Enthalpy=                  0.167668
 Thermal correction to Gibbs Free Energy=         0.118172
 Sum of electronic and zero-point Energies=           -423.010680
 Sum of electronic and thermal Energies=              -422.999915
 Sum of electronic and thermal Enthalpies=            -422.998971
 Sum of electronic and thermal Free Energies=         -423.048467

                     E (Thermal)             CV                S
                      KCal/Mol        Cal/Mol-Kelvin    Cal/Mol-Kelvin
 Total                  104.621             36.507            104.173
 Electronic               0.000              0.000              0.000
 Translational            0.889              2.981             40.409
 Rotational               0.889              2.981             29.732
 Vibrational            102.843             30.546             34.033
 Vibration     1          0.593              1.984              5.872
 Vibration     2          0.595              1.977              4.795
 Vibration     3          0.598              1.967              4.090
 Vibration     4          0.604              1.948              3.429
 Vibration     5          0.618              1.903              2.680
 Vibration     6          0.643              1.822              2.024
 Vibration     7          0.650              1.801              1.908
 Vibration     8          0.660              1.770              1.760
 Vibration     9          0.701              1.649              1.348
 Vibration    10          0.720              1.596              1.214
 Vibration    11          0.753              1.504              1.023
 Vibration    12          0.774              1.448              0.926
 Vibration    13          0.855              1.252              0.660
 Vibration    14          0.933              1.082              0.492

 Optimization completed on the basis of negligible forces.
    -- Stationary point found.
 Normal termination of Gaussian 09 at Tue Jan 28 08:58:11 2020.
