 Gaussian 09, Revision D.01,
 Gaussian 09:  ES64L-G09RevD.01 24-Apr-2013

 -----------------------------
 # b3lyp 6-31G(2df,p) opt Freq
 -----------------------------

 -----
 titel
 -----
 Symbolic Z-matrix:
 Charge =  0 Multiplicity = 1

 SCF Done:  E(RB3LYP) =  -423.194185655     A.U. after   12 cycles
 Optimization completed.
    -- Stationary point found.
 Normal termination of Gaussian 09 at Mon Jan 27 11:18:56 2020.

 ----------------------------------------------------------------------
 #N Geom=AllCheck Guess=TCheck SCRF=Check GenChk RB3LYP/6-31G(2df,p) Fr
 eq
 ----------------------------------------------------------------------

 Structure from the checkpoint file:  "/scratch/puck/g09_0d33d45f-7964-4b0e-ad94-526355d40869/Gau-32320.chk"
 -----
 titel
 -----
 Charge =  0 Multiplicity = 1

                         Standard orientation:
 ---------------------------------------------------------------------
 Center     Atomic      Atomic             Coordinates (Angstroms)
 Number     Number       Type             X           Y           Z
 ---------------------------------------------------------------------
      1          6           0        0.018990    1.907376   -0.312140
      2          6           0        1.107732    0.967175    0.280838
      3          6           0        1.649506   -0.130813   -0.661331
      4          8           0        1.170621   -1.383132   -0.173699
      5          6           0       -0.012118   -1.211015    0.576278
      6          8           0       -1.198545   -1.359768   -0.172844
      7          6           0       -1.651258   -0.098306   -0.661897
      8          6           0       -1.088264    0.988782    0.280495
      9          6           0        0.002303    0.235906    1.092200
     10          1           0        0.028634    2.895755    0.153017
     11          1           0        0.020448    2.035823   -1.399648
     12          1           0        1.904434    1.455127    0.843496
     13          1           0        1.314774    0.031912   -1.696236
     14          1           0        2.742516   -0.181271   -0.669568
     15          1           0       -0.019782   -2.007535    1.323734
     16          1           0       -1.311686    0.057007   -1.696350
     17          1           0       -2.745037   -0.126537   -0.671622
     18          1           0       -1.875368    1.492337    0.842914
     19          1           0        0.003102    0.335954    2.175942
 ---------------------------------------------------------------------

 SCF Done:  E(RB3LYP) =  -423.194185655     A.U. after    1 cycles

 The electronic state is 1-A.
 Alpha  occ. eigenvalues --  -19.13452 -19.13452 -10.26700 -10.22628 -10.22627
 Alpha  occ. eigenvalues --  -10.19320 -10.19318 -10.18969 -10.18887  -1.06171
 Alpha  occ. eigenvalues --   -1.00329  -0.85403  -0.73699  -0.72186  -0.67397
 Alpha  occ. eigenvalues --   -0.60860  -0.58387  -0.53877  -0.53376  -0.47891
 Alpha  occ. eigenvalues --   -0.46450  -0.45204  -0.44367  -0.43754  -0.42020
 Alpha  occ. eigenvalues --   -0.38980  -0.34942  -0.33464  -0.31636  -0.31517
 Alpha  occ. eigenvalues --   -0.30471  -0.30245  -0.27210  -0.24902
 Alpha virt. eigenvalues --    0.06306   0.08806   0.10184   0.11427   0.13394
 Alpha virt. eigenvalues --    0.14179   0.15073   0.16037   0.16168   0.17030
 Alpha virt. eigenvalues --    0.18020   0.18362   0.19162   0.20516   0.22819

 Mulliken charges:
               1
     1  C   -0.254365
     2  C   -0.039191
     3  C   -0.102495
     4  O   -0.254981
     5  C    0.202710
     6  O   -0.254864
     7  C   -0.102544
     8  C   -0.039071
     9  C   -0.081942
    10  H    0.104694
    11  H    0.097434
    12  H    0.076887
    13  H    0.095742
    14  H    0.107100
    15  H    0.089702
    16  H    0.095731
    17  H    0.107128
    18  H    0.076872
    19  H    0.075455
 Sum of Mulliken charges =   0.00000

 Dipole moment (field-independent basis, Debye):
    X=              0.0281    Y=              2.7334    Z=              0.7189  Tot=              2.8265
 Quadrupole moment (field-independent basis, Debye-Ang):
   XX=            -52.2933   YY=            -57.0751   ZZ=            -50.8407
   XY=             -0.0492   XZ=             -0.0120   YZ=             -1.5170

  Exact polarizability:  77.083  -0.046  72.256  -0.025  -2.573  67.296
 Approx polarizability: 108.282  -0.030 104.772  -0.044  -4.160 101.935

                      1                      2                      3
                      A                      A                      A
 Frequencies --     69.7923               128.5408               303.6351
 Red. masses --      3.8975                 2.2644                 2.4936
 Frc consts  --      0.0112                 0.0220                 0.1354
 IR Inten    --      2.2823                 1.6568                 0.2750

                      4                      5                      6
                      A                      A                      A
 Frequencies --    399.4777               483.6143               588.0127
 Red. masses --      1.8787                 7.2411                 5.7821
 Frc consts  --      0.1766                 0.9978                 1.1779
 IR Inten    --      0.5497                 6.3037                 3.9325

                      7                      8                      9
                      A                      A                      A
 Frequencies --    633.0601               663.8943               731.6989
 Red. masses --      5.5236                 5.0273                 2.8116
 Frc consts  --      1.3043                 1.3055                 0.8869
 IR Inten    --      1.2529                 0.3366                 2.4302

                     10                     11                     12
                      A                      A                      A
 Frequencies --    805.5542               844.7870               850.1811
 Red. masses --      2.5703                 2.5812                 2.5447
 Frc consts  --      0.9827                 1.0853                 1.0837
 IR Inten    --      0.9805                 0.3508                 9.3173

                     13                     14                     15
                      A                      A                      A
 Frequencies --    903.1891               916.8126               933.7622
 Red. masses --      2.6264                 3.6906                 1.5416
 Frc consts  --      1.2623                 1.8277                 0.7919
 IR Inten    --     29.5670                 3.5980                 2.1887

                     16                     17                     18
                      A                      A                      A
 Frequencies --    950.1476               968.6192               975.5325
 Red. masses --      1.9278                 4.4120                 2.1491
 Frc consts  --      1.0254                 2.4389                 1.2050
 IR Inten    --      1.4823                31.9585                29.3665

                     19                     20                     21
                      A                      A                      A
 Frequencies --    977.9716              1023.1298              1043.9832
 Red. masses --      1.5505                 2.8441                 3.0741
 Frc consts  --      0.8738                 1.7541                 1.9740
 IR Inten    --      0.1662               134.1356                68.3536

                     22                     23                     24
                      A                      A                      A
 Frequencies --   1074.7162              1110.2621              1144.3763
 Red. masses --      2.0960                 4.1730                 2.1649
 Frc consts  --      1.4263                 3.0307                 1.6704
 IR Inten    --      3.6351                47.0226                 0.9215

                     25                     26                     27
                      A                      A                      A
 Frequencies --   1151.0381              1182.6652              1229.1019
 Red. masses --      3.2601                 1.2786                 1.2213
 Frc consts  --      2.5449                 1.0537                 1.0871
 IR Inten    --     33.8111                 3.9657                 1.7300

                     28                     29                     30
                      A                      A                      A
 Frequencies --   1229.3114              1243.1654              1251.1023
 Red. masses --      1.6324                 1.2307                 1.2720
 Frc consts  --      1.4534                 1.1207                 1.1731
 IR Inten    --      9.5046                 2.0688                 3.1960

                     31                     32                     33
                      A                      A                      A
 Frequencies --   1272.5386              1281.8334              1314.5169
 Red. masses --      1.5528                 1.3835                 1.4710
 Frc consts  --      1.4815                 1.3394                 1.4976
 IR Inten    --      0.0134                 0.0489                 6.5425

                     34                     35                     36
                      A                      A                      A
 Frequencies --   1319.9962              1341.7412              1373.6826
 Red. masses --      1.3110                 1.6115                 1.2336
 Frc consts  --      1.3459                 1.7093                 1.3716
 IR Inten    --      1.5611                 3.1906                 1.8151

                     37                     38                     39
                      A                      A                      A
 Frequencies --   1393.5073              1404.2170              1485.0571
 Red. masses --      1.3833                 1.2170                 1.1023
 Frc consts  --      1.5826                 1.4139                 1.4323
 IR Inten    --     11.8430                 7.1375                 2.3707

                     40                     41                     42
                      A                      A                      A
 Frequencies --   1522.7904              1535.5068              2992.0648
 Red. masses --      1.0852                 1.0836                 1.0696
 Frc consts  --      1.4826                 1.5052                 5.6417
 IR Inten    --      0.0086                 2.2138                 4.3578

                     43                     44                     45
                      A                      A                      A
 Frequencies --   2998.4939              3045.2945              3068.2908
 Red. masses --      1.0689                 1.0615                 1.0936
 Frc consts  --      5.6624                 5.8001                 6.0659
 IR Inten    --     91.2417                46.6816                47.4558

                     46                     47                     48
                      A                      A                      A
 Frequencies --   3069.1895              3091.6311              3093.7376
 Red. masses --      1.0945                 1.0887                 1.0946
 Frc consts  --      6.0745                 6.1311                 6.1724
 IR Inten    --      3.2259                32.7330                 2.4043

                     49                     50                     51
                      A                      A                      A
 Frequencies --   3098.5207              3110.5765              3132.6247
 Red. masses --      1.0888                 1.0986                 1.0906
 Frc consts  --      6.1588                 6.2631                 6.3057
 IR Inten    --     73.4642                31.6989                32.1509

 - Thermochemistry -
 -------------------
 Temperature   298.150 Kelvin.  Pressure   1.00000 Atm.
 Atom     1 has atomic number  6 and mass  12.00000

 Molecular mass:   126.06808 amu.
 Principal axes and moments of inertia in atomic units:
                           1         2         3
     Eigenvalues --   766.09000 770.741131183.52583
           X            0.03207   0.99949  -0.00013
           Y            0.99937  -0.03206  -0.01551
           Z            0.01550  -0.00036   0.99988
 This molecule is an asymmetric top.
 Rotational symmetry number  1.
 Warning -- assumption of classical behavior for rotation
           may cause significant error
 Rotational temperatures (Kelvin)      0.11306     0.11238     0.07318
 Rotational constants (GHZ):           2.35578     2.34157     1.52489
 Zero-point vibrational energy     429201.9 (Joules/Mol)
                                  102.58170 (Kcal/Mol)
 Warning -- explicit consideration of   6 degrees of freedom as
           vibrations may cause significant error
 Vibrational temperatures:    100.42   184.94   436.86   574.76   695.81
          (Kelvin)            846.02   910.83   955.19  1052.75  1159.01
                             1215.46  1223.22  1299.49  1319.09  1343.47
                             1367.05  1393.63  1403.57  1407.08  1472.05
                             1502.06  1546.28  1597.42  1646.50  1656.09
                             1701.59  1768.40  1768.70  1788.64  1800.05
                             1830.90  1844.27  1891.29  1899.18  1930.46
                             1976.42  2004.94  2020.35  2136.66  2190.95
                             2209.25  4304.91  4314.16  4381.49  4414.58
                             4415.87  4448.16  4451.19  4458.07  4475.42
                             4507.14

 Zero-point correction=                           0.163474 (Hartree/Particle)
 Thermal correction to Energy=                    0.170134
 Thermal correction to Enthalpy=                  0.171078
 Thermal correction to Gibbs Free Energy=         0.131979
 Sum of electronic and zero-point Energies=           -423.030711
 Sum of electronic and thermal Energies=              -423.024052
 Sum of electronic and thermal Enthalpies=            -423.023107
 Sum of electronic and thermal Free Energies=         -423.062207

                     E (Thermal)             CV                S
                      KCal/Mol        Cal/Mol-Kelvin    Cal/Mol-Kelvin
 Total                  106.761             26.800             82.292
 Electronic               0.000              0.000              0.000
 Translational            0.889              2.981             40.409
 Rotational               0.889              2.981             28.038
 Vibrational            104.983             20.838             13.846
 Vibration     1          0.598              1.969              4.159
 Vibration     2          0.611              1.925              2.968
 Vibration     3          0.695              1.667              1.397
 Vibration     4          0.766              1.471              0.965
 Vibration     5          0.840              1.286              0.700
 Vibration     6          0.945              1.057              0.471

 Normal termination of Gaussian 09 at Mon Jan 27 12:09:06 2020.
