 Gaussian 09, Revision D.01,
 Gaussian 09:  ES64L-G09RevD.01 24-Apr-2013

 -----------------------------
 # b3lyp 6-31G(2df,p) opt Freq
 -----------------------------

 -----
 titel
 -----
 Symbolic Z-matrix:
 Charge =  0 Multiplicity = 1

 SCF Done:  E(RB3LYP) =  -423.198703490     A.U. after   14 cycles
 Optimization completed.
    -- Stationary point found.
 Normal termination of Gaussian 09 at Tue Jan 28 14:08:22 2020.

 ----------------------------------------------------------------------
 #N Geom=AllCheck Guess=TCheck SCRF=Check GenChk RB3LYP/6-31G(2df,p) Fr
 eq
 ----------------------------------------------------------------------

 Structure from the checkpoint file:  "/scratch/puck/g09_4ec07889-a215-4c8d-953c-97aa0239fe24/Gau-144626.chk"
 -----
 titel
 -----
 Charge =  0 Multiplicity = 1

                         Standard orientation:
 ---------------------------------------------------------------------
 Center     Atomic      Atomic             Coordinates (Angstroms)
 Number     Number       Type             X           Y           Z
 ---------------------------------------------------------------------
      1          6           0        2.154801   -0.376803    1.128740
      2          8           0        2.124620   -0.061583   -0.253152
      3          6           0        0.880180    0.370785   -0.745824
      4          6           0        0.293958    1.629180   -0.148908
      5          6           0       -1.015643    1.520876    0.083759
      6          6           0       -1.575895    0.162801   -0.267205
      7          6           0       -2.461125   -0.502565    0.792791
      8          6           0       -0.292623   -0.634843   -0.568485
      9          8           0       -0.195115   -1.832229   -0.591971
     10          1           0        1.520221   -1.240288    1.363962
     11          1           0        3.191552   -0.625874    1.364563
     12          1           0        1.843722    0.473716    1.751275
     13          1           0        1.045781    0.498534   -1.826060
     14          1           0        0.895414    2.515416    0.017685
     15          1           0       -1.645067    2.314779    0.472520
     16          1           0       -2.145414    0.217960   -1.208725
     17          1           0       -2.691094   -1.528840    0.495921
     18          1           0       -1.953027   -0.536010    1.761537
     19          1           0       -3.400033    0.044515    0.919100
 ---------------------------------------------------------------------

 SCF Done:  E(RB3LYP) =  -423.198703490     A.U. after    1 cycles

 The electronic state is 1-A.
 Alpha  occ. eigenvalues --  -19.14474 -19.14029 -10.26942 -10.24220 -10.22118
 Alpha  occ. eigenvalues --  -10.20494 -10.19912 -10.19318 -10.18466  -1.05424
 Alpha  occ. eigenvalues --   -1.03053  -0.85100  -0.75956  -0.71412  -0.66311
 Alpha  occ. eigenvalues --   -0.64508  -0.55672  -0.53916  -0.49343  -0.48998
 Alpha  occ. eigenvalues --   -0.46724  -0.44978  -0.43984  -0.42220  -0.40398
 Alpha  occ. eigenvalues --   -0.39828  -0.38623  -0.37576  -0.36352  -0.35015
 Alpha  occ. eigenvalues --   -0.31917  -0.27857  -0.26654  -0.23152
 Alpha virt. eigenvalues --   -0.02596   0.00011   0.09992   0.11756   0.12637
 Alpha virt. eigenvalues --    0.12969   0.14610   0.14962   0.15953   0.16337
 Alpha virt. eigenvalues --    0.17417   0.17695   0.18611   0.20102   0.22382

 Mulliken charges:
               1
     1  C   -0.251324
     2  O   -0.235398
     3  C   -0.008889
     4  C   -0.131301
     5  C   -0.070370
     6  C   -0.145986
     7  C   -0.394221
     8  C    0.353398
     9  O   -0.306620
    10  H    0.127126
    11  H    0.130770
    12  H    0.107493
    13  H    0.116787
    14  H    0.110089
    15  H    0.105120
    16  H    0.112921
    17  H    0.141378
    18  H    0.122581
    19  H    0.116447
 Sum of Mulliken charges =   0.00000

 Dipole moment (field-independent basis, Debye):
    X=             -1.4026    Y=              2.4554    Z=              0.8387  Tot=              2.9495
 Quadrupole moment (field-independent basis, Debye-Ang):
   XX=            -52.2866   YY=            -56.7793   ZZ=            -51.1492
   XY=             -0.4187   XZ=              2.5122   YZ=             -1.7933

  Exact polarizability:  91.958   0.265  75.729  -1.461   0.682  62.134
 Approx polarizability: 131.400  -0.256 115.883  -4.858   2.129  93.674

                      1                      2                      3
                      A                      A                      A
 Frequencies --     52.3299               104.5206               166.2832
 Red. masses --      3.9079                 1.9367                 1.4068
 Frc consts  --      0.0063                 0.0125                 0.0229
 IR Inten    --      0.7680                 3.1533                 0.9604

                      4                      5                      6
                      A                      A                      A
 Frequencies --    182.8967               204.7633               239.9601
 Red. masses --      3.0410                 1.0901                 2.9618
 Frc consts  --      0.0599                 0.0269                 0.1005
 IR Inten    --      2.3726                 0.1087                 3.5600

                      7                      8                      9
                      A                      A                      A
 Frequencies --    261.7551               317.9939               405.0739
 Red. masses --      3.4429                 4.1395                 3.1071
 Frc consts  --      0.1390                 0.2466                 0.3004
 IR Inten    --      4.1695                 3.1151                 0.7301

                     10                     11                     12
                      A                      A                      A
 Frequencies --    504.9304               529.8304               615.8393
 Red. masses --      4.8253                 3.5440                 3.7088
 Frc consts  --      0.7248                 0.5862                 0.8287
 IR Inten    --      2.0189                 4.1777                 4.5665

                     13                     14                     15
                      A                      A                      A
 Frequencies --    666.8006               730.3769               733.8590
 Red. masses --      3.8780                 2.5445                 2.2273
 Frc consts  --      1.0159                 0.7997                 0.7067
 IR Inten    --      6.4316                 9.3257                18.6438

                     16                     17                     18
                      A                      A                      A
 Frequencies --    872.9824               891.9419               933.4300
 Red. masses --      2.4607                 2.0713                 4.6170
 Frc consts  --      1.1049                 0.9709                 2.3701
 IR Inten    --      8.1305                11.7081                40.0218

                     19                     20                     21
                      A                      A                      A
 Frequencies --    987.1797              1009.9967              1025.9599
 Red. masses --      1.2846                 2.3681                 2.4638
 Frc consts  --      0.7376                 1.4233                 1.5280
 IR Inten    --      1.1720                 8.1404                21.4650

                     22                     23                     24
                      A                      A                      A
 Frequencies --   1046.4250              1095.6701              1130.9383
 Red. masses --      1.6885                 1.4570                 1.3667
 Frc consts  --      1.0893                 1.0306                 1.0299
 IR Inten    --      9.3394                17.0163                14.7614

                     25                     26                     27
                      A                      A                      A
 Frequencies --   1149.1499              1175.7379              1185.7706
 Red. masses --      2.2426                 1.7640                 1.9231
 Frc consts  --      1.7449                 1.4367                 1.5932
 IR Inten    --     16.6648                37.2719                53.3878

                     28                     29                     30
                      A                      A                      A
 Frequencies --   1226.5773              1241.4073              1270.0720
 Red. masses --      1.6686                 1.7956                 1.8249
 Frc consts  --      1.4790                 1.6304                 1.7344
 IR Inten    --     31.8513                 8.3018                 2.4318

                     31                     32                     33
                      A                      A                      A
 Frequencies --   1306.0173              1356.7333              1379.0925
 Red. masses --      1.4125                 1.2971                 1.7102
 Frc consts  --      1.4195                 1.4067                 1.9164
 IR Inten    --      6.5403                 5.4463                 5.2343

                     34                     35                     36
                      A                      A                      A
 Frequencies --   1405.4891              1474.8039              1489.1210
 Red. masses --      1.2502                 1.1391                 1.0587
 Frc consts  --      1.4551                 1.4598                 1.3832
 IR Inten    --      3.0144                 0.3277                 5.7611

                     37                     38                     39
                      A                      A                      A
 Frequencies --   1493.7184              1499.6738              1511.8983
 Red. masses --      1.0462                 1.0503                 1.0478
 Frc consts  --      1.3753                 1.3917                 1.4112
 IR Inten    --      6.1093                 3.0399                 8.9535

                     40                     41                     42
                      A                      A                      A
 Frequencies --   1671.9499              1852.5771              2982.7838
 Red. masses --      6.8152                12.8154                 1.0798
 Frc consts  --     11.2247                25.9141                 5.6602
 IR Inten    --      4.0857               149.2744                10.5519

                     43                     44                     45
                      A                      A                      A
 Frequencies --   2998.7525              3002.6865              3042.3203
 Red. masses --      1.0568                 1.0599                 1.0347
 Frc consts  --      5.5993                 5.6302                 5.6424
 IR Inten    --     54.7836                 1.4568                23.1214

                     46                     47                     48
                      A                      A                      A
 Frequencies --   3062.1406              3111.7543              3124.1431
 Red. masses --      1.1006                 1.1024                 1.0992
 Frc consts  --      6.0802                 6.2894                 6.3211
 IR Inten    --     33.1867                23.4126                25.8949

                     49                     50                     51
                      A                      A                      A
 Frequencies --   3127.5434              3179.4043              3207.1290
 Red. masses --      1.1016                 1.0864                 1.1020
 Frc consts  --      6.3485                 6.4703                 6.6782
 IR Inten    --     11.2915                 7.0057                11.8153

 - Thermochemistry -
 -------------------
 Temperature   298.150 Kelvin.  Pressure   1.00000 Atm.
 Atom     1 has atomic number  6 and mass  12.00000

 Molecular mass:   126.06808 amu.
 Principal axes and moments of inertia in atomic units:
                           1         2         3
     Eigenvalues --   710.268581284.787411587.90193
           X            0.99998   0.00310   0.00616
           Y           -0.00286   0.99924  -0.03883
           Z           -0.00627   0.03881   0.99923
 This molecule is an asymmetric top.
 Rotational symmetry number  1.
 Warning -- assumption of classical behavior for rotation
           may cause significant error
 Rotational temperatures (Kelvin)      0.12195     0.06741     0.05455
 Rotational constants (GHZ):           2.54093     1.40470     1.13656
 Zero-point vibrational energy     414148.3 (Joules/Mol)
                                   98.98381 (Kcal/Mol)
 Warning -- explicit consideration of  12 degrees of freedom as
           vibrations may cause significant error
 Vibrational temperatures:     75.29   150.38   239.24   263.15   294.61
          (Kelvin)            345.25   376.61   457.52   582.81   726.48
                              762.31   886.05   959.38  1050.85  1055.86
                             1256.03  1283.30  1343.00  1420.33  1453.16
                             1476.13  1505.57  1576.42  1627.17  1653.37
                             1691.62  1706.06  1764.77  1786.11  1827.35
                             1879.07  1952.03  1984.20  2022.18  2121.91
                             2142.51  2149.12  2157.69  2175.28  2405.56
                             2665.44  4291.56  4314.53  4320.19  4377.21
                             4405.73  4477.11  4494.94  4499.83  4574.45
                             4614.34

 Zero-point correction=                           0.157741 (Hartree/Particle)
 Thermal correction to Energy=                    0.166973
 Thermal correction to Enthalpy=                  0.167917
 Thermal correction to Gibbs Free Energy=         0.123406
 Sum of electronic and zero-point Energies=           -423.040963
 Sum of electronic and thermal Energies=              -423.031730
 Sum of electronic and thermal Enthalpies=            -423.030786
 Sum of electronic and thermal Free Energies=         -423.075298

                     E (Thermal)             CV                S
                      KCal/Mol        Cal/Mol-Kelvin    Cal/Mol-Kelvin
 Total                  104.777             33.556             93.683
 Electronic               0.000              0.000              0.000
 Translational            0.889              2.981             40.409
 Rotational               0.889              2.981             28.762
 Vibrational            103.000             27.594             24.512
 Vibration     1          0.596              1.977              4.727
 Vibration     2          0.605              1.946              3.368
 Vibration     3          0.624              1.884              2.477
 Vibration     4          0.630              1.863              2.299
 Vibration     5          0.640              1.833              2.090
 Vibration     6          0.657              1.779              1.803
 Vibration     7          0.669              1.743              1.650
 Vibration     8          0.704              1.639              1.320
 Vibration     9          0.770              1.459              0.944
 Vibration    10          0.860              1.239              0.646
 Vibration    11          0.885              1.184              0.588
 Vibration    12          0.975              0.998              0.423

 Normal termination of Gaussian 09 at Tue Jan 28 14:49:01 2020.
