 Gaussian 09, Revision D.01,
 Gaussian 09:  ES64L-G09RevD.01 24-Apr-2013

 -----------------------------
 # b3lyp 6-31G(2df,p) opt Freq
 -----------------------------

 -----
 titel
 -----
 Symbolic Z-matrix:
 Charge =  0 Multiplicity = 1

 SCF Done:  E(RB3LYP) =  -423.190551090     A.U. after   13 cycles
 Optimization completed.
    -- Stationary point found.
 Normal termination of Gaussian 09 at Mon Jan 27 11:19:49 2020.

 ----------------------------------------------------------------------
 #N Geom=AllCheck Guess=TCheck SCRF=Check GenChk RB3LYP/6-31G(2df,p) Fr
 eq
 ----------------------------------------------------------------------

 Structure from the checkpoint file:  "/scratch/puck/g09_c4be5fcc-6c58-43fd-bf31-6bea5dd981fd/Gau-164862.chk"
 -----
 titel
 -----
 Charge =  0 Multiplicity = 1

                         Standard orientation:
 ---------------------------------------------------------------------
 Center     Atomic      Atomic             Coordinates (Angstroms)
 Number     Number       Type             X           Y           Z
 ---------------------------------------------------------------------
      1          6           0       -1.847174    0.096957   -0.000050
      2          8           0       -1.145853    1.348221   -0.000146
      3          6           0        0.248296    1.217167   -0.000175
      4          6           0        0.934826    0.269953    1.021152
      5          6           0        0.023151   -0.938561    1.262961
      6          6           0       -0.861285   -1.076027    0.000151
      7          6           0        0.023173   -0.938954   -1.262685
      8          6           0        0.934821    0.269645   -1.021233
      9          8           0        1.909211   -0.079990    0.000010
     10          1           0       -2.494348    0.066324    0.887348
     11          1           0       -2.494231    0.066093   -0.887529
     12          1           0        0.668864    2.222514   -0.000339
     13          1           0        1.405186    0.674712    1.920804
     14          1           0        0.646878   -1.822928    1.427302
     15          1           0       -0.601941   -0.794296    2.151950
     16          1           0       -1.422310   -2.015149    0.000295
     17          1           0        0.646921   -1.823362   -1.426732
     18          1           0       -0.601908   -0.794989   -2.151731
     19          1           0        1.405177    0.674151   -1.921001
 ---------------------------------------------------------------------

 SCF Done:  E(RB3LYP) =  -423.190551090     A.U. after    1 cycles

 The electronic state is 1-A.
 Alpha  occ. eigenvalues --  -19.14220 -19.13104 -10.23307 -10.22966 -10.22965
 Alpha  occ. eigenvalues --  -10.22895 -10.19592 -10.18456 -10.18455  -1.05290
 Alpha  occ. eigenvalues --   -1.02271  -0.81419  -0.74826  -0.74493  -0.65226
 Alpha  occ. eigenvalues --   -0.61463  -0.61059  -0.53997  -0.49139  -0.48438
 Alpha  occ. eigenvalues --   -0.48275  -0.44942  -0.43108  -0.41709  -0.39464
 Alpha  occ. eigenvalues --   -0.38780  -0.37677  -0.35479  -0.35136  -0.34238
 Alpha  occ. eigenvalues --   -0.32816  -0.28412  -0.24166  -0.23917
 Alpha virt. eigenvalues --    0.07989   0.08538   0.11867   0.13179   0.13298
 Alpha virt. eigenvalues --    0.14166   0.14339   0.16005   0.16529   0.17304
 Alpha virt. eigenvalues --    0.17536   0.18443   0.19542   0.20311   0.22044

 Mulliken charges:
               1
     1  C   -0.057433
     2  O   -0.279949
     3  C    0.111820
     4  C    0.052541
     5  C   -0.216991
     6  C   -0.063063
     7  C   -0.216990
     8  C    0.052536
     9  O   -0.301077
    10  H    0.095211
    11  H    0.095207
    12  H    0.095337
    13  H    0.075204
    14  H    0.108009
    15  H    0.097768
    16  H    0.070892
    17  H    0.108009
    18  H    0.097766
    19  H    0.075204
 Sum of Mulliken charges =   0.00000

 Dipole moment (field-independent basis, Debye):
    X=             -1.0917    Y=             -0.9282    Z=              0.0001  Tot=              1.4329
 Quadrupole moment (field-independent basis, Debye-Ang):
   XX=            -57.2201   YY=            -53.6566   ZZ=            -50.0360
   XY=              3.8243   XZ=             -0.0005   YZ=              0.0004

  Exact polarizability:  74.407   3.324  68.737   0.000   0.001  74.300
 Approx polarizability: 109.451   1.267 101.819   0.000   0.001 108.395

                      1                      2                      3
                      A                      A                      A
 Frequencies --    188.9944               304.1228               384.3996
 Red. masses --      2.8575                 2.6984                 3.6840
 Frc consts  --      0.0601                 0.1470                 0.3207
 IR Inten    --      1.4388                 3.0306                 4.8325

                      4                      5                      6
                      A                      A                      A
 Frequencies --    422.2115               428.4511               527.1793
 Red. masses --      1.7313                 4.8846                 2.9202
 Frc consts  --      0.1818                 0.5283                 0.4782
 IR Inten    --      0.9658                 3.8156                 3.3439

                      7                      8                      9
                      A                      A                      A
 Frequencies --    595.7035               619.0701               725.1608
 Red. masses --      4.7596                 5.4652                 4.8111
 Frc consts  --      0.9951                 1.2341                 1.4906
 IR Inten    --      0.6960                 3.2540                 1.6309

                     10                     11                     12
                      A                      A                      A
 Frequencies --    817.4656               834.5296               845.2521
 Red. masses --      3.7944                 2.4009                 2.6627
 Frc consts  --      1.4939                 0.9852                 1.1208
 IR Inten    --      0.7764                 0.0102                 9.9527

                     13                     14                     15
                      A                      A                      A
 Frequencies --    883.8870               884.5438               921.4385
 Red. masses --      3.2442                 2.2991                 2.7572
 Frc consts  --      1.4933                 1.0599                 1.3793
 IR Inten    --      1.8642                19.4790                23.9393

                     16                     17                     18
                      A                      A                      A
 Frequencies --    938.2741               964.4947               992.4239
 Red. masses --      2.0304                 2.1608                 2.2146
 Frc consts  --      1.0531                 1.1843                 1.2851
 IR Inten    --      9.2741                32.4428                15.0761

                     19                     20                     21
                      A                      A                      A
 Frequencies --   1028.1095              1042.2787              1066.8088
 Red. masses --      2.3905                 2.1245                 1.1460
 Frc consts  --      1.4887                 1.3598                 0.7684
 IR Inten    --      6.8922                 2.1620                 1.0565

                     22                     23                     24
                      A                      A                      A
 Frequencies --   1068.2416              1096.1300              1144.6159
 Red. masses --      2.5822                 2.7680                 2.3084
 Frc consts  --      1.7361                 1.9595                 1.7819
 IR Inten    --      1.2419                17.5029                83.8791

                     25                     26                     27
                      A                      A                      A
 Frequencies --   1162.1643              1166.8784              1203.3940
 Red. masses --      2.2267                 1.1581                 1.7709
 Frc consts  --      1.7719                 0.9291                 1.5110
 IR Inten    --      3.0211                 2.4012                71.4192

                     28                     29                     30
                      A                      A                      A
 Frequencies --   1226.7536              1252.6680              1291.8674
 Red. masses --      1.1835                 1.2965                 1.3664
 Frc consts  --      1.0493                 1.1987                 1.3436
 IR Inten    --      0.1914                 0.0828                 0.0306

                     31                     32                     33
                      A                      A                      A
 Frequencies --   1307.6462              1326.2669              1333.2486
 Red. masses --      1.6404                 1.7278                 1.4315
 Frc consts  --      1.6527                 1.7906                 1.4992
 IR Inten    --      3.0896                 2.7831                 1.3965

                     34                     35                     36
                      A                      A                      A
 Frequencies --   1344.0390              1367.8144              1370.3383
 Red. masses --      1.3211                 1.5350                 1.5447
 Frc consts  --      1.4061                 1.6920                 1.7090
 IR Inten    --      1.6572                 0.3620                 5.9396

                     37                     38                     39
                      A                      A                      A
 Frequencies --   1387.3751              1421.7060              1471.0050
 Red. masses --      1.5378                 1.3913                 1.0887
 Frc consts  --      1.7440                 1.6569                 1.3879
 IR Inten    --      8.8455                 7.6402                 4.3262

                     40                     41                     42
                      A                      A                      A
 Frequencies --   1482.4682              1528.5787              2996.9379
 Red. masses --      1.1065                 1.0900                 1.0565
 Frc consts  --      1.4327                 1.5006                 5.5911
 IR Inten    --      5.2737                 0.3534                71.8676

                     43                     44                     45
                      A                      A                      A
 Frequencies --   3027.9103              3035.3475              3035.4154
 Red. masses --      1.1038                 1.0625                 1.0648
 Frc consts  --      5.9624                 5.7678                 5.7803
 IR Inten    --     18.0754                 7.2090                63.3315

                     46                     47                     48
                      A                      A                      A
 Frequencies --   3064.6400              3078.0973              3080.3903
 Red. masses --      1.0860                 1.0866                 1.0906
 Frc consts  --      6.0097                 6.0656                 6.0974
 IR Inten    --     59.6773                90.2391                12.4773

                     49                     50                     51
                      A                      A                      A
 Frequencies --   3085.8400              3087.6868              3122.1407
 Red. masses --      1.1036                 1.1029                 1.0898
 Frc consts  --      6.1915                 6.1951                 6.2590
 IR Inten    --      8.7764                35.1819                33.3096

 - Thermochemistry -
 -------------------
 Temperature   298.150 Kelvin.  Pressure   1.00000 Atm.
 Atom     1 has atomic number  6 and mass  12.00000

 Molecular mass:   126.06808 amu.
 Principal axes and moments of inertia in atomic units:
                           1         2         3
     Eigenvalues --   668.49562 919.39679 975.35367
           X            0.99789   0.06490   0.00000
           Y           -0.06490   0.99789   0.00004
           Z            0.00001  -0.00004   1.00000
 This molecule is an asymmetric top.
 Rotational symmetry number  1.
 Warning -- assumption of classical behavior for rotation
           may cause significant error
 Rotational temperatures (Kelvin)      0.12957     0.09421     0.08880
 Rotational constants (GHZ):           2.69971     1.96296     1.85035
 Zero-point vibrational energy     430550.4 (Joules/Mol)
                                  102.90401 (Kcal/Mol)
 Warning -- explicit consideration of   8 degrees of freedom as
           vibrations may cause significant error
 Vibrational temperatures:    271.92   437.56   553.06   607.47   616.44
          (Kelvin)            758.49   857.08   890.70  1043.34  1176.15
                             1200.70  1216.13  1271.71  1272.66  1325.74
                             1349.97  1387.69  1427.87  1479.22  1499.60
                             1534.90  1536.96  1577.08  1646.84  1672.09
                             1678.88  1731.41  1765.02  1802.31  1858.71
                             1881.41  1908.20  1918.24  1933.77  1967.98
                             1971.61  1996.12  2045.52  2116.45  2132.94
                             2199.28  4311.92  4356.48  4367.18  4367.28
                             4409.33  4428.69  4431.99  4439.83  4442.49
                             4492.06

 Zero-point correction=                           0.163988 (Hartree/Particle)
 Thermal correction to Energy=                    0.170179
 Thermal correction to Enthalpy=                  0.171123
 Thermal correction to Gibbs Free Energy=         0.133775
 Sum of electronic and zero-point Energies=           -423.026563
 Sum of electronic and thermal Energies=              -423.020372
 Sum of electronic and thermal Enthalpies=            -423.019428
 Sum of electronic and thermal Free Energies=         -423.056776

                     E (Thermal)             CV                S
                      KCal/Mol        Cal/Mol-Kelvin    Cal/Mol-Kelvin
 Total                  106.789             26.602             78.605
 Electronic               0.000              0.000              0.000
 Translational            0.889              2.981             40.409
 Rotational               0.889              2.981             27.885
 Vibrational            105.011             20.640             10.311
 Vibration     1          0.633              1.855              2.238
 Vibration     2          0.695              1.666              1.394
 Vibration     3          0.753              1.503              1.022
 Vibration     4          0.785              1.422              0.884
 Vibration     5          0.790              1.408              0.864
 Vibration     6          0.882              1.190              0.594
 Vibration     7          0.953              1.041              0.457
 Vibration     8          0.979              0.992              0.418

 Optimization completed.
    -- Stationary point found.
 Normal termination of Gaussian 09 at Mon Jan 27 12:11:48 2020.
