 Gaussian 09, Revision D.01,
 Gaussian 09:  ES64L-G09RevD.01 24-Apr-2013

 -----------------------------
 # b3lyp 6-31G(2df,p) opt Freq
 -----------------------------

 -----
 titel
 -----
 Symbolic Z-matrix:
 Charge =  0 Multiplicity = 1

 SCF Done:  E(RB3LYP) =  -423.141305693     A.U. after   12 cycles
 Optimization completed.
    -- Stationary point found.
 Normal termination of Gaussian 09 at Mon Jan 27 17:32:22 2020.

 ----------------------------------------------------------------------
 #N Geom=AllCheck Guess=TCheck SCRF=Check GenChk RB3LYP/6-31G(2df,p) Fr
 eq
 ----------------------------------------------------------------------

 Structure from the checkpoint file:  "/scratch/puck/g09_9feb77f5-a23d-41ca-967b-62b447fd6f1a/Gau-169240.chk"
 -----
 titel
 -----
 Charge =  0 Multiplicity = 1

                         Standard orientation:
 ---------------------------------------------------------------------
 Center     Atomic      Atomic             Coordinates (Angstroms)
 Number     Number       Type             X           Y           Z
 ---------------------------------------------------------------------
      1          8           0        1.536457    1.275367    0.654197
      2          6           0        0.844739    0.286316   -0.036453
      3          6           0        1.554951   -0.707542   -0.919346
      4          6           0        0.880572   -1.157242    0.372418
      5          6           0       -0.635314   -1.458893    0.405214
      6          6           0       -1.154673   -0.190488    1.168057
      7          6           0       -0.676997    0.494577   -0.165418
      8          8           0       -0.981953    1.799567   -0.550618
      9          6           0       -1.189014   -0.782382   -0.881885
     10          1           0        1.323728    2.110342    0.219911
     11          1           0        1.196165   -1.001845   -1.898821
     12          1           0        2.636490   -0.648914   -0.846999
     13          1           0        1.501102   -1.494950    1.194284
     14          1           0       -0.951596   -2.462212    0.685263
     15          1           0       -2.241465   -0.177311    1.300525
     16          1           0       -0.642297    0.099578    2.087860
     17          1           0       -1.929212    1.939511   -0.459206
     18          1           0       -2.281571   -0.815155   -0.906939
     19          1           0       -0.792961   -1.054591   -1.860039
 ---------------------------------------------------------------------

 SCF Done:  E(RB3LYP) =  -423.141305693     A.U. after    1 cycles

 The electronic state is 1-A.
 Alpha  occ. eigenvalues --  -19.14965 -19.13554 -10.24253 -10.22796 -10.19792
 Alpha  occ. eigenvalues --  -10.18235 -10.18178 -10.18070 -10.17925  -1.04041
 Alpha  occ. eigenvalues --   -1.01631  -0.89962  -0.79825  -0.66810  -0.66473
 Alpha  occ. eigenvalues --   -0.61652  -0.56584  -0.53662  -0.53395  -0.49454
 Alpha  occ. eigenvalues --   -0.47582  -0.42932  -0.41508  -0.40768  -0.40014
 Alpha  occ. eigenvalues --   -0.38044  -0.36588  -0.34179  -0.33447  -0.32162
 Alpha  occ. eigenvalues --   -0.30279  -0.26956  -0.26222  -0.23245
 Alpha virt. eigenvalues --    0.06496   0.10113   0.10862   0.12445   0.12501
 Alpha virt. eigenvalues --    0.13442   0.14945   0.15412   0.16705   0.18047
 Alpha virt. eigenvalues --    0.18376   0.20070   0.21945   0.22853   0.23526

 Mulliken charges:
               1
     1  O   -0.482985
     2  C    0.421248
     3  C   -0.386005
     4  C   -0.094454
     5  C   -0.044711
     6  C   -0.286642
     7  C    0.339460
     8  O   -0.502964
     9  C   -0.303454
    10  H    0.289506
    11  H    0.109074
    12  H    0.115834
    13  H    0.096663
    14  H    0.068140
    15  H    0.080407
    16  H    0.108521
    17  H    0.284125
    18  H    0.088596
    19  H    0.099640
 Sum of Mulliken charges =   0.00000

 Dipole moment (field-independent basis, Debye):
    X=             -1.9222    Y=             -0.2177    Z=             -0.4568  Tot=              1.9877
 Quadrupole moment (field-independent basis, Debye-Ang):
   XX=            -49.7867   YY=            -52.1270   ZZ=            -54.3192
   XY=             -2.1801   XZ=             -1.1704   YZ=             -0.6853

  Exact polarizability:  79.742  -1.069  73.229  -2.686   0.724  69.033
 Approx polarizability: 111.722  -1.015 112.018  -2.654  -0.206 106.371

                      1                      2                      3
                      A                      A                      A
 Frequencies --    174.2686               208.6725               254.3127
 Red. masses --      2.3126                 2.2436                 1.3836
 Frc consts  --      0.0414                 0.0576                 0.0527
 IR Inten    --     40.2488                29.5869                70.4465

                      4                      5                      6
                      A                      A                      A
 Frequencies --    330.3259               343.0096               383.6007
 Red. masses --      1.6050                 3.1061                 3.4240
 Frc consts  --      0.1032                 0.2153                 0.2969
 IR Inten    --     24.0720                35.6137                 5.8724

                      7                      8                      9
                      A                      A                      A
 Frequencies --    435.1265               469.1864               520.1548
 Red. masses --      2.6743                 2.6523                 2.5384
 Frc consts  --      0.2983                 0.3440                 0.4046
 IR Inten    --     16.7602                 4.9823                 1.3802

                     10                     11                     12
                      A                      A                      A
 Frequencies --    552.2381               603.6749               627.9048
 Red. masses --      2.2877                 3.4252                 3.6722
 Frc consts  --      0.4111                 0.7354                 0.8530
 IR Inten    --      2.1043                 0.6630                10.1310

                     13                     14                     15
                      A                      A                      A
 Frequencies --    728.2927               795.3963               841.2535
 Red. masses --      3.2969                 2.7594                 2.4805
 Frc consts  --      1.0303                 1.0286                 1.0343
 IR Inten    --      2.8330                 1.3811                 0.7605

                     16                     17                     18
                      A                      A                      A
 Frequencies --    862.4377               905.0245               925.8897
 Red. masses --      2.4032                 1.9304                 2.2598
 Frc consts  --      1.0532                 0.9316                 1.1414
 IR Inten    --      1.2485                 3.3113                 6.5849

                     19                     20                     21
                      A                      A                      A
 Frequencies --    942.4324               962.2203               987.7511
 Red. masses --      1.7272                 2.1521                 1.8075
 Frc consts  --      0.9038                 1.1740                 1.0390
 IR Inten    --      8.7764                21.9049                 3.3912

                     22                     23                     24
                      A                      A                      A
 Frequencies --   1016.8869              1022.5072              1046.8184
 Red. masses --      1.4450                 1.8589                 1.4966
 Frc consts  --      0.8804                 1.1451                 0.9663
 IR Inten    --      3.3606                10.1168                 8.4724

                     25                     26                     27
                      A                      A                      A
 Frequencies --   1061.8666              1080.9531              1095.8816
 Red. masses --      1.3812                 1.5128                 1.7397
 Frc consts  --      0.9176                 1.0415                 1.2310
 IR Inten    --      1.5040                 4.3669                 6.2955

                     28                     29                     30
                      A                      A                      A
 Frequencies --   1125.4545              1159.5460              1193.4675
 Red. masses --      1.2589                 1.6266                 2.0723
 Frc consts  --      0.9395                 1.2886                 1.7391
 IR Inten    --     37.9966                 6.7087                11.8561

                     31                     32                     33
                      A                      A                      A
 Frequencies --   1202.9447              1226.5183              1263.6447
 Red. masses --      1.7035                 1.5447                 2.3510
 Frc consts  --      1.4524                 1.3691                 2.2118
 IR Inten    --     19.2924                 5.3232               117.7532

                     34                     35                     36
                      A                      A                      A
 Frequencies --   1275.1071              1294.7603              1327.0632
 Red. masses --      2.3709                 1.9368                 1.6126
 Frc consts  --      2.2712                 1.9130                 1.6733
 IR Inten    --     91.7465                97.1004                65.6358

                     37                     38                     39
                      A                      A                      A
 Frequencies --   1390.5422              1415.1589              1482.6030
 Red. masses --      2.1969                 1.5316                 1.2512
 Frc consts  --      2.5028                 1.8072                 1.6204
 IR Inten    --     13.7373                 1.4887                 1.9397

                     40                     41                     42
                      A                      A                      A
 Frequencies --   1498.4404              1535.4406              3047.3313
 Red. masses --      1.3789                 1.1406                 1.0584
 Frc consts  --      1.8242                 1.5844                 5.7908
 IR Inten    --      6.1586                 7.3596                36.8518

                     43                     44                     45
                      A                      A                      A
 Frequencies --   3069.5910              3122.1090              3127.5185
 Red. masses --      1.0609                 1.1061                 1.0906
 Frc consts  --      5.8898                 6.3524                 6.2851
 IR Inten    --     31.1193                24.3443                47.3917

                     46                     47                     48
                      A                      A                      A
 Frequencies --   3127.7531              3137.7969              3181.8414
 Red. masses --      1.0828                 1.0751                 1.0919
 Frc consts  --      6.2411                 6.2367                 6.5132
 IR Inten    --      3.7212                40.2261                 8.5942

                     49                     50                     51
                      A                      A                      A
 Frequencies --   3215.4349              3786.5470              3828.9914
 Red. masses --      1.1144                 1.0656                 1.0661
 Frc consts  --      6.7884                 9.0019                 9.2087
 IR Inten    --     11.7079                34.8050                28.2949

 - Thermochemistry -
 -------------------
 Temperature   298.150 Kelvin.  Pressure   1.00000 Atm.
 Atom     1 has atomic number  8 and mass  15.99491

 Molecular mass:   126.06808 amu.
 Principal axes and moments of inertia in atomic units:
                           1         2         3
     Eigenvalues --   804.57745 858.171611174.47798
           X            0.99875  -0.04151  -0.02772
           Y            0.04191   0.99902   0.01413
           Z            0.02710  -0.01527   0.99952
 This molecule is an asymmetric top.
 Rotational symmetry number  1.
 Warning -- assumption of classical behavior for rotation
           may cause significant error
 Rotational temperatures (Kelvin)      0.10765     0.10093     0.07375
 Rotational constants (GHZ):           2.24309     2.10301     1.53663
 Zero-point vibrational energy     419971.1 (Joules/Mol)
                                  100.37551 (Kcal/Mol)
 Warning -- explicit consideration of  11 degrees of freedom as
           vibrations may cause significant error
 Vibrational temperatures:    250.73   300.23   365.90   475.26   493.51
          (Kelvin)            551.92   626.05   675.05   748.39   794.55
                              868.55   903.41  1047.85  1144.40  1210.37
                             1240.85  1302.13  1332.15  1355.95  1384.42
                             1421.15  1463.07  1471.16  1506.14  1527.79
                             1555.25  1576.73  1619.28  1668.33  1717.13
                             1730.77  1764.68  1818.10  1834.59  1862.87
                             1909.35  2000.68  2036.10  2133.13  2155.92
                             2209.15  4384.42  4416.45  4492.01  4499.80
                             4500.13  4514.58  4577.95  4626.29  5447.99
                             5509.06

 Zero-point correction=                           0.159959 (Hartree/Particle)
 Thermal correction to Energy=                    0.167612
 Thermal correction to Enthalpy=                  0.168557
 Thermal correction to Gibbs Free Energy=         0.128610
 Sum of electronic and zero-point Energies=           -422.981347
 Sum of electronic and thermal Energies=              -422.973693
 Sum of electronic and thermal Enthalpies=            -422.972749
 Sum of electronic and thermal Free Energies=         -423.012695

                     E (Thermal)             CV                S
                      KCal/Mol        Cal/Mol-Kelvin    Cal/Mol-Kelvin
 Total                  105.178             32.038             84.074
 Electronic               0.000              0.000              0.000
 Translational            0.889              2.981             40.409
 Rotational               0.889              2.981             28.185
 Vibrational            103.401             26.077             15.480
 Vibration     1          0.627              1.874              2.389
 Vibration     2          0.642              1.827              2.055
 Vibration     3          0.665              1.756              1.700
 Vibration     4          0.713              1.615              1.258
 Vibration     5          0.722              1.589              1.198
 Vibration     6          0.753              1.505              1.025
 Vibration     7          0.796              1.394              0.842
 Vibration     8          0.826              1.318              0.740
 Vibration     9          0.875              1.205              0.610
 Vibration    10          0.908              1.135              0.540
 Vibration    11          0.962              1.024              0.443

 Optimization completed.
    -- Stationary point found.
 Normal termination of Gaussian 09 at Mon Jan 27 18:21:56 2020.
