 Gaussian 09, Revision D.01,
 Gaussian 09:  ES64L-G09RevD.01 24-Apr-2013

 -----------------------------
 # b3lyp 6-31G(2df,p) opt Freq
 -----------------------------

 -----
 titel
 -----
 Symbolic Z-matrix:
 Charge =  0 Multiplicity = 1

 SCF Done:  E(RB3LYP) =  -423.139555132     A.U. after   14 cycles
 Optimization completed.
    -- Stationary point found.
 Normal termination of Gaussian 09 at Tue Jan 28 09:15:16 2020.

 ----------------------------------------------------------------------
 #N Geom=AllCheck Guess=TCheck SCRF=Check GenChk RB3LYP/6-31G(2df,p) Fr
 eq
 ----------------------------------------------------------------------

 Structure from the checkpoint file:  "/scratch/puck/g09_6dc6b1b9-600c-4280-9cf0-d9badfe4010c/Gau-57772.chk"
 -----
 titel
 -----
 Charge =  0 Multiplicity = 1

                         Standard orientation:
 ---------------------------------------------------------------------
 Center     Atomic      Atomic             Coordinates (Angstroms)
 Number     Number       Type             X           Y           Z
 ---------------------------------------------------------------------
      1          6           0        2.458931   -1.078739    0.259468
      2          6           0        1.130898   -1.281363   -0.481779
      3          6           0        0.135261   -0.209313   -0.172570
      4          8           0       -0.257959    0.025485    1.261784
      5          6           0       -1.094689    1.011551    0.530043
      6          6           0       -1.374818   -0.063751   -0.556016
      7          6           0       -2.306627   -1.208833   -0.194629
      8          6           0        0.225224    1.342687   -0.206613
      9          8           0        0.954249    2.236246   -0.491201
     10          1           0        3.163643   -1.878370    0.015886
     11          1           0        2.914829   -0.123113   -0.014710
     12          1           0        2.299845   -1.077621    1.341009
     13          1           0        1.293052   -1.277474   -1.567070
     14          1           0        0.695563   -2.257219   -0.233840
     15          1           0       -1.783889    1.616704    1.115116
     16          1           0       -1.559797    0.327766   -1.562892
     17          1           0       -2.181330   -2.043327   -0.892400
     18          1           0       -2.105919   -1.567469    0.816661
     19          1           0       -3.351406   -0.887162   -0.249843
 ---------------------------------------------------------------------

 SCF Done:  E(RB3LYP) =  -423.139555132     A.U. after    1 cycles

 The electronic state is 1-A.
 Alpha  occ. eigenvalues --  -19.15839 -19.14789 -10.28019 -10.25661 -10.25401
 Alpha  occ. eigenvalues --  -10.21413 -10.19931 -10.18699 -10.17986  -1.07983
 Alpha  occ. eigenvalues --   -1.04805  -0.80708  -0.78527  -0.72913  -0.67293
 Alpha  occ. eigenvalues --   -0.61515  -0.59923  -0.51252  -0.50014  -0.47020
 Alpha  occ. eigenvalues --   -0.46146  -0.44098  -0.43022  -0.42210  -0.40264
 Alpha  occ. eigenvalues --   -0.39462  -0.39085  -0.36948  -0.36118  -0.35437
 Alpha  occ. eigenvalues --   -0.33251  -0.31770  -0.26450  -0.24858
 Alpha virt. eigenvalues --   -0.00660   0.08380   0.09393   0.10324   0.11807
 Alpha virt. eigenvalues --    0.12632   0.13132   0.14631   0.15002   0.15547
 Alpha virt. eigenvalues --    0.16818   0.17449   0.17788   0.18507   0.19853

 Mulliken charges:
               1
     1  C   -0.388583
     2  C   -0.331984
     3  C    0.277553
     4  O   -0.338349
     5  C   -0.089340
     6  C   -0.033909
     7  C   -0.435136
     8  C    0.449627
     9  O   -0.324254
    10  H    0.115148
    11  H    0.142072
    12  H    0.139594
    13  H    0.118006
    14  H    0.116707
    15  H    0.110210
    16  H    0.086508
    17  H    0.122096
    18  H    0.141359
    19  H    0.122673
 Sum of Mulliken charges =   0.00000

 Dipole moment (field-independent basis, Debye):
    X=             -1.6912    Y=             -2.0530    Z=             -0.9476  Tot=              2.8236
 Quadrupole moment (field-independent basis, Debye-Ang):
   XX=            -50.8880   YY=            -57.0703   ZZ=            -54.3738
   XY=             -5.0181   XZ=              0.4034   YZ=              2.5649

  Exact polarizability:  85.590   1.364  79.144  -1.991   1.145  64.190
 Approx polarizability: 114.474   5.574 118.710  -5.672  -4.441 108.650

                      1                      2                      3
                      A                      A                      A
 Frequencies --     67.6984               133.4751               146.4929
 Red. masses --      2.4809                 2.7173                 5.2298
 Frc consts  --      0.0067                 0.0285                 0.0661
 IR Inten    --      0.3023                 1.3873                 2.5683

                      4                      5                      6
                      A                      A                      A
 Frequencies --    191.5410               222.6560               224.6828
 Red. masses --      1.3372                 1.0895                 3.2041
 Frc consts  --      0.0289                 0.0318                 0.0953
 IR Inten    --      0.4383                 0.1294                 0.7107

                      7                      8                      9
                      A                      A                      A
 Frequencies --    271.7044               316.0742               410.6876
 Red. masses --      1.9277                 4.1985                 3.0604
 Frc consts  --      0.0838                 0.2471                 0.3041
 IR Inten    --      0.6839                 7.3735                 2.0531

                     10                     11                     12
                      A                      A                      A
 Frequencies --    516.6530               553.8558               650.7622
 Red. masses --      3.0104                 6.1469                 3.7821
 Frc consts  --      0.4734                 1.1110                 0.9437
 IR Inten    --      5.1909                 1.3326                 2.3611

                     13                     14                     15
                      A                      A                      A
 Frequencies --    694.0291               759.6745               774.1406
 Red. masses --      2.3586                 4.1784                 3.4038
 Frc consts  --      0.6694                 1.4207                 1.2019
 IR Inten    --      3.4460                 2.7041                 7.7695

                     16                     17                     18
                      A                      A                      A
 Frequencies --    805.1532               818.2355               872.4552
 Red. masses --      3.2903                 1.6599                 2.7656
 Frc consts  --      1.2567                 0.6548                 1.2403
 IR Inten    --     29.5797                11.6485                 8.3220

                     19                     20                     21
                      A                      A                      A
 Frequencies --    909.7669               975.9718              1002.9685
 Red. masses --      4.1396                 2.6470                 2.3249
 Frc consts  --      2.0187                 1.4855                 1.3779
 IR Inten    --     31.3154                 0.9474                 1.1248

                     22                     23                     24
                      A                      A                      A
 Frequencies --   1035.3127              1063.8273              1092.7862
 Red. masses --      1.3004                 1.8300                 1.7960
 Frc consts  --      0.8212                 1.2203                 1.2637
 IR Inten    --     12.3865                 5.0912                 7.5835

                     25                     26                     27
                      A                      A                      A
 Frequencies --   1109.5581              1140.2111              1174.5633
 Red. masses --      2.0667                 1.9226                 1.8427
 Frc consts  --      1.4991                 1.4727                 1.4978
 IR Inten    --      3.4875                 1.6382                 3.0114

                     28                     29                     30
                      A                      A                      A
 Frequencies --   1202.0646              1220.0797              1287.1651
 Red. masses --      1.7117                 1.4990                 1.3245
 Frc consts  --      1.4573                 1.3147                 1.2929
 IR Inten    --      0.8355                 0.6251                 3.0682

                     31                     32                     33
                      A                      A                      A
 Frequencies --   1316.6861              1371.6066              1400.5324
 Red. masses --      1.6794                 1.6106                 1.3377
 Frc consts  --      1.7154                 1.7852                 1.5459
 IR Inten    --      4.9993                 3.8765                 3.6690

                     34                     35                     36
                      A                      A                      A
 Frequencies --   1408.8569              1416.7501              1470.4534
 Red. masses --      1.4209                 1.8523                 1.0792
 Frc consts  --      1.6617                 2.1905                 1.3748
 IR Inten    --      4.7575                 1.5644                 1.6545

                     37                     38                     39
                      A                      A                      A
 Frequencies --   1495.0911              1497.0587              1503.1185
 Red. masses --      1.0551                 1.0375                 1.0486
 Frc consts  --      1.3895                 1.3700                 1.3959
 IR Inten    --      6.4535                 6.7763                 3.9167

                     40                     41                     42
                      A                      A                      A
 Frequencies --   1508.8701              1925.2700              3027.8375
 Red. masses --      1.0749                12.5285                 1.0593
 Frc consts  --      1.4419                27.3611                 5.7216
 IR Inten    --      5.7607               346.4122                15.5314

                     43                     44                     45
                      A                      A                      A
 Frequencies --   3040.3018              3048.1964              3050.1781
 Red. masses --      1.0433                 1.0345                 1.0779
 Frc consts  --      5.6819                 5.6633                 5.9086
 IR Inten    --     23.6579                20.8681                28.0560

                     46                     47                     48
                      A                      A                      A
 Frequencies --   3062.8112              3100.3578              3121.4337
 Red. masses --      1.1015                 1.1011                 1.1025
 Frc consts  --      6.0882                 6.2357                 6.3291
 IR Inten    --     11.0001                18.2991                23.6718

                     49                     50                     51
                      A                      A                      A
 Frequencies --   3126.5486              3137.8521              3152.5942
 Red. masses --      1.1024                 1.0995                 1.0940
 Frc consts  --      6.3492                 6.3782                 6.4065
 IR Inten    --     16.6219                10.4947                24.8090

 - Thermochemistry -
 -------------------
 Temperature   298.150 Kelvin.  Pressure   1.00000 Atm.
 Atom     1 has atomic number  6 and mass  12.00000

 Molecular mass:   126.06808 amu.
 Principal axes and moments of inertia in atomic units:
                           1         2         3
     Eigenvalues --   847.605321102.734051587.46395
           X            0.99783  -0.06492   0.01108
           Y            0.06465   0.99764   0.02294
           Z           -0.01255  -0.02217   0.99968
 This molecule is an asymmetric top.
 Rotational symmetry number  1.
 Warning -- assumption of classical behavior for rotation
           may cause significant error
 Rotational temperatures (Kelvin)      0.10219     0.07854     0.05456
 Rotational constants (GHZ):           2.12922     1.63661     1.13687
 Zero-point vibrational energy     411674.8 (Joules/Mol)
                                   98.39264 (Kcal/Mol)
 Warning -- explicit consideration of  11 degrees of freedom as
           vibrations may cause significant error
 Vibrational temperatures:     97.40   192.04   210.77   275.58   320.35
          (Kelvin)            323.27   390.92   454.76   590.89   743.35
                              796.87   936.30   998.55  1093.00  1113.81
                             1158.43  1177.26  1255.27  1308.95  1404.20
                             1443.05  1489.58  1530.61  1572.27  1596.40
                             1640.51  1689.93  1729.50  1755.42  1851.94
                             1894.42  1973.43  2015.05  2027.03  2038.38
                             2115.65  2151.10  2153.93  2162.65  2170.92
                             2770.03  4356.38  4374.31  4385.67  4388.52
                             4406.70  4460.72  4491.04  4498.40  4514.66
                             4535.87

 Zero-point correction=                           0.156799 (Hartree/Particle)
 Thermal correction to Energy=                    0.165956
 Thermal correction to Enthalpy=                  0.166900
 Thermal correction to Gibbs Free Energy=         0.122821
 Sum of electronic and zero-point Energies=           -422.982756
 Sum of electronic and thermal Energies=              -422.973599
 Sum of electronic and thermal Enthalpies=            -422.972655
 Sum of electronic and thermal Free Energies=         -423.016734

                     E (Thermal)             CV                S
                      KCal/Mol        Cal/Mol-Kelvin    Cal/Mol-Kelvin
 Total                  104.139             33.821             92.773
 Electronic               0.000              0.000              0.000
 Translational            0.889              2.981             40.409
 Rotational               0.889              2.981             28.786
 Vibrational            102.362             27.859             23.578
 Vibration     1          0.598              1.970              4.219
 Vibration     2          0.613              1.920              2.895
 Vibration     3          0.617              1.906              2.717
 Vibration     4          0.634              1.852              2.213
 Vibration     5          0.648              1.807              1.937
 Vibration     6          0.649              1.803              1.921
 Vibration     7          0.675              1.725              1.585
 Vibration     8          0.703              1.643              1.330
 Vibration     9          0.775              1.447              0.924
 Vibration    10          0.872              1.213              0.618
 Vibration    11          0.909              1.131              0.536

 Optimization completed.
    -- Stationary point found.
 Normal termination of Gaussian 09 at Tue Jan 28 10:00:13 2020.
