 Gaussian 09, Revision D.01,
 Gaussian 09:  ES64L-G09RevD.01 24-Apr-2013

 -----------------------------
 # b3lyp 6-31G(2df,p) opt Freq
 -----------------------------

 -----
 titel
 -----
 Symbolic Z-matrix:
 Charge =  0 Multiplicity = 1

 SCF Done:  E(RB3LYP) =  -423.186307465     A.U. after   13 cycles
 Optimization completed.
    -- Stationary point found.
 Normal termination of Gaussian 09 at Mon Jan 27 19:04:24 2020.

 ----------------------------------------------------------------------
 #N Geom=AllCheck Guess=TCheck SCRF=Check GenChk RB3LYP/6-31G(2df,p) Fr
 eq
 ----------------------------------------------------------------------

 Structure from the checkpoint file:  "/scratch/puck/g09_d4be6850-74cc-475c-aa83-869d428b5514/Gau-173300.chk"
 -----
 titel
 -----
 Charge =  0 Multiplicity = 1

                         Standard orientation:
 ---------------------------------------------------------------------
 Center     Atomic      Atomic             Coordinates (Angstroms)
 Number     Number       Type             X           Y           Z
 ---------------------------------------------------------------------
      1          8           0       -2.445126   -0.431224    0.027808
      2          6           0       -1.091241   -0.106618   -0.056130
      3          6           0       -0.677225    1.141230   -0.844920
      4          6           0        0.511249    1.734210   -0.051269
      5          6           0        1.078044    0.555617    0.769189
      6          8           0        1.941855   -0.250809   -0.040799
      7          6           0        1.173691   -1.238358   -0.726508
      8          6           0       -0.174434   -1.301423   -0.029925
      9          6           0       -0.140742   -0.308912    1.110311
     10          1           0       -2.896046    0.285979    0.487531
     11          1           0       -0.406434    0.899168   -1.878375
     12          1           0       -1.522852    1.834357   -0.898273
     13          1           0        1.282506    2.183026   -0.681846
     14          1           0        0.149351    2.505085    0.639091
     15          1           0        1.660544    0.882230    1.633786
     16          1           0        1.086190   -0.981309   -1.792741
     17          1           0        1.699324   -2.198056   -0.656520
     18          1           0       -0.659545   -2.260916    0.105077
     19          1           0       -0.442922   -0.547780    2.121713
 ---------------------------------------------------------------------

 SCF Done:  E(RB3LYP) =  -423.186307465     A.U. after    1 cycles

 The electronic state is 1-A.
 Alpha  occ. eigenvalues --  -19.14614 -19.12763 -10.23979 -10.22928 -10.22416
 Alpha  occ. eigenvalues --  -10.18916 -10.18393 -10.18347 -10.17883  -1.03580
 Alpha  occ. eigenvalues --   -1.02407  -0.86422  -0.77722  -0.71689  -0.66148
 Alpha  occ. eigenvalues --   -0.59660  -0.57121  -0.55567  -0.53361  -0.47243
 Alpha  occ. eigenvalues --   -0.47046  -0.43598  -0.43059  -0.42253  -0.40997
 Alpha  occ. eigenvalues --   -0.38889  -0.36349  -0.34689  -0.34211  -0.31343
 Alpha  occ. eigenvalues --   -0.31076  -0.27549  -0.24895  -0.24154
 Alpha virt. eigenvalues --    0.07246   0.08243   0.10881   0.11793   0.13116
 Alpha virt. eigenvalues --    0.14261   0.14664   0.15984   0.16751   0.17668
 Alpha virt. eigenvalues --    0.18385   0.19246   0.20153   0.21403   0.22676

 Mulliken charges:
               1
     1  O   -0.483059
     2  C    0.412403
     3  C   -0.301690
     4  C   -0.207687
     5  C    0.080153
     6  O   -0.270026
     7  C   -0.104412
     8  C   -0.098632
     9  C   -0.177961
    10  H    0.279123
    11  H    0.111424
    12  H    0.091958
    13  H    0.106161
    14  H    0.093211
    15  H    0.079787
    16  H    0.095002
    17  H    0.104142
    18  H    0.100669
    19  H    0.089435
 Sum of Mulliken charges =   0.00000

 Dipole moment (field-independent basis, Debye):
    X=             -1.1460    Y=              1.0286    Z=              0.7961  Tot=              1.7335
 Quadrupole moment (field-independent basis, Debye-Ang):
   XX=            -57.4608   YY=            -50.5684   ZZ=            -50.9964
   XY=             -3.4656   XZ=             -2.2565   YZ=              1.1063

  Exact polarizability:  75.044  -2.380  76.451  -0.750   2.244  67.877
 Approx polarizability: 108.657  -3.001 108.004  -0.257   5.637 104.414

                      1                      2                      3
                      A                      A                      A
 Frequencies --    118.2582               223.8542               268.8233
 Red. masses --      2.8447                 2.3622                 1.6434
 Frc consts  --      0.0234                 0.0697                 0.0700
 IR Inten    --      2.6317                 3.0588                29.1834

                      4                      5                      6
                      A                      A                      A
 Frequencies --    327.4431               371.6898               390.9119
 Red. masses --      1.5758                 3.5983                 2.9923
 Frc consts  --      0.0995                 0.2929                 0.2694
 IR Inten    --     52.3785                19.5477                 4.5051

                      7                      8                      9
                      A                      A                      A
 Frequencies --    464.7653               551.8995               613.4520
 Red. masses --      2.6024                 4.7138                 3.7757
 Frc consts  --      0.3312                 0.8460                 0.8372
 IR Inten    --      2.7883                 2.7282                 4.2715

                     10                     11                     12
                      A                      A                      A
 Frequencies --    714.3862               737.7142               776.2394
 Red. masses --      3.7436                 4.8138                 2.3543
 Frc consts  --      1.1256                 1.5435                 0.8358
 IR Inten    --      0.3680                 1.2306                 5.5590

                     13                     14                     15
                      A                      A                      A
 Frequencies --    802.9018               856.4492               885.5540
 Red. masses --      2.1676                 2.3372                 2.0300
 Frc consts  --      0.8233                 1.0101                 0.9379
 IR Inten    --      3.3460                 8.2704                29.1648

                     16                     17                     18
                      A                      A                      A
 Frequencies --    898.3390               932.8741               951.2456
 Red. masses --      2.5885                 2.4860                 1.7632
 Frc consts  --      1.2308                 1.2747                 0.9400
 IR Inten    --      2.8015                10.6782                 0.2101

                     19                     20                     21
                      A                      A                      A
 Frequencies --    985.9960               993.4616              1022.3763
 Red. masses --      2.9243                 1.3909                 2.2209
 Frc consts  --      1.6750                 0.8088                 1.3677
 IR Inten    --      6.7953                10.0185                 2.3873

                     22                     23                     24
                      A                      A                      A
 Frequencies --   1045.9074              1051.3433              1075.9153
 Red. masses --      2.1721                 1.9036                 2.4622
 Frc consts  --      1.4000                 1.2397                 1.6793
 IR Inten    --     15.3484                14.0950                37.4945

                     25                     26                     27
                      A                      A                      A
 Frequencies --   1104.2408              1160.9799              1177.7951
 Red. masses --      2.5474                 1.7998                 1.3878
 Frc consts  --      1.8301                 1.4293                 1.1343
 IR Inten    --     31.0954                18.0664                41.9490

                     28                     29                     30
                      A                      A                      A
 Frequencies --   1206.2022              1225.9526              1251.9298
 Red. masses --      1.4553                 1.1163                 1.7111
 Frc consts  --      1.2475                 0.9885                 1.5801
 IR Inten    --     19.8653                 4.9707                47.7541

                     31                     32                     33
                      A                      A                      A
 Frequencies --   1267.7680              1290.0435              1302.5219
 Red. masses --      1.9893                 1.5087                 1.5433
 Frc consts  --      1.8838                 1.4793                 1.5426
 IR Inten    --      2.6650                 4.7182                13.2688

                     34                     35                     36
                      A                      A                      A
 Frequencies --   1337.7642              1342.7333              1349.0161
 Red. masses --      1.4767                 1.5555                 1.4160
 Frc consts  --      1.5571                 1.6524                 1.5182
 IR Inten    --     49.5980                 2.7555                16.1222

                     37                     38                     39
                      A                      A                      A
 Frequencies --   1384.6414              1441.2682              1478.9506
 Red. masses --      1.4479                 2.5313                 1.1111
 Frc consts  --      1.6356                 3.0980                 1.4319
 IR Inten    --     15.6466                 7.9615                 2.1705

                     40                     41                     42
                      A                      A                      A
 Frequencies --   1503.6565              1533.6964              2992.5945
 Red. masses --      1.1084                 1.0872                 1.0670
 Frc consts  --      1.4766                 1.5068                 5.6300
 IR Inten    --      1.8797                 1.2051                64.6346

                     43                     44                     45
                      A                      A                      A
 Frequencies --   3037.4372              3044.3366              3046.3933
 Red. masses --      1.0650                 1.0628                 1.0959
 Frc consts  --      5.7893                 5.8035                 5.9925
 IR Inten    --     23.2088                39.4287                45.6824

                     46                     47                     48
                      A                      A                      A
 Frequencies --   3078.2392              3087.1453              3107.4933
 Red. masses --      1.1011                 1.0886                 1.1002
 Frc consts  --      6.1472                 6.1124                 6.2595
 IR Inten    --     18.3575                43.3864                28.7535

                     49                     50                     51
                      A                      A                      A
 Frequencies --   3185.6513              3198.7385              3789.5241
 Red. masses --      1.0896                 1.0943                 1.0659
 Frc consts  --      6.5149                 6.5972                 9.0185
 IR Inten    --      5.2794                 8.7053                14.5081

 - Thermochemistry -
 -------------------
 Temperature   298.150 Kelvin.  Pressure   1.00000 Atm.
 Atom     1 has atomic number  8 and mass  15.99491

 Molecular mass:   126.06808 amu.
 Principal axes and moments of inertia in atomic units:
                           1         2         3
     Eigenvalues --   643.125761012.267371274.75216
           X            0.99970  -0.02314  -0.00799
           Y            0.02316   0.99973   0.00215
           Z            0.00794  -0.00234   0.99997
 This molecule is an asymmetric top.
 Rotational symmetry number  1.
 Warning -- assumption of classical behavior for rotation
           may cause significant error
 Rotational temperatures (Kelvin)      0.13468     0.08556     0.06795
 Rotational constants (GHZ):           2.80620     1.78287     1.41576
 Zero-point vibrational energy     424605.6 (Joules/Mol)
                                  101.48318 (Kcal/Mol)
 Warning -- explicit consideration of   9 degrees of freedom as
           vibrations may cause significant error
 Vibrational temperatures:    170.15   322.08   386.78   471.12   534.78
          (Kelvin)            562.43   668.69   794.06   882.62  1027.84
                             1061.40  1116.83  1155.20  1232.24  1274.11
                             1292.51  1342.20  1368.63  1418.63  1429.37
                             1470.97  1504.83  1512.65  1548.00  1588.75
                             1670.39  1694.58  1735.45  1763.87  1801.25
                             1824.03  1856.08  1874.04  1924.74  1931.89
                             1940.93  1992.19  2073.66  2127.88  2163.42
                             2206.64  4305.67  4370.19  4380.12  4383.07
                             4428.89  4441.71  4470.98  4583.44  4602.27
                             5452.27

 Zero-point correction=                           0.161724 (Hartree/Particle)
 Thermal correction to Energy=                    0.168912
 Thermal correction to Enthalpy=                  0.169856
 Thermal correction to Gibbs Free Energy=         0.130415
 Sum of electronic and zero-point Energies=           -423.024584
 Sum of electronic and thermal Energies=              -423.017396
 Sum of electronic and thermal Enthalpies=            -423.016452
 Sum of electronic and thermal Free Energies=         -423.055892

                     E (Thermal)             CV                S
                      KCal/Mol        Cal/Mol-Kelvin    Cal/Mol-Kelvin
 Total                  105.994             29.562             83.009
 Electronic               0.000              0.000              0.000
 Translational            0.889              2.981             40.409
 Rotational               0.889              2.981             28.208
 Vibrational            104.216             23.601             14.392
 Vibration     1          0.608              1.934              3.129
 Vibration     2          0.649              1.805              1.928
 Vibration     3          0.673              1.730              1.604
 Vibration     4          0.711              1.621              1.273
 Vibration     5          0.743              1.530              1.073
 Vibration     6          0.759              1.490              0.997
 Vibration     7          0.822              1.328              0.752
 Vibration     8          0.907              1.136              0.540
 Vibration     9          0.973              1.003              0.427

 Optimization completed.
    -- Stationary point found.
 Normal termination of Gaussian 09 at Mon Jan 27 19:47:39 2020.
