 Gaussian 09, Revision D.01,
 Gaussian 09:  ES64L-G09RevD.01 24-Apr-2013

 -----------------------------
 # b3lyp 6-31G(2df,p) opt Freq
 -----------------------------

 -----
 titel
 -----
 Symbolic Z-matrix:
 Charge =  0 Multiplicity = 1

 SCF Done:  E(RB3LYP) =  -423.130200712     A.U. after   13 cycles
 Optimization completed.
    -- Stationary point found.
 Normal termination of Gaussian 09 at Mon Jan 27 18:45:00 2020.

 ----------------------------------------------------------------------
 #N Geom=AllCheck Guess=TCheck SCRF=Check GenChk RB3LYP/6-31G(2df,p) Fr
 eq
 ----------------------------------------------------------------------

 Structure from the checkpoint file:  "/scratch/puck/g09_ecdc2b62-1856-41f0-90db-28008adce930/Gau-49529.chk"
 -----
 titel
 -----
 Charge =  0 Multiplicity = 1

                         Standard orientation:
 ---------------------------------------------------------------------
 Center     Atomic      Atomic             Coordinates (Angstroms)
 Number     Number       Type             X           Y           Z
 ---------------------------------------------------------------------
      1          8           0       -0.884895    1.980852   -0.254307
      2          6           0       -0.827477    0.606675   -0.137196
      3          6           0       -1.782498   -0.380822   -0.806249
      4          6           0       -1.604154   -1.358904    0.400585
      5          6           0       -0.675665   -0.360009    1.100237
      6          6           0        0.461389   -0.036373    0.189034
      7          6           0        1.737313    0.709499    0.562148
      8          6           0        2.420802   -0.337241   -0.344618
      9          8           0        1.158117   -0.982799   -0.633672
     10          1           0       -1.774434    2.270840   -0.022666
     11          1           0       -2.803714    0.008060   -0.864892
     12          1           0       -1.482217   -0.738908   -1.795079
     13          1           0       -2.536266   -1.533365    0.941337
     14          1           0       -1.145582   -2.321229    0.159310
     15          1           0       -0.623549   -0.174205    2.168193
     16          1           0        1.779680    1.741856    0.213410
     17          1           0        2.013600    0.667613    1.617427
     18          1           0        2.890806    0.056915   -1.252646
     19          1           0        3.117637   -1.018957    0.155788
 ---------------------------------------------------------------------

 SCF Done:  E(RB3LYP) =  -423.130200712     A.U. after    1 cycles

 The electronic state is 1-A.
 Alpha  occ. eigenvalues --  -19.15235 -19.12727 -10.23528 -10.23205 -10.22733
 Alpha  occ. eigenvalues --  -10.18565 -10.18308 -10.18225 -10.18201  -1.04206
 Alpha  occ. eigenvalues --   -1.02910  -0.87694  -0.74835  -0.71350  -0.65225
 Alpha  occ. eigenvalues --   -0.62660  -0.56512  -0.52888  -0.50499  -0.48315
 Alpha  occ. eigenvalues --   -0.47585  -0.45782  -0.42668  -0.41215  -0.38617
 Alpha  occ. eigenvalues --   -0.37463  -0.37031  -0.34743  -0.33245  -0.32148
 Alpha  occ. eigenvalues --   -0.30376  -0.29700  -0.23372  -0.22454
 Alpha virt. eigenvalues --    0.07272   0.07944   0.10381   0.11289   0.12378
 Alpha virt. eigenvalues --    0.13665   0.14655   0.14724   0.16917   0.17020
 Alpha virt. eigenvalues --    0.17510   0.18654   0.20183   0.22339   0.24364

 Mulliken charges:
               1
     1  O   -0.453761
     2  C    0.285561
     3  C   -0.294245
     4  C   -0.226198
     5  C   -0.244562
     6  C    0.457913
     7  C   -0.373563
     8  C   -0.073182
     9  O   -0.321091
    10  H    0.285037
    11  H    0.092623
    12  H    0.114383
    13  H    0.099557
    14  H    0.116886
    15  H    0.083659
    16  H    0.129466
    17  H    0.111101
    18  H    0.106631
    19  H    0.103784
 Sum of Mulliken charges =   0.00000

 Dipole moment (field-independent basis, Debye):
    X=             -0.8308    Y=              0.8919    Z=              1.2277  Tot=              1.7300
 Quadrupole moment (field-independent basis, Debye-Ang):
   XX=            -45.2857   YY=            -55.0923   ZZ=            -53.1567
   XY=             -1.4384   XZ=              0.1795   YZ=             -0.0191

  Exact polarizability:  88.884   0.734  71.652  -0.080  -1.385  67.353
 Approx polarizability: 113.995  -1.469 106.891  -1.239  -3.362 103.283

                      1                      2                      3
                      A                      A                      A
 Frequencies --     82.5660               159.1400               179.2746
 Red. masses --      2.3446                 3.5222                 2.7186
 Frc consts  --      0.0094                 0.0526                 0.0515
 IR Inten    --      2.7863                 3.7169                 1.2282

                      4                      5                      6
                      A                      A                      A
 Frequencies --    216.3231               261.6828               313.5803
 Red. masses --      1.9930                 3.6190                 1.2912
 Frc consts  --      0.0549                 0.1460                 0.0748
 IR Inten    --      0.8416                 5.9604                69.0197

                      7                      8                      9
                      A                      A                      A
 Frequencies --    398.8884               446.6051               533.9601
 Red. masses --      2.9215                 3.2765                 3.3228
 Frc consts  --      0.2739                 0.3850                 0.5582
 IR Inten    --     33.2093                 1.3446                 3.5228

                     10                     11                     12
                      A                      A                      A
 Frequencies --    567.7874               656.1967               751.2342
 Red. masses --      3.9802                 4.6608                 3.3074
 Frc consts  --      0.7560                 1.1824                 1.0997
 IR Inten    --      2.7818                 5.5231                 5.7651

                     13                     14                     15
                      A                      A                      A
 Frequencies --    795.8974               800.2275               853.7443
 Red. masses --      1.1491                 1.2394                 4.5799
 Frc consts  --      0.4289                 0.4676                 1.9668
 IR Inten    --      2.4300                 3.7504                 8.6380

                     16                     17                     18
                      A                      A                      A
 Frequencies --    902.6660               926.4779               945.1199
 Red. masses --      2.1557                 1.6073                 2.9318
 Frc consts  --      1.0349                 0.8129                 1.5430
 IR Inten    --     18.1305                 8.6773                 0.4797

                     19                     20                     21
                      A                      A                      A
 Frequencies --    967.3137               980.8457              1007.7008
 Red. masses --      2.5753                 2.2008                 3.6188
 Frc consts  --      1.4198                 1.2475                 2.1651
 IR Inten    --     10.1444                36.4343                97.8095

                     22                     23                     24
                      A                      A                      A
 Frequencies --   1036.7963              1062.6976              1076.0675
 Red. masses --      2.7292                 2.1685                 2.2414
 Frc consts  --      1.7285                 1.4429                 1.5291
 IR Inten    --     10.8410                38.6298                53.4848

                     25                     26                     27
                      A                      A                      A
 Frequencies --   1140.8964              1160.3371              1170.4814
 Red. masses --      2.0885                 1.4621                 1.5059
 Frc consts  --      1.6017                 1.1598                 1.2156
 IR Inten    --      0.8462                10.9092                 9.9151

                     28                     29                     30
                      A                      A                      A
 Frequencies --   1203.4627              1213.4333              1217.5045
 Red. masses --      1.5834                 1.1897                 1.1693
 Frc consts  --      1.3511                 1.0321                 1.0213
 IR Inten    --      2.2420                 0.5868                 2.2132

                     31                     32                     33
                      A                      A                      A
 Frequencies --   1238.4068              1257.2681              1270.9375
 Red. masses --      1.5109                 1.7142                 1.6514
 Frc consts  --      1.3653                 1.5965                 1.5717
 IR Inten    --     12.7555                13.7365                 7.8605

                     34                     35                     36
                      A                      A                      A
 Frequencies --   1302.9306              1326.6571              1354.9254
 Red. masses --      1.8574                 2.3828                 1.5788
 Frc consts  --      1.8578                 2.4709                 1.7077
 IR Inten    --    146.7593                22.2141                 3.2956

                     37                     38                     39
                      A                      A                      A
 Frequencies --   1472.0453              1483.8378              1492.8331
 Red. masses --      1.3629                 1.4199                 1.1157
 Frc consts  --      1.7401                 1.8420                 1.4649
 IR Inten    --      5.0895                 5.4756                 1.7565

                     40                     41                     42
                      A                      A                      A
 Frequencies --   1510.4757              1535.5011              3026.4798
 Red. masses --      1.3595                 1.3137                 1.0550
 Frc consts  --      1.8276                 1.8250                 5.6937
 IR Inten    --     13.1614                 1.2967                90.1227

                     43                     44                     45
                      A                      A                      A
 Frequencies --   3048.0690              3066.1182              3068.9656
 Red. masses --      1.0575                 1.0584                 1.1109
 Frc consts  --      5.7889                 5.8622                 6.1645
 IR Inten    --     42.6671                45.7094                30.8734

                     46                     47                     48
                      A                      A                      A
 Frequencies --   3080.1975              3095.6783              3119.5751
 Red. masses --      1.0612                 1.1080                 1.1080
 Frc consts  --      5.9321                 6.2558                 6.3533
 IR Inten    --     28.4618                 7.9559                31.5084

                     49                     50                     51
                      A                      A                      A
 Frequencies --   3137.7351              3163.0031              3789.6206
 Red. masses --      1.1076                 1.0922                 1.0659
 Frc consts  --      6.4249                 6.4378                 9.0193
 IR Inten    --     15.2778                17.2501                16.7398

 - Thermochemistry -
 -------------------
 Temperature   298.150 Kelvin.  Pressure   1.00000 Atm.
 Atom     1 has atomic number  8 and mass  15.99491

 Molecular mass:   126.06808 amu.
 Principal axes and moments of inertia in atomic units:
                           1         2         3
     Eigenvalues --   660.452201158.725411451.35523
           X            0.99931   0.03640   0.00770
           Y           -0.03643   0.99933   0.00396
           Z           -0.00755  -0.00424   0.99996
 This molecule is an asymmetric top.
 Rotational symmetry number  1.
 Warning -- assumption of classical behavior for rotation
           may cause significant error
 Rotational temperatures (Kelvin)      0.13114     0.07475     0.05968
 Rotational constants (GHZ):           2.73258     1.55752     1.24349
 Zero-point vibrational energy     417916.4 (Joules/Mol)
                                   99.88442 (Kcal/Mol)
 Warning -- explicit consideration of  10 degrees of freedom as
           vibrations may cause significant error
 Vibrational temperatures:    118.79   228.97   257.94   311.24   376.50
          (Kelvin)            451.17   573.91   642.56   768.25   816.92
                              944.12  1080.86  1145.12  1151.35  1228.35
                             1298.73  1332.99  1359.82  1391.75  1411.22
                             1449.85  1491.72  1528.98  1548.22  1641.49
                             1669.46  1684.06  1731.51  1745.86  1751.72
                             1781.79  1808.93  1828.59  1874.62  1908.76
                             1949.43  2117.94  2134.91  2147.85  2173.23
                             2209.24  4354.42  4385.49  4411.45  4415.55
                             4431.71  4453.98  4488.37  4514.50  4550.85
                             5452.41

 Zero-point correction=                           0.159176 (Hartree/Particle)
 Thermal correction to Energy=                    0.167367
 Thermal correction to Enthalpy=                  0.168311
 Thermal correction to Gibbs Free Energy=         0.126466
 Sum of electronic and zero-point Energies=           -422.971025
 Sum of electronic and thermal Energies=              -422.962833
 Sum of electronic and thermal Enthalpies=            -422.961889
 Sum of electronic and thermal Free Energies=         -423.003735

                     E (Thermal)             CV                S
                      KCal/Mol        Cal/Mol-Kelvin    Cal/Mol-Kelvin
 Total                  105.025             31.663             88.072
 Electronic               0.000              0.000              0.000
 Translational            0.889              2.981             40.409
 Rotational               0.889              2.981             28.498
 Vibrational            103.247             25.701             19.166
 Vibration     1          0.600              1.961              3.829
 Vibration     2          0.621              1.892              2.560
 Vibration     3          0.629              1.868              2.336
 Vibration     4          0.645              1.816              1.990
 Vibration     5          0.669              1.743              1.651
 Vibration     6          0.701              1.648              1.343
 Vibration     7          0.765              1.473              0.967
 Vibration     8          0.806              1.368              0.806
 Vibration     9          0.889              1.175              0.578
 Vibration    10          0.924              1.101              0.509

 Optimization completed.
    -- Stationary point found.
 Normal termination of Gaussian 09 at Mon Jan 27 19:25:39 2020.
