 Gaussian 09, Revision D.01,
 Gaussian 09:  ES64L-G09RevD.01 24-Apr-2013

 -----------------------------
 # b3lyp 6-31G(2df,p) opt Freq
 -----------------------------

 -----
 titel
 -----
 Symbolic Z-matrix:
 Charge =  0 Multiplicity = 1

 SCF Done:  E(RB3LYP) =  -423.211864314     A.U. after   13 cycles
 Optimization completed.
    -- Stationary point found.
 Normal termination of Gaussian 09 at Mon Jan 27 11:12:23 2020.

 ----------------------------------------------------------------------
 #N Geom=AllCheck Guess=TCheck SCRF=Check GenChk RB3LYP/6-31G(2df,p) Fr
 eq
 ----------------------------------------------------------------------

 Structure from the checkpoint file:  "/scratch/puck/g09_ab7142d2-0980-4924-9fa6-2e6f7ba9317b/Gau-94688.chk"
 -----
 titel
 -----
 Charge =  0 Multiplicity = 1

                         Standard orientation:
 ---------------------------------------------------------------------
 Center     Atomic      Atomic             Coordinates (Angstroms)
 Number     Number       Type             X           Y           Z
 ---------------------------------------------------------------------
      1          6           0        3.753250   -0.289382    0.000003
      2          6           0        2.279358   -0.652184   -0.000009
      3          8           0        1.532895    0.558751    0.000003
      4          6           0        0.183131    0.439584    0.000001
      5          6           0       -0.678927    1.494460   -0.000003
      6          8           0       -1.967409    1.032425   -0.000001
      7          6           0       -1.921701   -0.322873    0.000004
      8          6           0       -3.223384   -1.041380   -0.000001
      9          6           0       -0.626414   -0.748690    0.000005
     10          1           0        4.364840   -1.196407   -0.000016
     11          1           0        4.004125    0.299681   -0.886434
     12          1           0        4.004122    0.299640    0.886469
     13          1           0        2.023815   -1.248943   -0.887638
     14          1           0        2.023806   -1.248966    0.887603
     15          1           0       -0.543156    2.561128   -0.000002
     16          1           0       -3.052977   -2.120210   -0.000064
     17          1           0       -3.821876   -0.789009    0.882858
     18          1           0       -3.821917   -0.788914   -0.882806
     19          1           0       -0.296545   -1.774609    0.000007
 ---------------------------------------------------------------------

 SCF Done:  E(RB3LYP) =  -423.211864314     A.U. after    1 cycles

 The electronic state is 1-A.
 Alpha  occ. eigenvalues --  -19.18996 -19.15971 -10.23709 -10.22849 -10.22458
 Alpha  occ. eigenvalues --  -10.20485 -10.18875 -10.18054 -10.17081  -1.09434
 Alpha  occ. eigenvalues --   -1.05403  -0.79203  -0.77576  -0.74628  -0.68077
 Alpha  occ. eigenvalues --   -0.63057  -0.57361  -0.55479  -0.52191  -0.47997
 Alpha  occ. eigenvalues --   -0.46966  -0.45041  -0.43045  -0.41014  -0.39983
 Alpha  occ. eigenvalues --   -0.39626  -0.38922  -0.38595  -0.37916  -0.35162
 Alpha  occ. eigenvalues --   -0.32416  -0.32156  -0.24361  -0.19300
 Alpha virt. eigenvalues --    0.02635   0.09793   0.10215   0.10346   0.12273
 Alpha virt. eigenvalues --    0.13048   0.14980   0.15145   0.15871   0.17084
 Alpha virt. eigenvalues --    0.18141   0.19343   0.19437   0.20037   0.22323

 Mulliken charges:
               1
     1  C   -0.391587
     2  C   -0.044801
     3  O   -0.274202
     4  C    0.328026
     5  C   -0.146097
     6  O   -0.179712
     7  C    0.390308
     8  C   -0.487920
     9  C   -0.425621
    10  H    0.117592
    11  H    0.131174
    12  H    0.131174
    13  H    0.102171
    14  H    0.102171
    15  H    0.130172
    16  H    0.132481
    17  H    0.138250
    18  H    0.138251
    19  H    0.108171
 Sum of Mulliken charges =   0.00000

 Dipole moment (field-independent basis, Debye):
    X=              0.4681    Y=             -1.8020    Z=              0.0000  Tot=              1.8618
 Quadrupole moment (field-independent basis, Debye-Ang):
   XX=            -48.4643   YY=            -50.4731   ZZ=            -54.4962
   XY=              0.1572   XZ=              0.0000   YZ=              0.0000

  Exact polarizability: 108.876   1.330  81.120   0.000   0.000  51.850
 Approx polarizability: 140.692  -2.683 130.356   0.000   0.000  79.043

                      1                      2                      3
                      A                      A                      A
 Frequencies --     52.1607                77.8418               108.5882
 Red. masses --      3.5492                 1.7739                 1.0991
 Frc consts  --      0.0057                 0.0063                 0.0076
 IR Inten    --      1.4152                 0.1557                 0.0009

                      4                      5                      6
                      A                      A                      A
 Frequencies --    137.9552               200.0371               240.6176
 Red. masses --      3.2366                 3.0781                 1.1690
 Frc consts  --      0.0363                 0.0726                 0.0399
 IR Inten    --      0.3569                 0.6150                 0.2142

                      7                      8                      9
                      A                      A                      A
 Frequencies --    301.5302               356.3019               357.7866
 Red. masses --      2.8467                 3.2540                 7.3387
 Frc consts  --      0.1525                 0.2434                 0.5535
 IR Inten    --      0.5693                 2.9319                 1.6209

                     10                     11                     12
                      A                      A                      A
 Frequencies --    476.6724               620.7354               621.1193
 Red. masses --      3.8684                 4.6592                 2.4870
 Frc consts  --      0.5179                 1.0577                 0.5653
 IR Inten    --      1.0245                 6.0628                 8.5128

                     13                     14                     15
                      A                      A                      A
 Frequencies --    650.4300               698.1029               745.4664
 Red. masses --      2.2556                 2.1645                 4.2641
 Frc consts  --      0.5622                 0.6215                 1.3961
 IR Inten    --      8.3634                 7.0297                 1.9300

                     16                     17                     18
                      A                      A                      A
 Frequencies --    781.8118               828.2762               916.5683
 Red. masses --      1.3599                 1.0880                 2.4577
 Frc consts  --      0.4897                 0.4398                 1.2165
 IR Inten    --     32.9028                 0.0631                 0.4630

                     19                     20                     21
                      A                      A                      A
 Frequencies --    945.5103              1000.4673              1023.4977
 Red. masses --      2.4917                 2.1556                 2.7677
 Frc consts  --      1.3124                 1.2712                 1.7082
 IR Inten    --     26.4798                15.7112                 1.7911

                     22                     23                     24
                      A                      A                      A
 Frequencies --   1062.5978              1083.6700              1141.2150
 Red. masses --      1.4675                 3.2422                 2.4650
 Frc consts  --      0.9763                 2.2433                 1.8915
 IR Inten    --      2.0843                40.6872                30.4558

                     25                     26                     27
                      A                      A                      A
 Frequencies --   1157.8691              1184.9905              1185.8762
 Red. masses --      2.5334                 2.1905                 1.5239
 Frc consts  --      2.0011                 1.8123                 1.2627
 IR Inten    --     13.0456                72.6046                 3.6515

                     28                     29                     30
                      A                      A                      A
 Frequencies --   1243.5706              1297.9542              1335.1301
 Red. masses --      2.1263                 1.1047                 3.4822
 Frc consts  --      1.9374                 1.0965                 3.6572
 IR Inten    --     16.3044                 0.4748               176.0164

                     31                     32                     33
                      A                      A                      A
 Frequencies --   1399.8719              1412.7704              1416.0640
 Red. masses --      1.2300                 3.4546                 1.3645
 Frc consts  --      1.4201                 4.0625                 1.6121
 IR Inten    --      5.8574                40.9908                 3.6791

                     34                     35                     36
                      A                      A                      A
 Frequencies --   1425.5959              1472.4003              1482.3397
 Red. masses --      1.4692                 1.0426                 1.0398
 Frc consts  --      1.7593                 1.3318                 1.3462
 IR Inten    --     67.9851                 4.8676                 4.1959

                     37                     38                     39
                      A                      A                      A
 Frequencies --   1490.5585              1500.1372              1527.2159
 Red. masses --      1.1383                 1.0481                 1.1006
 Frc consts  --      1.4901                 1.3897                 1.5124
 IR Inten    --      5.8333                 2.2509                10.0824

                     40                     41                     42
                      A                      A                      A
 Frequencies --   1587.0686              1670.0686              2989.3363
 Red. masses --      5.2252                 6.6545                 1.0551
 Frc consts  --      7.7543                10.9353                 5.5550
 IR Inten    --      6.4575               139.1353                37.7018

                     43                     44                     45
                      A                      A                      A
 Frequencies --   3024.0600              3029.7117              3046.9116
 Red. masses --      1.1069                 1.0382                 1.0347
 Frc consts  --      5.9641                 5.6146                 5.6597
 IR Inten    --     37.4317                34.9620                16.8417

                     46                     47                     48
                      A                      A                      A
 Frequencies --   3079.4356              3121.7547              3125.2071
 Red. masses --      1.1002                 1.1014                 1.1030
 Frc consts  --      6.1470                 6.3242                 6.3471
 IR Inten    --     15.4108                21.6723                25.0563

                     49                     50                     51
                      A                      A                      A
 Frequencies --   3128.8969              3264.8205              3295.7974
 Red. masses --      1.0982                 1.0965                 1.0981
 Frc consts  --      6.3347                 6.8864                 7.0275
 IR Inten    --     10.7389                 1.0399                 0.7768

 - Thermochemistry -
 -------------------
 Temperature   298.150 Kelvin.  Pressure   1.00000 Atm.
 Atom     1 has atomic number  6 and mass  12.00000

 Molecular mass:   126.06808 amu.
 Principal axes and moments of inertia in atomic units:
                           1         2         3
     Eigenvalues --   367.955512192.993012527.07380
           X            0.99998   0.00684   0.00000
           Y           -0.00684   0.99998   0.00000
           Z            0.00000   0.00000   1.00000
 This molecule is an asymmetric top.
 Rotational symmetry number  1.
 Rotational temperatures (Kelvin)      0.23539     0.03950     0.03427
 Rotational constants (GHZ):           4.90478     0.82296     0.71416
 Zero-point vibrational energy     414651.8 (Joules/Mol)
                                   99.10417 (Kcal/Mol)
 Warning -- explicit consideration of  11 degrees of freedom as
           vibrations may cause significant error
 Vibrational temperatures:     75.05   112.00   156.23   198.49   287.81
          (Kelvin)            346.19   433.83   512.64   514.77   685.82
                              893.10   893.65   935.82  1004.41  1072.56
                             1124.85  1191.70  1318.74  1360.38  1439.45
                             1472.58  1528.84  1559.16  1641.95  1665.91
                             1704.93  1706.21  1789.22  1867.46  1920.95
                             2014.10  2032.66  2037.40  2051.11  2118.45
                             2132.75  2144.58  2158.36  2197.32  2283.43
                             2402.85  4300.98  4350.94  4359.07  4383.82
                             4430.62  4491.50  4496.47  4501.78  4697.34
                             4741.91

 Zero-point correction=                           0.157933 (Hartree/Particle)
 Thermal correction to Energy=                    0.167372
 Thermal correction to Enthalpy=                  0.168316
 Thermal correction to Gibbs Free Energy=         0.122799
 Sum of electronic and zero-point Energies=           -423.053932
 Sum of electronic and thermal Energies=              -423.044492
 Sum of electronic and thermal Enthalpies=            -423.043548
 Sum of electronic and thermal Free Energies=         -423.089065

                     E (Thermal)             CV                S
                      KCal/Mol        Cal/Mol-Kelvin    Cal/Mol-Kelvin
 Total                  105.028             33.747             95.799
 Electronic               0.000              0.000              0.000
 Translational            0.889              2.981             40.409
 Rotational               0.889              2.981             29.102
 Vibrational            103.250             27.785             26.289
 Vibration     1          0.596              1.977              4.734
 Vibration     2          0.599              1.964              3.945
 Vibration     3          0.606              1.942              3.294
 Vibration     4          0.614              1.915              2.832
 Vibration     5          0.638              1.840              2.133
 Vibration     6          0.658              1.778              1.798
 Vibration     7          0.694              1.671              1.408
 Vibration     8          0.732              1.562              1.138
 Vibration     9          0.733              1.559              1.132
 Vibration    10          0.833              1.302              0.719
 Vibration    11          0.981              0.988              0.415

 Optimization completed.
    -- Stationary point found.
 Normal termination of Gaussian 09 at Mon Jan 27 11:44:36 2020.
