 Gaussian 09, Revision D.01,
 Gaussian 09:  ES64L-G09RevD.01 24-Apr-2013

 -----------------------------
 # b3lyp 6-31G(2df,p) opt Freq
 -----------------------------

 -----
 titel
 -----
 Symbolic Z-matrix:
 Charge =  0 Multiplicity = 1

 SCF Done:  E(RB3LYP) =  -423.128158838     A.U. after   14 cycles
 SCF Done:  E(RB3LYP) =  -423.128158006     A.U. after    8 cycles
 SCF Done:  E(RB3LYP) =  -423.128159325     A.U. after    7 cycles
 SCF Done:  E(RB3LYP) =  -423.128159370     A.U. after    7 cycles
 SCF Done:  E(RB3LYP) =  -423.128159344     A.U. after    7 cycles
 SCF Done:  E(RB3LYP) =  -423.128159440     A.U. after    6 cycles
 SCF Done:  E(RB3LYP) =  -423.128159526     A.U. after    7 cycles
 SCF Done:  E(RB3LYP) =  -423.128159541     A.U. after    9 cycles
 SCF Done:  E(RB3LYP) =  -423.128159552     A.U. after    6 cycles
 SCF Done:  E(RB3LYP) =  -423.128159548     A.U. after    7 cycles
 SCF Done:  E(RB3LYP) =  -423.128159548     A.U. after    7 cycles
 SCF Done:  E(RB3LYP) =  -423.128159576     A.U. after    7 cycles
 SCF Done:  E(RB3LYP) =  -423.128159575     A.U. after    6 cycles
 Optimization completed.
    -- Stationary point found.
 Normal termination of Gaussian 09 at Mon Jan 27 14:43:30 2020.

 ----------------------------------------------------------------------
 #N Geom=AllCheck Guess=TCheck SCRF=Check GenChk RB3LYP/6-31G(2df,p) Fr
 eq
 ----------------------------------------------------------------------

 Structure from the checkpoint file:  "/scratch/puck/g09_79d87f86-fa1a-4a66-b70c-499f4d811ff3/Gau-39821.chk"
 -----
 titel
 -----
 Charge =  0 Multiplicity = 1

                         Standard orientation:
 ---------------------------------------------------------------------
 Center     Atomic      Atomic             Coordinates (Angstroms)
 Number     Number       Type             X           Y           Z
 ---------------------------------------------------------------------
      1          6           0       -3.828246   -0.746733    0.112483
      2          6           0       -2.481579   -0.221379   -0.058555
      3          6           0       -1.370425    0.215725   -0.220507
      4          6           0       -0.015898    0.758216   -0.351929
      5          8           0        0.038940    2.154128   -0.061178
      6          6           0        0.981417   -0.021369    0.512908
      7          6           0        2.463400    0.290317    0.223248
      8          8           0        2.669525   -1.017970   -0.353026
      9          6           0        1.338075   -1.436576    0.010792
     10          1           0       -4.573148    0.055091    0.065831
     11          1           0       -4.071458   -1.469900   -0.673539
     12          1           0       -3.942347   -1.252592    1.077362
     13          1           0        0.307363    0.680829   -1.398511
     14          1           0       -0.439697    2.294216    0.763406
     15          1           0        0.681032    0.041123    1.561833
     16          1           0        2.648386    1.098324   -0.493890
     17          1           0        3.089657    0.449617    1.110077
     18          1           0        0.764326   -1.798203   -0.851714
     19          1           0        1.347702   -2.216972    0.782153
 ---------------------------------------------------------------------

 SCF Done:  E(RB3LYP) =  -423.128159575     A.U. after    1 cycles

 The electronic state is 1-A.
 Alpha  occ. eigenvalues --  -19.14376 -19.12764 -10.25718 -10.22866 -10.22584
 Alpha  occ. eigenvalues --  -10.21153 -10.19522 -10.18656 -10.17497  -1.03450
 Alpha  occ. eigenvalues --   -1.02478  -0.79535  -0.77146  -0.71355  -0.68771
 Alpha  occ. eigenvalues --   -0.65860  -0.56086  -0.53679  -0.50388  -0.48998
 Alpha  occ. eigenvalues --   -0.46293  -0.43993  -0.43531  -0.43341  -0.42917
 Alpha  occ. eigenvalues --   -0.40216  -0.39475  -0.35990  -0.32537  -0.30809
 Alpha  occ. eigenvalues --   -0.28446  -0.26275  -0.25721  -0.24321
 Alpha virt. eigenvalues --    0.03150   0.04822   0.08071   0.09676   0.10405
 Alpha virt. eigenvalues --    0.11530   0.12027   0.14445   0.15923   0.16983
 Alpha virt. eigenvalues --    0.17655   0.17942   0.18588   0.20364   0.20884

 Mulliken charges:
               1
     1  C   -0.500041
     2  C    0.086685
     3  C    0.032104
     4  C   -0.069378
     5  O   -0.421602
     6  C   -0.029912
     7  C   -0.090707
     8  O   -0.274288
     9  C   -0.083255
    10  H    0.153900
    11  H    0.154562
    12  H    0.149982
    13  H    0.119381
    14  H    0.282530
    15  H    0.075610
    16  H    0.114182
    17  H    0.095503
    18  H    0.105876
    19  H    0.098867
 Sum of Mulliken charges =   0.00000

 Dipole moment (field-independent basis, Debye):
    X=             -2.6902    Y=             -0.3617    Z=              1.7601  Tot=              3.2351
 Quadrupole moment (field-independent basis, Debye-Ang):
   XX=            -51.3300   YY=            -55.2707   ZZ=            -51.3357
   XY=              4.4927   XZ=              0.9912   YZ=              1.7875

  Exact polarizability: 106.424  11.726  73.493  -1.395   0.309  60.773
 Approx polarizability: 142.605  21.095 106.638  -7.198   0.046  92.880

                      1                      2                      3
                      A                      A                      A
 Frequencies --     31.1410                62.3198                64.2253
 Red. masses --      1.0218                 4.0345                 3.9174
 Frc consts  --      0.0006                 0.0092                 0.0095
 IR Inten    --      0.0302                 1.4733                 2.7117

                      4                      5                      6
                      A                      A                      A
 Frequencies --     93.9464               147.5054               203.6459
 Red. masses --      3.0514                 3.9186                 3.5904
 Frc consts  --      0.0159                 0.0502                 0.0877
 IR Inten    --      1.6237                 0.3993                 1.6796

                      7                      8                      9
                      A                      A                      A
 Frequencies --    273.8834               304.9224               319.3788
 Red. masses --      1.2436                 2.7032                 3.1604
 Frc consts  --      0.0550                 0.1481                 0.1899
 IR Inten    --     63.9954                38.2294                 5.3728

                     10                     11                     12
                      A                      A                      A
 Frequencies --    364.4964               431.1240               485.7080
 Red. masses --      2.9654                 4.5648                 4.9255
 Frc consts  --      0.2321                 0.4999                 0.6846
 IR Inten    --     15.6642                 7.7315                 4.7212

                     13                     14                     15
                      A                      A                      A
 Frequencies --    570.9040               776.5527               837.1232
 Red. masses --      5.7480                 3.2068                 4.0888
 Frc consts  --      1.1038                 1.1394                 1.6882
 IR Inten    --      3.5014                15.9683                12.7630

                     16                     17                     18
                      A                      A                      A
 Frequencies --    873.1202               888.9483               956.1380
 Red. masses --      1.9848                 1.5878                 3.4610
 Frc consts  --      0.8915                 0.7393                 1.8642
 IR Inten    --      5.9869                 1.9571                25.7632

                     19                     20                     21
                      A                      A                      A
 Frequencies --   1023.1236              1040.1087              1051.7794
 Red. masses --      4.3039                 8.3599                 1.4202
 Frc consts  --      2.6544                 5.3285                 0.9257
 IR Inten    --     28.4896               147.3069                 0.1712

                     22                     23                     24
                      A                      A                      A
 Frequencies --   1054.5637              1058.3169              1082.2461
 Red. masses --      1.4246                 2.5688                 3.0075
 Frc consts  --      0.9335                 1.6952                 2.0754
 IR Inten    --      2.7247                24.2284                 6.9216

                     25                     26                     27
                      A                      A                      A
 Frequencies --   1137.8684              1156.9316              1159.5001
 Red. masses --      2.0374                 1.1928                 1.2790
 Frc consts  --      1.5542                 0.9407                 1.0132
 IR Inten    --      8.6547                 1.7397                 2.0677

                     28                     29                     30
                      A                      A                      A
 Frequencies --   1179.6244              1247.0294              1263.6002
 Red. masses --      2.1761                 1.4021                 1.4381
 Frc consts  --      1.7841                 1.2847                 1.3528
 IR Inten    --     12.8298                 7.6692                11.4264

                     31                     32                     33
                      A                      A                      A
 Frequencies --   1296.0433              1308.1412              1370.7362
 Red. masses --      1.3691                 1.2849                 1.3578
 Frc consts  --      1.3550                 1.2955                 1.5032
 IR Inten    --     18.1232                 0.5363                 0.8427

                     34                     35                     36
                      A                      A                      A
 Frequencies --   1389.3863              1413.1277              1420.1010
 Red. masses --      1.4980                 1.2708                 1.2445
 Frc consts  --      1.7037                 1.4951                 1.4787
 IR Inten    --      5.0539                25.2288                55.4814

                     37                     38                     39
                      A                      A                      A
 Frequencies --   1476.3676              1478.2173              1514.4524
 Red. masses --      1.0394                 1.0397                 1.0794
 Frc consts  --      1.3348                 1.3385                 1.4586
 IR Inten    --      6.6436                 5.4645                 0.7218

                     40                     41                     42
                      A                      A                      A
 Frequencies --   1539.5548              2364.3770              3008.1597
 Red. masses --      1.1089                11.8683                 1.0537
 Frc consts  --      1.5485                39.0906                 5.6181
 IR Inten    --      1.2164                15.2572               109.8452

                     43                     44                     45
                      A                      A                      A
 Frequencies --   3018.2096              3025.3200              3029.5909
 Red. masses --      1.0618                 1.0810                 1.0348
 Frc consts  --      5.6989                 5.8291                 5.5958
 IR Inten    --     18.5866                13.3058                25.7648

                     46                     47                     48
                      A                      A                      A
 Frequencies --   3051.9879              3062.8221              3082.3627
 Red. masses --      1.1091                 1.1053                 1.0908
 Frc consts  --      6.0866                 6.1092                 6.1059
 IR Inten    --     33.9874                16.5964                54.6296

                     49                     50                     51
                      A                      A                      A
 Frequencies --   3091.3508              3092.5448              3806.1001
 Red. masses --      1.1004                 1.1000                 1.0661
 Frc consts  --      6.1960                 6.1986                 9.0995
 IR Inten    --      9.5666                 7.5978                21.9291

 - Thermochemistry -
 -------------------
 Temperature   298.150 Kelvin.  Pressure   1.00000 Atm.
 Atom     1 has atomic number  6 and mass  12.00000

 Molecular mass:   126.06808 amu.
 Principal axes and moments of inertia in atomic units:
                           1         2         3
     Eigenvalues --   599.007692082.336402556.18178
           X            0.99972   0.02363   0.00175
           Y           -0.02363   0.99972   0.00185
           Z           -0.00171  -0.00189   1.00000
 This molecule is an asymmetric top.
 Rotational symmetry number  1.
 Warning -- assumption of classical behavior for rotation
           may cause significant error
 Rotational temperatures (Kelvin)      0.14460     0.04159     0.03388
 Rotational constants (GHZ):           3.01288     0.86669     0.70603
 Zero-point vibrational energy     412584.4 (Joules/Mol)
                                   98.61004 (Kcal/Mol)
 Warning -- explicit consideration of  13 degrees of freedom as
           vibrations may cause significant error
 Vibrational temperatures:     44.80    89.66    92.41   135.17   212.23
          (Kelvin)            293.00   394.06   438.71   459.51   524.43
                              620.29   698.82   821.40  1117.28  1204.43
                             1256.22  1279.00  1375.67  1472.04  1496.48
                             1513.27  1517.28  1522.68  1557.11  1637.14
                             1664.56  1668.26  1697.21  1794.19  1818.04
                             1864.71  1882.12  1972.18  1999.01  2033.17
                             2043.21  2124.16  2126.82  2178.96  2215.07
                             3401.81  4328.07  4342.53  4352.76  4358.90
                             4391.12  4406.71  4434.83  4447.76  4449.48
                             5476.12

 Zero-point correction=                           0.157145 (Hartree/Particle)
 Thermal correction to Energy=                    0.167391
 Thermal correction to Enthalpy=                  0.168335
 Thermal correction to Gibbs Free Energy=         0.119901
 Sum of electronic and zero-point Energies=           -422.971014
 Sum of electronic and thermal Energies=              -422.960769
 Sum of electronic and thermal Enthalpies=            -422.959824
 Sum of electronic and thermal Free Energies=         -423.008258

                     E (Thermal)             CV                S
                      KCal/Mol        Cal/Mol-Kelvin    Cal/Mol-Kelvin
 Total                  105.039             34.939            101.937
 Electronic               0.000              0.000              0.000
 Translational            0.889              2.981             40.409
 Rotational               0.889              2.981             29.546
 Vibrational            103.262             28.977             31.983
 Vibration     1          0.594              1.983              5.755
 Vibration     2          0.597              1.972              4.382
 Vibration     3          0.597              1.971              4.323
 Vibration     4          0.603              1.954              3.576
 Vibration     5          0.617              1.905              2.704
 Vibration     6          0.639              1.835              2.100
 Vibration     7          0.676              1.722              1.572
 Vibration     8          0.696              1.664              1.390
 Vibration     9          0.705              1.637              1.313
 Vibration    10          0.738              1.545              1.103
 Vibration    11          0.792              1.402              0.855
 Vibration    12          0.842              1.282              0.695
 Vibration    13          0.927              1.094              0.503

 Optimization completed.
    -- Stationary point found.
 Normal termination of Gaussian 09 at Mon Jan 27 15:18:50 2020.
