 Gaussian 09, Revision D.01,
 Gaussian 09:  ES64L-G09RevD.01 24-Apr-2013

 -----------------------------
 # b3lyp 6-31G(2df,p) opt Freq
 -----------------------------

 -----
 titel
 -----
 Symbolic Z-matrix:
 Charge =  0 Multiplicity = 1

 SCF Done:  E(RB3LYP) =  -423.161251168     A.U. after   14 cycles
 Optimization completed.
    -- Stationary point found.
 Normal termination of Gaussian 09 at Mon Jan 27 16:10:35 2020.

 ----------------------------------------------------------------------
 #N Geom=AllCheck Guess=TCheck SCRF=Check GenChk RB3LYP/6-31G(2df,p) Fr
 eq
 ----------------------------------------------------------------------

 Structure from the checkpoint file:  "/scratch/puck/g09_5d882d47-9550-4ac4-b5bc-cda8833bf9c9/Gau-176491.chk"
 -----
 titel
 -----
 Charge =  0 Multiplicity = 1

                         Standard orientation:
 ---------------------------------------------------------------------
 Center     Atomic      Atomic             Coordinates (Angstroms)
 Number     Number       Type             X           Y           Z
 ---------------------------------------------------------------------
      1          6           0        1.483094    1.124416   -0.978467
      2          6           0        1.269177   -0.044990   -0.044045
      3          8           0        2.458637   -0.737722    0.255551
      4          6           0        0.235217   -0.054412    1.067188
      5          6           0       -0.905251    0.965890    1.052011
      6          6           0       -1.726099    0.599467   -0.181115
      7          8           0       -2.325280   -0.696213   -0.108576
      8          6           0       -1.121207   -0.545999   -0.879466
      9          6           0        0.099929   -0.989348   -0.133385
     10          1           0        2.008901    0.787618   -1.877254
     11          1           0        0.545963    1.593399   -1.284340
     12          1           0        2.100168    1.894251   -0.497866
     13          1           0        3.008993   -0.156157    0.792333
     14          1           0        0.563935   -0.460689    2.016517
     15          1           0       -1.518770    0.887590    1.955620
     16          1           0       -0.551277    2.001954    0.988602
     17          1           0       -2.315356    1.354399   -0.696822
     18          1           0       -1.233562   -0.713064   -1.948156
     19          1           0        0.314988   -2.047964   -0.040765
 ---------------------------------------------------------------------

 SCF Done:  E(RB3LYP) =  -423.161251168     A.U. after    1 cycles

 The electronic state is 1-A.
 Alpha  occ. eigenvalues --  -19.14474 -19.14195 -10.24356 -10.23463 -10.23417
 Alpha  occ. eigenvalues --  -10.19041 -10.18877 -10.18755 -10.18261  -1.06785
 Alpha  occ. eigenvalues --   -1.02879  -0.86355  -0.74307  -0.72042  -0.67591
 Alpha  occ. eigenvalues --   -0.60705  -0.56974  -0.55057  -0.52023  -0.50509
 Alpha  occ. eigenvalues --   -0.45356  -0.44080  -0.43003  -0.41611  -0.40223
 Alpha  occ. eigenvalues --   -0.39304  -0.37404  -0.37172  -0.35328  -0.31606
 Alpha  occ. eigenvalues --   -0.30277  -0.27084  -0.26289  -0.24667
 Alpha virt. eigenvalues --    0.07482   0.09085   0.09700   0.10573   0.12627
 Alpha virt. eigenvalues --    0.13396   0.13717   0.15076   0.16071   0.17495
 Alpha virt. eigenvalues --    0.17811   0.18325   0.19227   0.20650   0.22532

 Mulliken charges:
               1
     1  C   -0.463197
     2  C    0.387087
     3  O   -0.466697
     4  C   -0.113158
     5  C   -0.276243
     6  C    0.057090
     7  O   -0.257931
     8  C    0.004501
     9  C   -0.108650
    10  H    0.129733
    11  H    0.124928
    12  H    0.108039
    13  H    0.279342
    14  H    0.088301
    15  H    0.116156
    16  H    0.099218
    17  H    0.092777
    18  H    0.096184
    19  H    0.102520
 Sum of Mulliken charges =   0.00000

 Dipole moment (field-independent basis, Debye):
    X=              1.3137    Y=              2.2980    Z=              0.1019  Tot=              2.6490
 Quadrupole moment (field-independent basis, Debye-Ang):
   XX=            -56.6393   YY=            -53.3907   ZZ=            -50.1007
   XY=             -0.0288   XZ=              3.0375   YZ=              0.6869

  Exact polarizability:  81.575  -1.266  70.210   0.178   2.509  69.797
 Approx polarizability: 113.812  -0.325 109.339  -1.393   6.515 104.456

                      1                      2                      3
                      A                      A                      A
 Frequencies --    159.2815               188.0644               200.2855
 Red. masses --      3.2566                 2.0016                 1.3901
 Frc consts  --      0.0487                 0.0417                 0.0329
 IR Inten    --      0.3803                 1.0727                 2.6122

                      4                      5                      6
                      A                      A                      A
 Frequencies --    253.3101               312.7127               319.2832
 Red. masses --      1.5767                 1.8666                 2.3021
 Frc consts  --      0.0596                 0.1075                 0.1383
 IR Inten    --     35.1875                32.5510                24.0303

                      7                      8                      9
                      A                      A                      A
 Frequencies --    382.9643               429.2946               452.5713
 Red. masses --      4.4944                 3.7449                 2.9525
 Frc consts  --      0.3884                 0.4066                 0.3563
 IR Inten    --      8.7422                 9.7292                 4.1904

                     10                     11                     12
                      A                      A                      A
 Frequencies --    499.4296               668.5429               725.0559
 Red. masses --      2.8470                 4.1033                 3.6156
 Frc consts  --      0.4184                 1.0805                 1.1199
 IR Inten    --     11.1623                 0.8772                 7.2066

                     13                     14                     15
                      A                      A                      A
 Frequencies --    740.6664               826.4275               854.8569
 Red. masses --      4.7622                 3.6025                 2.7654
 Frc consts  --      1.5392                 1.4497                 1.1907
 IR Inten    --      1.7497                 5.1489                22.2982

                     16                     17                     18
                      A                      A                      A
 Frequencies --    867.1507               885.9895               933.5431
 Red. masses --      2.3761                 2.0337                 2.9794
 Frc consts  --      1.0527                 0.9406                 1.5298
 IR Inten    --     31.2614                 7.1553                 5.9082

                     19                     20                     21
                      A                      A                      A
 Frequencies --    965.9689               977.8810               997.2067
 Red. masses --      1.7620                 1.7021                 2.2157
 Frc consts  --      0.9687                 0.9590                 1.2982
 IR Inten    --      2.8760                 1.1689                12.6777

                     22                     23                     24
                      A                      A                      A
 Frequencies --   1023.7295              1041.8091              1064.2328
 Red. masses --      1.7254                 1.3531                 1.6049
 Frc consts  --      1.0654                 0.8653                 1.0710
 IR Inten    --     11.7361                 8.7266                 5.9597

                     25                     26                     27
                      A                      A                      A
 Frequencies --   1096.6397              1103.6095              1130.6876
 Red. masses --      1.5536                 1.7993                 1.5901
 Frc consts  --      1.1008                 1.2912                 1.1977
 IR Inten    --     11.6160                 2.9480                 4.0698

                     28                     29                     30
                      A                      A                      A
 Frequencies --   1180.6522              1214.2321              1259.7015
 Red. masses --      2.0132                 1.2696                 1.3722
 Frc consts  --      1.6534                 1.1029                 1.2829
 IR Inten    --     68.9902                 6.2035                 2.8412

                     31                     32                     33
                      A                      A                      A
 Frequencies --   1272.9487              1287.7603              1300.7471
 Red. masses --      1.5229                 2.0841                 1.5617
 Frc consts  --      1.4539                 2.0363                 1.5568
 IR Inten    --     12.0997                 3.0051                17.2323

                     34                     35                     36
                      A                      A                      A
 Frequencies --   1331.8180              1349.1001              1414.1448
 Red. masses --      1.4938                 1.7061                 1.3314
 Frc consts  --      1.5611                 1.8296                 1.5687
 IR Inten    --     21.7070                22.4049                 8.3267

                     37                     38                     39
                      A                      A                      A
 Frequencies --   1426.8527              1436.8454              1479.1687
 Red. masses --      3.2346                 2.6236                 1.0767
 Frc consts  --      3.8800                 3.1913                 1.3880
 IR Inten    --     29.2687                 0.6461                 3.3697

                     40                     41                     42
                      A                      A                      A
 Frequencies --   1491.3004              1503.1337              3025.5734
 Red. masses --      1.0665                 1.1558                 1.0431
 Frc consts  --      1.3974                 1.5386                 5.6260
 IR Inten    --      1.0731                 3.5988                24.4019

                     43                     44                     45
                      A                      A                      A
 Frequencies --   3033.4661              3075.1782              3090.7289
 Red. masses --      1.0612                 1.1010                 1.0947
 Frc consts  --      5.7533                 6.1344                 6.1613
 IR Inten    --     40.5962                18.7762                17.0290

                     46                     47                     48
                      A                      A                      A
 Frequencies --   3130.1626              3133.5454              3145.7682
 Red. masses --      1.0989                 1.0865                 1.0941
 Frc consts  --      6.3436                 6.2856                 6.3794
 IR Inten    --     20.6813                15.8069                39.8676

                     49                     50                     51
                      A                      A                      A
 Frequencies --   3175.1179              3183.3818              3789.4631
 Red. masses --      1.0886                 1.0923                 1.0660
 Frc consts  --      6.4659                 6.5221                 9.0189
 IR Inten    --      9.7236                 8.7310                14.6564

 - Thermochemistry -
 -------------------
 Temperature   298.150 Kelvin.  Pressure   1.00000 Atm.
 Atom     1 has atomic number  6 and mass  12.00000

 Molecular mass:   126.06808 amu.
 Principal axes and moments of inertia in atomic units:
                           1         2         3
     Eigenvalues --   534.564021382.002231425.33078
           X            0.99998   0.00125  -0.00620
           Y           -0.00191   0.99423  -0.10727
           Z            0.00603   0.10728   0.99421
 This molecule is an asymmetric top.
 Rotational symmetry number  1.
 Warning -- assumption of classical behavior for rotation
           may cause significant error
 Rotational temperatures (Kelvin)      0.16203     0.06267     0.06077
 Rotational constants (GHZ):           3.37610     1.30589     1.26619
 Zero-point vibrational energy     417688.0 (Joules/Mol)
                                   99.82984 (Kcal/Mol)
 Warning -- explicit consideration of  10 degrees of freedom as
           vibrations may cause significant error
 Vibrational temperatures:    229.17   270.58   288.17   364.46   449.92
          (Kelvin)            459.38   551.00   617.66   651.15   718.57
                              961.88  1043.19  1065.65  1189.04  1229.95
                             1247.63  1274.74  1343.16  1389.81  1406.95
                             1434.76  1472.92  1498.93  1531.19  1577.82
                             1587.85  1626.81  1698.69  1747.01  1812.43
                             1831.49  1852.80  1871.48  1916.19  1941.05
                             2034.64  2052.92  2067.30  2128.19  2145.65
                             2162.67  4353.12  4364.48  4424.49  4446.86
                             4503.60  4508.47  4526.05  4568.28  4580.17
                             5452.19

 Zero-point correction=                           0.159089 (Hartree/Particle)
 Thermal correction to Energy=                    0.167115
 Thermal correction to Enthalpy=                  0.168059
 Thermal correction to Gibbs Free Energy=         0.127095
 Sum of electronic and zero-point Energies=           -423.002162
 Sum of electronic and thermal Energies=              -422.994136
 Sum of electronic and thermal Enthalpies=            -422.993192
 Sum of electronic and thermal Free Energies=         -423.034156

                     E (Thermal)             CV                S
                      KCal/Mol        Cal/Mol-Kelvin    Cal/Mol-Kelvin
 Total                  104.866             32.072             86.215
 Electronic               0.000              0.000              0.000
 Translational            0.889              2.981             40.409
 Rotational               0.889              2.981             28.445
 Vibrational            103.089             26.111             17.362
 Vibration     1          0.621              1.892              2.558
 Vibration     2          0.633              1.856              2.247
 Vibration     3          0.638              1.839              2.130
 Vibration     4          0.664              1.757              1.707
 Vibration     5          0.701              1.649              1.348
 Vibration     6          0.705              1.637              1.314
 Vibration     7          0.752              1.507              1.027
 Vibration     8          0.791              1.406              0.861
 Vibration     9          0.811              1.355              0.788
 Vibration    10          0.855              1.251              0.660

 Optimization completed.
    -- Stationary point found.
 Normal termination of Gaussian 09 at Mon Jan 27 16:59:18 2020.
