 Gaussian 09, Revision D.01,
 Gaussian 09:  ES64L-G09RevD.01 24-Apr-2013

 -----------------------------
 # b3lyp 6-31G(2df,p) opt Freq
 -----------------------------

 -----
 titel
 -----
 Symbolic Z-matrix:
 Charge =  0 Multiplicity = 1

 SCF Done:  E(RB3LYP) =  -423.155350033     A.U. after   12 cycles
 Optimization completed.
    -- Stationary point found.
 Normal termination of Gaussian 09 at Mon Jan 27 17:29:14 2020.

 ----------------------------------------------------------------------
 #N Geom=AllCheck Guess=TCheck SCRF=Check GenChk RB3LYP/6-31G(2df,p) Fr
 eq
 ----------------------------------------------------------------------

 Structure from the checkpoint file:  "/scratch/puck/g09_d205c3fd-9958-40c3-a8c9-e738c7c87b4d/Gau-147346.chk"
 -----
 titel
 -----
 Charge =  0 Multiplicity = 1

                         Standard orientation:
 ---------------------------------------------------------------------
 Center     Atomic      Atomic             Coordinates (Angstroms)
 Number     Number       Type             X           Y           Z
 ---------------------------------------------------------------------
      1          8           0        2.450318   -0.081885    0.904046
      2          6           0        1.361417   -0.011536    0.039633
      3          6           0        1.099180   -1.088935   -0.978505
      4          6           0        0.175895   -0.920452    0.217594
      5          6           0       -1.025840   -0.050474    0.005354
      6          6           0       -2.116416    0.087068    1.034556
      7          6           0       -2.402640   -0.509308   -0.337254
      8          8           0       -0.575151    1.113840   -0.665119
      9          6           0        0.767290    1.360697   -0.256337
     10          1           0        3.251423    0.059352    0.388203
     11          1           0        0.735133   -0.813284   -1.963275
     12          1           0        1.763228   -1.945704   -0.945204
     13          1           0        0.167013   -1.675908    0.992942
     14          1           0       -2.111262   -0.571531    1.897072
     15          1           0       -2.485525    1.088581    1.224607
     16          1           0       -2.586758   -1.575453   -0.413164
     17          1           0       -2.961718    0.101233   -1.037533
     18          1           0        1.258879    1.908864   -1.067584
     19          1           0        0.814931    1.965852    0.662272
 ---------------------------------------------------------------------

 SCF Done:  E(RB3LYP) =  -423.155350033     A.U. after    1 cycles

 The electronic state is 1-A.
 Alpha  occ. eigenvalues --  -19.14976 -19.14082 -10.23977 -10.23702 -10.22556
 Alpha  occ. eigenvalues --  -10.19117 -10.18527 -10.17982 -10.17866  -1.04756
 Alpha  occ. eigenvalues --   -1.02931  -0.85326  -0.84275  -0.69769  -0.63728
 Alpha  occ. eigenvalues --   -0.59996  -0.58512  -0.55712  -0.52415  -0.48837
 Alpha  occ. eigenvalues --   -0.47941  -0.45239  -0.43607  -0.42138  -0.39900
 Alpha  occ. eigenvalues --   -0.38767  -0.36448  -0.36018  -0.33371  -0.31614
 Alpha  occ. eigenvalues --   -0.30023  -0.26789  -0.25977  -0.23031
 Alpha virt. eigenvalues --    0.07040   0.09083   0.11229   0.12415   0.12675
 Alpha virt. eigenvalues --    0.13576   0.13821   0.15442   0.16697   0.17807
 Alpha virt. eigenvalues --    0.18696   0.19917   0.20533   0.22595   0.22996

 Mulliken charges:
               1
     1  O   -0.467181
     2  C    0.372404
     3  C   -0.362304
     4  C   -0.183208
     5  C    0.474266
     6  C   -0.337215
     7  C   -0.335746
     8  O   -0.296905
     9  C   -0.156605
    10  H    0.286441
    11  H    0.122727
    12  H    0.112339
    13  H    0.101048
    14  H    0.111189
    15  H    0.120557
    16  H    0.115119
    17  H    0.123331
    18  H    0.098847
    19  H    0.100896
 Sum of Mulliken charges =   0.00000

 Dipole moment (field-independent basis, Debye):
    X=              1.1573    Y=             -0.5701    Z=             -0.4530  Tot=              1.3673
 Quadrupole moment (field-independent basis, Debye-Ang):
   XX=            -48.2434   YY=            -52.1043   ZZ=            -54.9798
   XY=              1.7726   XZ=             -3.8710   YZ=              0.3785

  Exact polarizability:  87.998   2.813  70.965  -3.232   1.930  68.318
 Approx polarizability: 115.044   4.898 103.094  -2.529   1.426 105.535

                      1                      2                      3
                      A                      A                      A
 Frequencies --    112.7474               192.2076               241.8328
 Red. masses --      3.9239                 2.5998                 2.8704
 Frc consts  --      0.0294                 0.0566                 0.0989
 IR Inten    --      2.2169                 3.8293                 4.9380

                      4                      5                      6
                      A                      A                      A
 Frequencies --    280.2832               317.3020               359.6840
 Red. masses --      1.1180                 2.2661                 2.8619
 Frc consts  --      0.0517                 0.1344                 0.2181
 IR Inten    --     75.0087                10.4136                 7.5324

                      7                      8                      9
                      A                      A                      A
 Frequencies --    387.3612               413.2648               484.4116
 Red. masses --      3.0822                 3.1419                 3.3236
 Frc consts  --      0.2725                 0.3162                 0.4595
 IR Inten    --      4.2551                11.3705                 1.0331

                     10                     11                     12
                      A                      A                      A
 Frequencies --    559.3364               601.2343               726.4958
 Red. masses --      2.9717                 4.3235                 2.8700
 Frc consts  --      0.5478                 0.9208                 0.8925
 IR Inten    --      0.9201                 1.5366                 4.1874

                     13                     14                     15
                      A                      A                      A
 Frequencies --    758.7177               767.7264               862.1642
 Red. masses --      2.5220                 1.1737                 1.6053
 Frc consts  --      0.8554                 0.4076                 0.7031
 IR Inten    --      5.0016                 0.9280                14.8163

                     16                     17                     18
                      A                      A                      A
 Frequencies --    886.9651               910.6291               931.5117
 Red. masses --      1.6900                 2.4456                 1.6157
 Frc consts  --      0.7833                 1.1948                 0.8260
 IR Inten    --      6.2656                18.7830                 1.8721

                     19                     20                     21
                      A                      A                      A
 Frequencies --    951.6243               955.8769              1006.8853
 Red. masses --      1.9959                 2.8365                 2.2533
 Frc consts  --      1.0649                 1.5270                 1.3460
 IR Inten    --      8.9885                 5.2216                 7.6437

                     22                     23                     24
                      A                      A                      A
 Frequencies --   1014.7968              1046.5622              1064.3250
 Red. masses --      1.8216                 1.5469                 2.5297
 Frc consts  --      1.1053                 0.9983                 1.6884
 IR Inten    --      7.7683                 1.2620                86.8737

                     25                     26                     27
                      A                      A                      A
 Frequencies --   1067.2245              1073.4505              1079.1588
 Red. masses --      1.3914                 1.5172                 2.9199
 Frc consts  --      0.9337                 1.0301                 2.0035
 IR Inten    --      2.3178                 7.7298                24.2378

                     28                     29                     30
                      A                      A                      A
 Frequencies --   1085.8709              1188.5899              1204.2808
 Red. masses --      1.8751                 1.2675                 1.2879
 Frc consts  --      1.3027                 1.0550                 1.1005
 IR Inten    --      8.1715                 0.0240                61.2294

                     31                     32                     33
                      A                      A                      A
 Frequencies --   1228.5082              1248.8644              1300.5100
 Red. masses --      2.2667                 1.4043                 2.1867
 Frc consts  --      2.0156                 1.2904                 2.1790
 IR Inten    --     50.3784                 4.2080                30.4561

                     34                     35                     36
                      A                      A                      A
 Frequencies --   1304.2969              1343.7265              1397.9942
 Red. masses --      2.8655                 1.5654                 1.8081
 Frc consts  --      2.8721                 1.6654                 2.0821
 IR Inten    --     38.1087                 7.4469                 4.4804

                     37                     38                     39
                      A                      A                      A
 Frequencies --   1418.3688              1449.5955              1477.9773
 Red. masses --      1.5566                 1.0912                 1.6152
 Frc consts  --      1.8451                 1.3510                 2.0788
 IR Inten    --     17.0825                 1.5044                 9.8370

                     40                     41                     42
                      A                      A                      A
 Frequencies --   1502.2657              1516.9772              2987.8707
 Red. masses --      1.7600                 1.1455                 1.0659
 Frc consts  --      2.3402                 1.5531                 5.6066
 IR Inten    --     27.4918                 0.1736                66.4127

                     43                     44                     45
                      A                      A                      A
 Frequencies --   3064.2249              3127.0775              3129.1172
 Red. masses --      1.0972                 1.0533                 1.0524
 Frc consts  --      6.0698                 6.0687                 6.0711
 IR Inten    --     40.3163                 8.8896                13.6793

                     46                     47                     48
                      A                      A                      A
 Frequencies --   3134.9819              3197.9318              3215.4896
 Red. masses --      1.0562                 1.0932                 1.1183
 Frc consts  --      6.1162                 6.5871                 6.8122
 IR Inten    --      7.8239                 1.9610                 0.2745

                     49                     50                     51
                      A                      A                      A
 Frequencies --   3222.3910              3229.5967              3800.4083
 Red. masses --      1.1162                 1.1156                 1.0662
 Frc consts  --      6.8287                 6.8556                 9.0733
 IR Inten    --      5.6312                11.3366                22.5417

 - Thermochemistry -
 -------------------
 Temperature   298.150 Kelvin.  Pressure   1.00000 Atm.
 Atom     1 has atomic number  8 and mass  15.99491

 Molecular mass:   126.06808 amu.
 Principal axes and moments of inertia in atomic units:
                           1         2         3
     Eigenvalues --   534.635201375.179551474.75422
           X            0.99975   0.01066  -0.01969
           Y           -0.00937   0.99788   0.06445
           Z            0.02034  -0.06425   0.99773
 This molecule is an asymmetric top.
 Rotational symmetry number  1.
 Warning -- assumption of classical behavior for rotation
           may cause significant error
 Rotational temperatures (Kelvin)      0.16201     0.06298     0.05873
 Rotational constants (GHZ):           3.37565     1.31237     1.22376
 Zero-point vibrational energy     417680.3 (Joules/Mol)
                                   99.82799 (Kcal/Mol)
 Warning -- explicit consideration of  11 degrees of freedom as
           vibrations may cause significant error
 Vibrational temperatures:    162.22   276.54   347.94   403.26   456.53
          (Kelvin)            517.50   557.33   594.60   696.96   804.76
                              865.04  1045.26  1091.62  1104.59  1240.46
                             1276.14  1310.19  1340.24  1369.17  1375.29
                             1448.68  1460.06  1505.77  1531.32  1535.50
                             1544.45  1552.67  1562.32  1710.11  1732.69
                             1767.55  1796.84  1871.14  1876.59  1933.32
                             2011.40  2040.71  2085.64  2126.48  2161.42
                             2182.59  4298.87  4408.73  4499.16  4502.10
                             4510.53  4601.10  4626.37  4636.30  4646.66
                             5467.93

 Zero-point correction=                           0.159086 (Hartree/Particle)
 Thermal correction to Energy=                    0.167051
 Thermal correction to Enthalpy=                  0.167995
 Thermal correction to Gibbs Free Energy=         0.127066
 Sum of electronic and zero-point Energies=           -422.996264
 Sum of electronic and thermal Energies=              -422.988300
 Sum of electronic and thermal Enthalpies=            -422.987355
 Sum of electronic and thermal Free Energies=         -423.028284

                     E (Thermal)             CV                S
                      KCal/Mol        Cal/Mol-Kelvin    Cal/Mol-Kelvin
 Total                  104.826             32.184             86.142
 Electronic               0.000              0.000              0.000
 Translational            0.889              2.981             40.409
 Rotational               0.889              2.981             28.474
 Vibrational            103.048             26.222             17.259
 Vibration     1          0.607              1.939              3.221
 Vibration     2          0.634              1.851              2.206
 Vibration     3          0.658              1.776              1.789
 Vibration     4          0.680              1.710              1.532
 Vibration     5          0.704              1.641              1.324
 Vibration     6          0.734              1.555              1.123
 Vibration     7          0.756              1.497              1.010
 Vibration     8          0.777              1.441              0.915
 Vibration     9          0.841              1.285              0.698
 Vibration    10          0.915              1.119              0.525
 Vibration    11          0.959              1.029              0.448

 Optimization completed.
    -- Stationary point found.
 Normal termination of Gaussian 09 at Mon Jan 27 18:12:42 2020.
