 Gaussian 09, Revision D.01,
 Gaussian 09:  ES64L-G09RevD.01 24-Apr-2013

 -----------------------------
 # b3lyp 6-31G(2df,p) opt Freq
 -----------------------------

 -----
 titel
 -----
 Symbolic Z-matrix:
 Charge =  0 Multiplicity = 1

 SCF Done:  E(RB3LYP) =  -423.165013954     A.U. after   14 cycles
 Optimization completed.
    -- Stationary point found.
 Normal termination of Gaussian 09 at Mon Jan 27 14:10:09 2020.

 ----------------------------------------------------------------------
 #N Geom=AllCheck Guess=TCheck SCRF=Check GenChk RB3LYP/6-31G(2df,p) Fr
 eq
 ----------------------------------------------------------------------

 Structure from the checkpoint file:  "/scratch/puck/g09_253c4e94-2bda-4988-968e-eb2dcc88204d/Gau-31501.chk"
 -----
 titel
 -----
 Charge =  0 Multiplicity = 1

                         Standard orientation:
 ---------------------------------------------------------------------
 Center     Atomic      Atomic             Coordinates (Angstroms)
 Number     Number       Type             X           Y           Z
 ---------------------------------------------------------------------
      1          6           0       -2.235079   -1.216470   -0.445504
      2          6           0       -1.535740    0.043499    0.028330
      3          8           0       -1.969033    0.718066    0.933267
      4          6           0       -0.244966    0.401519   -0.694455
      5          6           0        0.360604    1.780477   -0.373346
      6          8           0        1.539345    1.184311    0.221654
      7          6           0        1.044230   -0.123999   -0.031430
      8          6           0        1.267213   -1.243250    0.931043
      9          6           0        1.945681   -1.242095   -0.434663
     10          1           0       -2.634567   -1.054297   -1.454116
     11          1           0       -1.532413   -2.054074   -0.517990
     12          1           0       -3.052476   -1.469639    0.230449
     13          1           0       -0.313579    0.152587   -1.756541
     14          1           0        0.613219    2.400286   -1.239605
     15          1           0       -0.218698    2.352965    0.355869
     16          1           0        1.882277   -1.016590    1.795190
     17          1           0        0.471462   -1.956359    1.119790
     18          1           0        3.007979   -1.024695   -0.466646
     19          1           0        1.602627   -1.947293   -1.185613
 ---------------------------------------------------------------------

 SCF Done:  E(RB3LYP) =  -423.165013954     A.U. after    1 cycles

 The electronic state is 1-A.
 Alpha  occ. eigenvalues --  -19.13734 -19.13521 -10.27627 -10.25188 -10.23198
 Alpha  occ. eigenvalues --  -10.20473 -10.19662 -10.19017 -10.18986  -1.05177
 Alpha  occ. eigenvalues --   -1.04129  -0.85295  -0.78070  -0.73512  -0.64858
 Alpha  occ. eigenvalues --   -0.61302  -0.57384  -0.52117  -0.50512  -0.49836
 Alpha  occ. eigenvalues --   -0.48522  -0.44574  -0.43334  -0.42543  -0.42205
 Alpha  occ. eigenvalues --   -0.38980  -0.38452  -0.37353  -0.35674  -0.34458
 Alpha  occ. eigenvalues --   -0.31701  -0.29261  -0.25148  -0.23172
 Alpha virt. eigenvalues --   -0.02087   0.06993   0.07641   0.09657   0.11246
 Alpha virt. eigenvalues --    0.13144   0.13794   0.14788   0.15236   0.16702
 Alpha virt. eigenvalues --    0.17542   0.19009   0.20017   0.21727   0.22183

 Mulliken charges:
               1
     1  C   -0.483853
     2  C    0.385302
     3  O   -0.295750
     4  C   -0.258110
     5  C   -0.093615
     6  O   -0.303906
     7  C    0.477347
     8  C   -0.337590
     9  C   -0.336784
    10  H    0.144293
    11  H    0.138007
    12  H    0.145840
    13  H    0.091447
    14  H    0.103676
    15  H    0.131866
    16  H    0.132854
    17  H    0.116813
    18  H    0.129670
    19  H    0.112495
 Sum of Mulliken charges =   0.00000

 Dipole moment (field-independent basis, Debye):
    X=             -0.3359    Y=             -2.0150    Z=             -2.4713  Tot=              3.2063
 Quadrupole moment (field-independent basis, Debye-Ang):
   XX=            -56.4045   YY=            -52.2481   ZZ=            -53.0198
   XY=              1.0470   XZ=              3.4637   YZ=             -2.2211

  Exact polarizability:  80.447  -1.464  78.853  -1.797   1.019  68.076
 Approx polarizability: 107.767  -4.085 112.213  -5.686   6.741 108.146

                      1                      2                      3
                      A                      A                      A
 Frequencies --     51.2787                64.2832               123.7170
 Red. masses --      4.8442                 3.5448                 1.8736
 Frc consts  --      0.0075                 0.0086                 0.0169
 IR Inten    --      2.1543                 2.1959                 0.7922

                      4                      5                      6
                      A                      A                      A
 Frequencies --    149.2892               223.5683               287.1124
 Red. masses --      1.4217                 2.2900                 2.8870
 Frc consts  --      0.0187                 0.0674                 0.1402
 IR Inten    --      0.3883                 3.9250                 2.0911

                      7                      8                      9
                      A                      A                      A
 Frequencies --    313.4202               368.3347               452.2401
 Red. masses --      2.7571                 3.0731                 3.4725
 Frc consts  --      0.1596                 0.2456                 0.4184
 IR Inten    --      0.9721                 4.2139                 0.5404

                     10                     11                     12
                      A                      A                      A
 Frequencies --    530.1551               594.6550               608.0615
 Red. masses --      3.7760                 2.9105                 3.2598
 Frc consts  --      0.6253                 0.6064                 0.7101
 IR Inten    --      3.5496                10.5056                 2.1248

                     13                     14                     15
                      A                      A                      A
 Frequencies --    741.3364               751.8662               860.7068
 Red. masses --      2.3662                 1.0444                 1.4391
 Frc consts  --      0.7662                 0.3479                 0.6281
 IR Inten    --      1.6202                 1.5983                 2.2059

                     16                     17                     18
                      A                      A                      A
 Frequencies --    878.4215               890.1685               935.4212
 Red. masses --      2.7002                 2.0567                 2.5318
 Frc consts  --      1.2276                 0.9602                 1.3053
 IR Inten    --     24.9579                 2.4815                11.0082

                     19                     20                     21
                      A                      A                      A
 Frequencies --    949.5662               969.3035              1013.0327
 Red. masses --      2.4691                 2.0055                 2.7198
 Frc consts  --      1.3117                 1.1102                 1.6445
 IR Inten    --      5.7625                10.1551                33.1194

                     22                     23                     24
                      A                      A                      A
 Frequencies --   1021.4546              1050.9058              1064.7026
 Red. masses --      3.5105                 1.6617                 2.3493
 Frc consts  --      2.1580                 1.0812                 1.5691
 IR Inten    --     40.2983                35.6632                 4.9100

                     25                     26                     27
                      A                      A                      A
 Frequencies --   1067.6540              1099.1703              1174.6765
 Red. masses --      1.4695                 2.5214                 1.1699
 Frc consts  --      0.9869                 1.7948                 0.9512
 IR Inten    --      0.0635                 4.3994                 1.7081

                     28                     29                     30
                      A                      A                      A
 Frequencies --   1182.6020              1187.0079              1208.8234
 Red. masses --      1.5305                 1.5357                 1.7266
 Frc consts  --      1.2611                 1.2748                 1.4866
 IR Inten    --     28.9624                33.9227                24.8974

                     31                     32                     33
                      A                      A                      A
 Frequencies --   1221.3888              1346.1121              1351.6652
 Red. masses --      1.7366                 1.4869                 2.0621
 Frc consts  --      1.5263                 1.5874                 2.2197
 IR Inten    --     17.3093                 4.2609                32.0110

                     34                     35                     36
                      A                      A                      A
 Frequencies --   1370.2161              1384.9238              1446.0636
 Red. masses --      1.7437                 1.5019                 1.0883
 Frc consts  --      1.9289                 1.6972                 1.3409
 IR Inten    --     27.9647                45.2828                 3.6971

                     37                     38                     39
                      A                      A                      A
 Frequencies --   1462.4676              1474.8716              1489.4248
 Red. masses --      1.0563                 1.0563                 1.4405
 Frc consts  --      1.3311                 1.3538                 1.8828
 IR Inten    --      5.7869                 5.1101                26.9457

                     40                     41                     42
                      A                      A                      A
 Frequencies --   1517.3304              1812.7523              3032.6135
 Red. masses --      1.2104                10.5971                 1.0378
 Frc consts  --      1.6419                20.5171                 5.6235
 IR Inten    --      8.0144               131.1060                 1.7856

                     43                     44                     45
                      A                      A                      A
 Frequencies --   3042.1677              3075.4654              3092.1000
 Red. masses --      1.0582                 1.0855                 1.0973
 Frc consts  --      5.7700                 6.0491                 6.1814
 IR Inten    --     62.4757                12.7247                 9.9454

                     46                     47                     48
                      A                      A                      A
 Frequencies --   3106.5172              3124.2825              3131.5909
 Red. masses --      1.1085                 1.0534                 1.0558
 Frc consts  --      6.3026                 6.0580                 6.1003
 IR Inten    --     18.1278                10.4814                 5.6985

                     49                     50                     51
                      A                      A                      A
 Frequencies --   3153.2781              3209.6694              3224.3026
 Red. masses --      1.1017                 1.1175                 1.1148
 Frc consts  --      6.4541                 6.7830                 6.8287
 IR Inten    --      9.6382                 0.3926                 8.4790

 - Thermochemistry -
 -------------------
 Temperature   298.150 Kelvin.  Pressure   1.00000 Atm.
 Atom     1 has atomic number  6 and mass  12.00000

 Molecular mass:   126.06808 amu.
 Principal axes and moments of inertia in atomic units:
                           1         2         3
     Eigenvalues --   730.758121262.700231632.93118
           X            0.99974   0.01559   0.01653
           Y           -0.01540   0.99982  -0.01145
           Z           -0.01670   0.01119   0.99980
 This molecule is an asymmetric top.
 Rotational symmetry number  1.
 Warning -- assumption of classical behavior for rotation
           may cause significant error
 Rotational temperatures (Kelvin)      0.11853     0.06859     0.05304
 Rotational constants (GHZ):           2.46968     1.42927     1.10522
 Zero-point vibrational energy     412006.7 (Joules/Mol)
                                   98.47196 (Kcal/Mol)
 Warning -- explicit consideration of  12 degrees of freedom as
           vibrations may cause significant error
 Vibrational temperatures:     73.78    92.49   178.00   214.79   321.66
          (Kelvin)            413.09   450.94   529.95   650.67   762.77
                              855.57   874.86  1066.62  1081.77  1238.36
                             1263.85  1280.75  1345.86  1366.21  1394.61
                             1457.53  1469.64  1512.02  1531.87  1536.11
                             1581.46  1690.10  1701.50  1707.84  1739.23
                             1757.30  1936.75  1944.74  1971.43  1992.59
                             2080.56  2104.16  2122.01  2142.95  2183.10
                             2608.14  4363.25  4377.00  4424.90  4448.84
                             4469.58  4495.14  4505.66  4536.86  4617.99
                             4639.05

 Zero-point correction=                           0.156925 (Hartree/Particle)
 Thermal correction to Energy=                    0.166050
 Thermal correction to Enthalpy=                  0.166995
 Thermal correction to Gibbs Free Energy=         0.122201
 Sum of electronic and zero-point Energies=           -423.008089
 Sum of electronic and thermal Energies=              -422.998963
 Sum of electronic and thermal Enthalpies=            -422.998019
 Sum of electronic and thermal Free Energies=         -423.042813

                     E (Thermal)             CV                S
                      KCal/Mol        Cal/Mol-Kelvin    Cal/Mol-Kelvin
 Total                  104.198             33.312             94.277
 Electronic               0.000              0.000              0.000
 Translational            0.889              2.981             40.409
 Rotational               0.889              2.981             28.801
 Vibrational            102.421             27.350             25.067
 Vibration     1          0.596              1.977              4.767
 Vibration     2          0.597              1.971              4.321
 Vibration     3          0.610              1.929              3.041
 Vibration     4          0.618              1.903              2.681
 Vibration     5          0.649              1.805              1.930
 Vibration     6          0.684              1.698              1.491
 Vibration     7          0.701              1.648              1.344
 Vibration     8          0.741              1.537              1.087
 Vibration     9          0.811              1.356              0.789
 Vibration    10          0.885              1.183              0.587
 Vibration    11          0.952              1.043              0.459
 Vibration    12          0.967              1.015              0.436

 Optimization completed.
    -- Stationary point found.
 Normal termination of Gaussian 09 at Mon Jan 27 15:04:24 2020.
