 Gaussian 09, Revision D.01,
 Gaussian 09:  ES64L-G09RevD.01 24-Apr-2013

 -----------------------------
 # b3lyp 6-31G(2df,p) opt Freq
 -----------------------------

 -----
 titel
 -----
 Symbolic Z-matrix:
 Charge =  0 Multiplicity = 1

 SCF Done:  E(RB3LYP) =  -423.158076242     A.U. after   13 cycles
 Optimization completed.
    -- Stationary point found.
 Normal termination of Gaussian 09 at Mon Jan 27 11:19:32 2020.

 ----------------------------------------------------------------------
 #N Geom=AllCheck Guess=TCheck SCRF=Check GenChk RB3LYP/6-31G(2df,p) Fr
 eq
 ----------------------------------------------------------------------

 Structure from the checkpoint file:  "/scratch/puck/g09_db2bfb48-8cf9-456d-ac61-dab77bcd62b7/Gau-32211.chk"
 -----
 titel
 -----
 Charge =  0 Multiplicity = 1

                         Standard orientation:
 ---------------------------------------------------------------------
 Center     Atomic      Atomic             Coordinates (Angstroms)
 Number     Number       Type             X           Y           Z
 ---------------------------------------------------------------------
      1          6           0        2.095727   -0.430629    0.201500
      2          6           0        1.124482    0.396514   -0.600773
      3          8           0        0.615500    1.638254   -0.216482
      4          6           0       -0.823190    1.560300   -0.264288
      5          6           0       -1.359305    0.257782    0.396198
      6          6           0       -0.270977   -0.228252    1.350760
      7          6           0        0.626477   -0.756546    0.234303
      8          6           0       -0.321869   -1.658441   -0.513023
      9          8           0       -1.512362   -0.833241   -0.547204
     10          1           0        2.781112   -1.046755   -0.371733
     11          1           0        2.515384   -0.028773    1.117726
     12          1           0        1.152429    0.245113   -1.681282
     13          1           0       -1.184096    2.440834    0.276124
     14          1           0       -1.175172    1.609769   -1.304348
     15          1           0       -2.346312    0.435725    0.830677
     16          1           0        0.177552    0.569835    1.940715
     17          1           0       -0.617883   -1.027523    2.011702
     18          1           0       -0.011544   -1.879190   -1.539351
     19          1           0       -0.544637   -2.603499    0.001209
 ---------------------------------------------------------------------

 SCF Done:  E(RB3LYP) =  -423.158076242     A.U. after    1 cycles

 The electronic state is 1-A.
 Alpha  occ. eigenvalues --  -19.14571 -19.13148 -10.23305 -10.23030 -10.22904
 Alpha  occ. eigenvalues --  -10.22617 -10.20088 -10.19646 -10.18617  -1.04674
 Alpha  occ. eigenvalues --   -1.01674  -0.86184  -0.77283  -0.71523  -0.67899
 Alpha  occ. eigenvalues --   -0.61169  -0.57054  -0.54212  -0.51539  -0.49846
 Alpha  occ. eigenvalues --   -0.48752  -0.45866  -0.43289  -0.40940  -0.40352
 Alpha  occ. eigenvalues --   -0.39831  -0.37479  -0.35756  -0.35297  -0.31927
 Alpha  occ. eigenvalues --   -0.30463  -0.27097  -0.25816  -0.23673
 Alpha virt. eigenvalues --    0.08725   0.09972   0.10539   0.11250   0.11928
 Alpha virt. eigenvalues --    0.13391   0.14267   0.15271   0.16602   0.17248
 Alpha virt. eigenvalues --    0.18565   0.18646   0.19215   0.20898   0.21548

 Mulliken charges:
               1
     1  C   -0.432893
     2  C    0.098920
     3  O   -0.258514
     4  C   -0.085931
     5  C    0.095772
     6  C   -0.277338
     7  C    0.261399
     8  C   -0.145531
     9  O   -0.293839
    10  H    0.121482
    11  H    0.125947
    12  H    0.085233
    13  H    0.107327
    14  H    0.105093
    15  H    0.078738
    16  H    0.116959
    17  H    0.101565
    18  H    0.102814
    19  H    0.092796
 Sum of Mulliken charges =   0.00000

 Dipole moment (field-independent basis, Debye):
    X=              0.5317    Y=             -0.6282    Z=              0.7157  Tot=              1.0906
 Quadrupole moment (field-independent basis, Debye-Ang):
   XX=            -54.0030   YY=            -54.4612   ZZ=            -51.3934
   XY=             -4.9613   XZ=             -2.1592   YZ=              0.6735

  Exact polarizability:  78.889  -4.829  74.801  -1.765   1.224  68.055
 Approx polarizability: 113.182  -3.142 109.643  -0.944   1.647 103.440

                      1                      2                      3
                      A                      A                      A
 Frequencies --    205.8590               267.4540               358.1861
 Red. masses --      3.1133                 2.8788                 2.3953
 Frc consts  --      0.0777                 0.1213                 0.1811
 IR Inten    --      5.3821                 2.3722                 2.4548

                      4                      5                      6
                      A                      A                      A
 Frequencies --    364.7686               393.9129               455.6505
 Red. masses --      2.8509                 2.2239                 2.2585
 Frc consts  --      0.2235                 0.2033                 0.2763
 IR Inten    --      0.8097                 2.1399                 7.5069

                      7                      8                      9
                      A                      A                      A
 Frequencies --    529.8667               564.8721               598.1253
 Red. masses --      4.9846                 3.5475                 4.0298
 Frc consts  --      0.8246                 0.6669                 0.8494
 IR Inten    --      0.2555                 6.0403                 1.1253

                     10                     11                     12
                      A                      A                      A
 Frequencies --    765.5715               785.3907               823.4403
 Red. masses --      3.1416                 3.0118                 2.2885
 Frc consts  --      1.0849                 1.0946                 0.9143
 IR Inten    --      2.3875                 3.1141                24.8096

                     13                     14                     15
                      A                      A                      A
 Frequencies --    854.3653               866.4202               891.7358
 Red. masses --      3.5179                 2.8746                 3.2117
 Frc consts  --      1.5129                 1.2714                 1.5047
 IR Inten    --      5.9897                 7.7732                 9.2100

                     16                     17                     18
                      A                      A                      A
 Frequencies --    915.7581               960.6291               987.5265
 Red. masses --      2.0522                 1.9170                 2.6385
 Frc consts  --      1.0140                 1.0423                 1.5160
 IR Inten    --     18.5910                40.3519                22.1620

                     19                     20                     21
                      A                      A                      A
 Frequencies --    998.5895              1008.5561              1049.7156
 Red. masses --      2.7884                 1.7965                 2.1562
 Frc consts  --      1.6382                 1.0767                 1.3999
 IR Inten    --     35.6957                23.6865                 6.3934

                     22                     23                     24
                      A                      A                      A
 Frequencies --   1059.2376              1077.3854              1092.7306
 Red. masses --      1.5256                 1.6188                 2.2567
 Frc consts  --      1.0085                 1.1071                 1.5876
 IR Inten    --      5.1466                 5.5468                 1.4484

                     25                     26                     27
                      A                      A                      A
 Frequencies --   1114.2044              1157.5293              1173.3965
 Red. masses --      1.7764                 1.3060                 1.7311
 Frc consts  --      1.2993                 1.0310                 1.4043
 IR Inten    --     17.7209                 6.6209                34.3979

                     28                     29                     30
                      A                      A                      A
 Frequencies --   1193.5498              1241.8846              1263.9046
 Red. masses --      1.5749                 1.7731                 1.6237
 Frc consts  --      1.3219                 1.6112                 1.5282
 IR Inten    --     29.5669                 6.6735                 4.6182

                     31                     32                     33
                      A                      A                      A
 Frequencies --   1285.5801              1313.0490              1326.8037
 Red. masses --      1.4740                 1.6583                 1.3089
 Frc consts  --      1.4353                 1.6846                 1.3576
 IR Inten    --      7.8710                 0.9898                 0.0975

                     34                     35                     36
                      A                      A                      A
 Frequencies --   1350.8893              1368.8377              1386.2843
 Red. masses --      1.3938                 1.2556                 1.5143
 Frc consts  --      1.4986                 1.3861                 1.7146
 IR Inten    --      1.4237                 4.2571                 2.8427

                     37                     38                     39
                      A                      A                      A
 Frequencies --   1428.6203              1476.5737              1485.7215
 Red. masses --      1.5307                 1.3572                 1.0998
 Frc consts  --      1.8406                 1.7434                 1.4303
 IR Inten    --     11.7316                 3.7624                 2.3121

                     40                     41                     42
                      A                      A                      A
 Frequencies --   1492.4733              1529.6731              3005.0924
 Red. masses --      1.2722                 1.0998                 1.0652
 Frc consts  --      1.6696                 1.5162                 5.6677
 IR Inten    --     12.8097                 0.1986                82.4070

                     43                     44                     45
                      A                      A                      A
 Frequencies --   3009.4202              3065.1400              3070.0096
 Red. masses --      1.0645                 1.0691                 1.0977
 Frc consts  --      5.6801                 5.9178                 6.0957
 IR Inten    --     47.9264                16.7449                22.7462

                     46                     47                     48
                      A                      A                      A
 Frequencies --   3078.0988              3084.9194              3091.8919
 Red. masses --      1.0896                 1.0867                 1.0956
 Frc consts  --      6.0823                 6.0935                 6.1708
 IR Inten    --     25.6866                48.2861                50.5148

                     49                     50                     51
                      A                      A                      A
 Frequencies --   3129.0898              3146.1987              3215.6978
 Red. masses --      1.0556                 1.1003                 1.1164
 Frc consts  --      6.0893                 6.4172                 6.8017
 IR Inten    --     13.2586                10.0049                 5.5100

 - Thermochemistry -
 -------------------
 Temperature   298.150 Kelvin.  Pressure   1.00000 Atm.
 Atom     1 has atomic number  6 and mass  12.00000

 Molecular mass:   126.06808 amu.
 Principal axes and moments of inertia in atomic units:
                           1         2         3
     Eigenvalues --   730.20553 820.163401152.26684
           X            0.96625  -0.25712  -0.01561
           Y            0.25728   0.96629   0.00939
           Z            0.01267  -0.01309   0.99983
 This molecule is an asymmetric top.
 Rotational symmetry number  1.
 Warning -- assumption of classical behavior for rotation
           may cause significant error
 Rotational temperatures (Kelvin)      0.11862     0.10561     0.07517
 Rotational constants (GHZ):           2.47155     2.20047     1.56625
 Zero-point vibrational energy     426829.3 (Joules/Mol)
                                  102.01464 (Kcal/Mol)
 Warning -- explicit consideration of   9 degrees of freedom as
           vibrations may cause significant error
 Vibrational temperatures:    296.18   384.81   515.35   524.82   566.75
          (Kelvin)            655.58   762.36   812.72   860.57  1101.49
                             1130.00  1184.75  1229.24  1246.58  1283.01
                             1317.57  1382.13  1420.83  1436.75  1451.09
                             1510.30  1524.00  1550.12  1572.19  1603.09
                             1665.42  1688.25  1717.25  1786.79  1818.47
                             1849.66  1889.18  1908.97  1943.63  1969.45
                             1994.55  2055.46  2124.46  2137.62  2147.33
                             2200.86  4323.65  4329.88  4410.05  4417.05
                             4428.69  4438.51  4448.54  4502.06  4526.67
                             4626.67

 Zero-point correction=                           0.162571 (Hartree/Particle)
 Thermal correction to Energy=                    0.169167
 Thermal correction to Enthalpy=                  0.170111
 Thermal correction to Gibbs Free Energy=         0.132068
 Sum of electronic and zero-point Energies=           -422.995506
 Sum of electronic and thermal Energies=              -422.988909
 Sum of electronic and thermal Enthalpies=            -422.987965
 Sum of electronic and thermal Free Energies=         -423.026008

                     E (Thermal)             CV                S
                      KCal/Mol        Cal/Mol-Kelvin    Cal/Mol-Kelvin
 Total                  106.154             28.145             80.068
 Electronic               0.000              0.000              0.000
 Translational            0.889              2.981             40.409
 Rotational               0.889              2.981             28.025
 Vibrational            104.376             22.183             11.634
 Vibration     1          0.640              1.832              2.080
 Vibration     2          0.673              1.733              1.613
 Vibration     3          0.733              1.558              1.130
 Vibration     4          0.738              1.545              1.102
 Vibration     5          0.761              1.483              0.985
 Vibration     6          0.814              1.348              0.779
 Vibration     7          0.885              1.184              0.588
 Vibration     8          0.921              1.107              0.514
 Vibration     9          0.956              1.036              0.453

 Normal termination of Gaussian 09 at Mon Jan 27 12:10:43 2020.
