 Gaussian 09, Revision D.01,
 Gaussian 09:  ES64L-G09RevD.01 24-Apr-2013

 -----------------------------
 # b3lyp 6-31G(2df,p) opt Freq
 -----------------------------

 -----
 titel
 -----
 Symbolic Z-matrix:
 Charge =  0 Multiplicity = 1

 SCF Done:  E(RB3LYP) =  -423.205394856     A.U. after   14 cycles
 Optimization completed.
    -- Stationary point found.
 Normal termination of Gaussian 09 at Tue Jan 28 02:53:21 2020.

 ----------------------------------------------------------------------
 #N Geom=AllCheck Guess=TCheck SCRF=Check GenChk RB3LYP/6-31G(2df,p) Fr
 eq
 ----------------------------------------------------------------------

 Structure from the checkpoint file:  "/scratch/puck/g09_643f8914-c02d-483b-b8f6-e13dd1854d0b/Gau-105053.chk"
 -----
 titel
 -----
 Charge =  0 Multiplicity = 1

                         Standard orientation:
 ---------------------------------------------------------------------
 Center     Atomic      Atomic             Coordinates (Angstroms)
 Number     Number       Type             X           Y           Z
 ---------------------------------------------------------------------
      1          8           0       -2.841054    0.059878   -0.366212
      2          6           0       -1.444590   -0.068678   -0.424473
      3          6           0       -0.792753   -1.441340   -0.096693
      4          6           0        0.285466   -0.692141    0.744985
      5          6           0       -0.570516    0.602897    0.684300
      6          6           0        0.351297    1.759477    0.257925
      7          6           0        1.481022    1.086632   -0.543622
      8          6           0        1.568462   -0.355695   -0.018669
      9          8           0        2.500038   -1.102205   -0.177116
     10          1           0       -3.136003   -0.254810    0.495145
     11          1           0       -1.167888    0.285898   -1.422766
     12          1           0       -1.442153   -2.045179    0.545138
     13          1           0       -0.450428   -2.062999   -0.927578
     14          1           0        0.538191   -1.139825    1.707819
     15          1           0       -1.159319    0.824257    1.578452
     16          1           0       -0.184769    2.522743   -0.314221
     17          1           0        0.765382    2.251810    1.144975
     18          1           0        1.242159    1.029931   -1.613782
     19          1           0        2.452626    1.579878   -0.469080
 ---------------------------------------------------------------------

 SCF Done:  E(RB3LYP) =  -423.205394856     A.U. after    1 cycles

 The electronic state is 1-A.
 Alpha  occ. eigenvalues --  -19.14506 -19.12846 -10.26609 -10.23862 -10.19440
 Alpha  occ. eigenvalues --  -10.19342 -10.19310 -10.19288 -10.19182  -1.03911
 Alpha  occ. eigenvalues --   -1.02855  -0.86710  -0.77782  -0.69672  -0.67142
 Alpha  occ. eigenvalues --   -0.62749  -0.58117  -0.52632  -0.50874  -0.47426
 Alpha  occ. eigenvalues --   -0.46476  -0.44398  -0.42554  -0.42197  -0.40515
 Alpha  occ. eigenvalues --   -0.39609  -0.37590  -0.36477  -0.35233  -0.34120
 Alpha  occ. eigenvalues --   -0.31943  -0.30041  -0.26390  -0.23691
 Alpha virt. eigenvalues --   -0.02095   0.07180   0.08146   0.08516   0.11569
 Alpha virt. eigenvalues --    0.13277   0.14114   0.15319   0.16259   0.16845
 Alpha virt. eigenvalues --    0.18263   0.18974   0.19970   0.21533   0.22564

 Mulliken charges:
               1
     1  O   -0.432674
     2  C    0.162019
     3  C   -0.278192
     4  C   -0.139380
     5  C   -0.060033
     6  C   -0.242449
     7  C   -0.323805
     8  C    0.402706
     9  O   -0.318355
    10  H    0.277843
    11  H    0.090441
    12  H    0.101743
    13  H    0.117621
    14  H    0.096338
    15  H    0.064855
    16  H    0.110749
    17  H    0.107285
    18  H    0.134443
    19  H    0.128846
 Sum of Mulliken charges =   0.00000

 Dipole moment (field-independent basis, Debye):
    X=             -1.5438    Y=              1.1721    Z=              1.4445  Tot=              2.4174
 Quadrupole moment (field-independent basis, Debye-Ang):
   XX=            -62.6783   YY=            -53.8171   ZZ=            -50.4160
   XY=              7.2199   XZ=             -3.8419   YZ=             -0.9664

  Exact polarizability:  83.590   0.739  75.760  -3.149  -1.203  64.225
 Approx polarizability: 118.319  -5.455 108.286  -3.726  -1.831 100.613

                      1                      2                      3
                      A                      A                      A
 Frequencies --     53.7103               120.7058               195.9250
 Red. masses --      4.4408                 2.8532                 2.8327
 Frc consts  --      0.0075                 0.0245                 0.0641
 IR Inten    --      4.5810                 4.1053                 0.6277

                      4                      5                      6
                      A                      A                      A
 Frequencies --    268.7353               291.1191               364.8013
 Red. masses --      2.4530                 1.2836                 2.5598
 Frc consts  --      0.1044                 0.0641                 0.2007
 IR Inten    --      1.1698                50.9218                46.1533

                      7                      8                      9
                      A                      A                      A
 Frequencies --    434.7593               449.1968               512.4849
 Red. masses --      4.1665                 2.8600                 2.5421
 Frc consts  --      0.4640                 0.3400                 0.3934
 IR Inten    --      7.4739                 1.0917                 3.1954

                     10                     11                     12
                      A                      A                      A
 Frequencies --    591.8985               649.9064               710.2648
 Red. masses --      2.5882                 4.0168                 2.7873
 Frc consts  --      0.5343                 0.9996                 0.8285
 IR Inten    --      1.8624                 4.8585                 0.1290

                     13                     14                     15
                      A                      A                      A
 Frequencies --    737.0752               808.4779               838.5904
 Red. masses --      3.9991                 2.0459                 2.2885
 Frc consts  --      1.2801                 0.7879                 0.9482
 IR Inten    --      7.4761                 9.8020                 1.1848

                     16                     17                     18
                      A                      A                      A
 Frequencies --    891.1480               923.4524               954.8082
 Red. masses --      1.7419                 2.3244                 2.0514
 Frc consts  --      0.8150                 1.1678                 1.1019
 IR Inten    --      1.3173                 5.9955                 1.5673

                     19                     20                     21
                      A                      A                      A
 Frequencies --    964.6836               968.5880              1035.0991
 Red. masses --      1.6386                 2.4298                 1.9849
 Frc consts  --      0.8985                 1.3431                 1.2530
 IR Inten    --     10.2146                20.1091                 1.6617

                     22                     23                     24
                      A                      A                      A
 Frequencies --   1044.2608              1102.0260              1125.6999
 Red. masses --      2.0709                 1.5511                 1.4342
 Frc consts  --      1.3306                 1.1098                 1.0708
 IR Inten    --      5.6442                14.8940                10.5135

                     25                     26                     27
                      A                      A                      A
 Frequencies --   1135.5688              1159.7144              1177.7437
 Red. masses --      2.4262                 2.5162                 1.9217
 Frc consts  --      1.8433                 1.9939                 1.5705
 IR Inten    --    157.0157                34.1359                14.8148

                     28                     29                     30
                      A                      A                      A
 Frequencies --   1195.8130              1233.9397              1248.0270
 Red. masses --      1.4198                 1.4531                 1.4281
 Frc consts  --      1.1962                 1.3035                 1.3106
 IR Inten    --      2.4594                 8.0994                 5.5946

                     31                     32                     33
                      A                      A                      A
 Frequencies --   1258.7259              1275.1565              1294.4531
 Red. masses --      1.5899                 1.3966                 1.3706
 Frc consts  --      1.4841                 1.3380                 1.3531
 IR Inten    --      1.0201                 4.3447                 5.9873

                     34                     35                     36
                      A                      A                      A
 Frequencies --   1314.2453              1336.9046              1357.1721
 Red. masses --      1.6035                 1.5326                 1.4975
 Frc consts  --      1.6318                 1.6139                 1.6251
 IR Inten    --      2.5943                 1.4746                 5.7737

                     37                     38                     39
                      A                      A                      A
 Frequencies --   1438.6237              1454.6857              1480.8050
 Red. masses --      1.2135                 1.0896                 1.1150
 Frc consts  --      1.4798                 1.3584                 1.4405
 IR Inten    --     52.3211                15.6852                 4.3304

                     40                     41                     42
                      A                      A                      A
 Frequencies --   1494.2057              1838.3944              3033.2537
 Red. masses --      1.0935                12.6074                 1.0706
 Frc consts  --      1.4384                25.1045                 5.8037
 IR Inten    --      3.3087               209.2242                 3.4688

                     43                     44                     45
                      A                      A                      A
 Frequencies --   3040.5842              3050.9376              3058.0409
 Red. masses --      1.0618                 1.0617                 1.0841
 Frc consts  --      5.7835                 5.8226                 5.9730
 IR Inten    --     31.1015                24.8017                19.4008

                     46                     47                     48
                      A                      A                      A
 Frequencies --   3074.9751              3086.1816              3096.3688
 Red. masses --      1.0862                 1.1009                 1.0876
 Frc consts  --      6.0511                 6.1779                 6.1435
 IR Inten    --     38.0738                20.0062                11.5812

                     49                     50                     51
                      A                      A                      A
 Frequencies --   3110.2186              3111.3387              3802.9287
 Red. masses --      1.0969                 1.1032                 1.0658
 Frc consts  --      6.2519                 6.2922                 9.0819
 IR Inten    --     14.4241                23.7116                15.6904

 - Thermochemistry -
 -------------------
 Temperature   298.150 Kelvin.  Pressure   1.00000 Atm.
 Atom     1 has atomic number  8 and mass  15.99491

 Molecular mass:   126.06808 amu.
 Principal axes and moments of inertia in atomic units:
                           1         2         3
     Eigenvalues --   597.825871365.487891715.70699
           X            0.99906   0.04192  -0.01111
           Y           -0.04204   0.99906  -0.01089
           Z            0.01064   0.01135   0.99988
 This molecule is an asymmetric top.
 Rotational symmetry number  1.
 Warning -- assumption of classical behavior for rotation
           may cause significant error
 Rotational temperatures (Kelvin)      0.14488     0.06343     0.05048
 Rotational constants (GHZ):           3.01884     1.32168     1.05189
 Zero-point vibrational energy     419867.9 (Joules/Mol)
                                  100.35082 (Kcal/Mol)
 Warning -- explicit consideration of  10 degrees of freedom as
           vibrations may cause significant error
 Vibrational temperatures:     77.28   173.67   281.89   386.65   418.85
          (Kelvin)            524.87   625.52   646.29   737.35   851.61
                              935.07  1021.91  1060.49  1163.22  1206.54
                             1282.16  1328.64  1373.75  1387.96  1393.58
                             1489.27  1502.46  1585.57  1619.63  1633.83
                             1668.57  1694.51  1720.51  1775.36  1795.63
                             1811.02  1834.66  1862.43  1890.90  1923.51
                             1952.67  2069.86  2092.97  2130.55  2149.83
                             2645.04  4364.17  4374.72  4389.61  4399.83
                             4424.20  4440.32  4454.98  4474.91  4476.52
                             5471.56

 Zero-point correction=                           0.159919 (Hartree/Particle)
 Thermal correction to Energy=                    0.168024
 Thermal correction to Enthalpy=                  0.168968
 Thermal correction to Gibbs Free Energy=         0.126852
 Sum of electronic and zero-point Energies=           -423.045476
 Sum of electronic and thermal Energies=              -423.037371
 Sum of electronic and thermal Enthalpies=            -423.036426
 Sum of electronic and thermal Free Energies=         -423.078543

                     E (Thermal)             CV                S
                      KCal/Mol        Cal/Mol-Kelvin    Cal/Mol-Kelvin
 Total                  105.437             31.389             88.642
 Electronic               0.000              0.000              0.000
 Translational            0.889              2.981             40.409
 Rotational               0.889              2.981             28.728
 Vibrational            103.659             25.427             19.505
 Vibration     1          0.596              1.976              4.676
 Vibration     2          0.609              1.932              3.089
 Vibration     3          0.636              1.846              2.171
 Vibration     4          0.673              1.731              1.604
 Vibration     5          0.687              1.690              1.467
 Vibration     6          0.738              1.545              1.102
 Vibration     7          0.795              1.394              0.843
 Vibration     8          0.808              1.363              0.798
 Vibration     9          0.868              1.222              0.628
 Vibration    10          0.949              1.049              0.464

 Optimization completed.
    -- Stationary point found.
 Normal termination of Gaussian 09 at Tue Jan 28 03:47:04 2020.
