 Gaussian 09, Revision D.01,
 Gaussian 09:  ES64L-G09RevD.01 24-Apr-2013

 -----------------------------
 # b3lyp 6-31G(2df,p) opt Freq
 -----------------------------

 -----
 titel
 -----
 Symbolic Z-matrix:
 Charge =  0 Multiplicity = 1

 SCF Done:  E(RB3LYP) =  -423.175909980     A.U. after   14 cycles
 Optimization completed.
    -- Stationary point found.
 Normal termination of Gaussian 09 at Tue Jan 28 00:43:41 2020.

 ----------------------------------------------------------------------
 #N Geom=AllCheck Guess=TCheck SCRF=Check GenChk RB3LYP/6-31G(2df,p) Fr
 eq
 ----------------------------------------------------------------------

 Structure from the checkpoint file:  "/scratch/puck/g09_cc9c66a0-63aa-4a2f-a223-722937e76e28/Gau-36883.chk"
 -----
 titel
 -----
 Charge =  0 Multiplicity = 1

                         Standard orientation:
 ---------------------------------------------------------------------
 Center     Atomic      Atomic             Coordinates (Angstroms)
 Number     Number       Type             X           Y           Z
 ---------------------------------------------------------------------
      1          8           0        0.255053    2.041382    0.773054
      2          6           0        0.123401    1.104966   -0.301281
      3          6           0       -1.345359    0.975814   -0.604978
      4          6           0       -2.049185   -0.129092   -0.363417
      5          6           0       -1.474106   -1.370473    0.265955
      6          6           0       -0.137225   -1.083149    0.967789
      7          6           0        0.733282   -0.243149    0.063939
      8          6           0        2.188846   -0.417129   -0.004433
      9          8           0        1.345988   -0.942858   -1.032655
     10          1           0        1.194544    2.222250    0.887191
     11          1           0        0.647530    1.472392   -1.197497
     12          1           0       -1.819165    1.852303   -1.037373
     13          1           0       -3.102352   -0.159491   -0.633380
     14          1           0       -2.192709   -1.793684    0.977478
     15          1           0       -1.328785   -2.137844   -0.507158
     16          1           0       -0.319945   -0.513437    1.886189
     17          1           0        0.372780   -2.012290    1.237087
     18          1           0        2.828911    0.412636   -0.308543
     19          1           0        2.672939   -1.157758    0.631369
 ---------------------------------------------------------------------

 SCF Done:  E(RB3LYP) =  -423.175909980     A.U. after    1 cycles

 The electronic state is 1-A.
 Alpha  occ. eigenvalues --  -19.14948 -19.13836 -10.23777 -10.23563 -10.23453
 Alpha  occ. eigenvalues --  -10.18743 -10.18564 -10.18497 -10.17795  -1.07028
 Alpha  occ. eigenvalues --   -1.01766  -0.82424  -0.74423  -0.72227  -0.66197
 Alpha  occ. eigenvalues --   -0.62527  -0.58935  -0.51680  -0.51434  -0.50089
 Alpha  occ. eigenvalues --   -0.47623  -0.44597  -0.43612  -0.41469  -0.39916
 Alpha  occ. eigenvalues --   -0.39676  -0.36667  -0.35835  -0.34143  -0.32490
 Alpha  occ. eigenvalues --   -0.29229  -0.28553  -0.25619  -0.25145
 Alpha virt. eigenvalues --    0.01354   0.07576   0.09237   0.10315   0.12646
 Alpha virt. eigenvalues --    0.13003   0.13287   0.14856   0.15842   0.17309
 Alpha virt. eigenvalues --    0.17977   0.18660   0.19620   0.21894   0.22678

 Mulliken charges:
               1
     1  O   -0.432834
     2  C   -0.005613
     3  C   -0.047998
     4  C   -0.048742
     5  C   -0.254934
     6  C   -0.290221
     7  C    0.412602
     8  C   -0.259750
     9  O   -0.282549
    10  H    0.279812
    11  H    0.078994
    12  H    0.093988
    13  H    0.090978
    14  H    0.105209
    15  H    0.126926
    16  H    0.118773
    17  H    0.098081
    18  H    0.103350
    19  H    0.113929
 Sum of Mulliken charges =   0.00000

 Dipole moment (field-independent basis, Debye):
    X=              0.7991    Y=             -0.0280    Z=              0.9078  Tot=              1.2098
 Quadrupole moment (field-independent basis, Debye-Ang):
   XX=            -47.3294   YY=            -53.7445   ZZ=            -55.7331
   XY=              4.6558   XZ=              3.4678   YZ=             -4.0857

  Exact polarizability:  89.586   5.850  79.819   2.132  -5.711  60.001
 Approx polarizability: 121.783  12.280 120.859   0.385  -3.422  95.776

                      1                      2                      3
                      A                      A                      A
 Frequencies --     87.9937               144.5725               228.9022
 Red. masses --      3.6018                 3.3021                 3.0320
 Frc consts  --      0.0164                 0.0407                 0.0936
 IR Inten    --      1.3845                 2.0951                 1.4080

                      4                      5                      6
                      A                      A                      A
 Frequencies --    264.9727               311.3915               319.7618
 Red. masses --      3.0021                 1.5732                 1.5776
 Frc consts  --      0.1242                 0.0899                 0.0950
 IR Inten    --      8.7924                53.5001                50.4190

                      7                      8                      9
                      A                      A                      A
 Frequencies --    380.6084               411.5830               498.8319
 Red. masses --      2.8257                 3.2452                 3.6267
 Frc consts  --      0.2412                 0.3239                 0.5317
 IR Inten    --      0.9840                 2.9682                 6.0823

                     10                     11                     12
                      A                      A                      A
 Frequencies --    519.9855               571.8665               697.1034
 Red. masses --      3.6090                 3.2596                 3.5415
 Frc consts  --      0.5749                 0.6281                 1.0140
 IR Inten    --     10.0942                 4.9143                 4.2850

                     13                     14                     15
                      A                      A                      A
 Frequencies --    743.8472               764.0378               846.9212
 Red. masses --      1.8990                 1.8079                 3.9942
 Frc consts  --      0.6191                 0.6218                 1.6880
 IR Inten    --      5.6849                15.4856                15.0784

                     16                     17                     18
                      A                      A                      A
 Frequencies --    877.2213               899.7137               944.5698
 Red. masses --      2.1017                 2.1296                 2.4786
 Frc consts  --      0.9529                 1.0157                 1.3029
 IR Inten    --      3.2974                11.0900                 5.7882

                     19                     20                     21
                      A                      A                      A
 Frequencies --    989.3094              1004.5401              1007.9419
 Red. masses --      1.8602                 1.7333                 2.3558
 Frc consts  --      1.0727                 1.0305                 1.4102
 IR Inten    --      0.8045                 5.2035                26.4318

                     22                     23                     24
                      A                      A                      A
 Frequencies --   1039.2935              1056.8725              1070.0379
 Red. masses --      1.9538                 3.2727                 2.5893
 Frc consts  --      1.2434                 2.1538                 1.7468
 IR Inten    --     23.3061                54.3839                13.4184

                     25                     26                     27
                      A                      A                      A
 Frequencies --   1126.5579              1154.7040              1165.8241
 Red. masses --      1.2805                 1.2805                 1.2874
 Frc consts  --      0.9575                 1.0059                 1.0309
 IR Inten    --      4.2150                 0.2703                 1.8916

                     28                     29                     30
                      A                      A                      A
 Frequencies --   1202.4060              1236.0782              1253.1774
 Red. masses --      1.1789                 1.0882                 1.2905
 Frc consts  --      1.0042                 0.9796                 1.1941
 IR Inten    --      5.5837                64.2160                 1.3296

                     31                     32                     33
                      A                      A                      A
 Frequencies --   1296.2981              1314.0204              1353.0457
 Red. masses --      1.8203                 1.5143                 1.5448
 Frc consts  --      1.8022                 1.5405                 1.6663
 IR Inten    --      4.1217                13.1241                 0.1848

                     34                     35                     36
                      A                      A                      A
 Frequencies --   1370.2244              1386.9377              1425.6926
 Red. masses --      1.7504                 1.4115                 1.6504
 Frc consts  --      1.9362                 1.5997                 1.9765
 IR Inten    --      1.7372                21.2489                 5.4154

                     37                     38                     39
                      A                      A                      A
 Frequencies --   1451.5894              1467.3082              1478.9988
 Red. masses --      1.8743                 1.0923                 1.1318
 Frc consts  --      2.3268                 1.3856                 1.4587
 IR Inten    --      0.5308                 2.9977                 6.2155

                     40                     41                     42
                      A                      A                      A
 Frequencies --   1530.1802              1723.7956              2979.5311
 Red. masses --      1.4474                 6.7661                 1.0828
 Frc consts  --      1.9967                11.8456                 5.6638
 IR Inten    --      2.0283                 3.8556                39.8545

                     43                     44                     45
                      A                      A                      A
 Frequencies --   3015.7274              3042.0379              3057.4287
 Red. masses --      1.0652                 1.0663                 1.0885
 Frc consts  --      5.7076                 5.8136                 5.9948
 IR Inten    --     21.0568                 8.8278                33.1356

                     46                     47                     48
                      A                      A                      A
 Frequencies --   3067.4989              3096.8169              3148.3145
 Red. masses --      1.0514                 1.1037                 1.0848
 Frc consts  --      5.8291                 6.2364                 6.3353
 IR Inten    --     30.1097                21.8616                11.1364

                     49                     50                     51
                      A                      A                      A
 Frequencies --   3152.3109              3176.7429              3801.5219
 Red. masses --      1.1176                 1.0959                 1.0659
 Frc consts  --      6.5435                 6.5163                 9.0761
 IR Inten    --     24.8482                27.2718                 7.8062

 - Thermochemistry -
 -------------------
 Temperature   298.150 Kelvin.  Pressure   1.00000 Atm.
 Atom     1 has atomic number  8 and mass  15.99491

 Molecular mass:   126.06808 amu.
 Principal axes and moments of inertia in atomic units:
                           1         2         3
     Eigenvalues --   809.798101021.394141431.67349
           X            0.99605   0.08712   0.01732
           Y           -0.08603   0.99471  -0.05621
           Z           -0.02212   0.05450   0.99827
 This molecule is an asymmetric top.
 Rotational symmetry number  1.
 Warning -- assumption of classical behavior for rotation
           may cause significant error
 Rotational temperatures (Kelvin)      0.10696     0.08480     0.06050
 Rotational constants (GHZ):           2.22863     1.76694     1.26058
 Zero-point vibrational energy     419629.9 (Joules/Mol)
                                  100.29396 (Kcal/Mol)
 Warning -- explicit consideration of  11 degrees of freedom as
           vibrations may cause significant error
 Vibrational temperatures:    126.60   208.01   329.34   381.24   448.02
          (Kelvin)            460.07   547.61   592.18   717.71   748.14
                              822.79  1002.98  1070.23  1099.28  1218.53
                             1262.12  1294.49  1359.02  1423.39  1445.31
                             1450.20  1495.31  1520.60  1539.54  1620.86
                             1661.36  1677.36  1729.99  1778.44  1803.04
                             1865.08  1890.58  1946.73  1971.44  1995.49
                             2051.25  2088.51  2111.13  2127.95  2201.59
                             2480.15  4286.88  4338.95  4376.81  4398.95
                             4413.44  4455.62  4529.72  4535.47  4570.62
                             5469.54

 Zero-point correction=                           0.159829 (Hartree/Particle)
 Thermal correction to Energy=                    0.168001
 Thermal correction to Enthalpy=                  0.168946
 Thermal correction to Gibbs Free Energy=         0.127290
 Sum of electronic and zero-point Energies=           -423.016081
 Sum of electronic and thermal Energies=              -423.007909
 Sum of electronic and thermal Enthalpies=            -423.006964
 Sum of electronic and thermal Free Energies=         -423.048620

                     E (Thermal)             CV                S
                      KCal/Mol        Cal/Mol-Kelvin    Cal/Mol-Kelvin
 Total                  105.422             31.970             87.671
 Electronic               0.000              0.000              0.000
 Translational            0.889              2.981             40.409
 Rotational               0.889              2.981             28.562
 Vibrational            103.645             26.008             18.701
 Vibration     1          0.601              1.958              3.704
 Vibration     2          0.616              1.909              2.742
 Vibration     3          0.652              1.797              1.888
 Vibration     4          0.671              1.737              1.629
 Vibration     5          0.700              1.652              1.355
 Vibration     6          0.706              1.636              1.311
 Vibration     7          0.750              1.512              1.037
 Vibration     8          0.776              1.445              0.921
 Vibration     9          0.854              1.253              0.661
 Vibration    10          0.875              1.206              0.610
 Vibration    11          0.928              1.092              0.501

 Normal termination of Gaussian 09 at Tue Jan 28 02:53:56 2020.
