 Gaussian 09, Revision D.01,
 Gaussian 09:  ES64L-G09RevD.01 24-Apr-2013

 -----------------------------
 # b3lyp 6-31G(2df,p) opt Freq
 -----------------------------

 -----
 titel
 -----
 Symbolic Z-matrix:
 Charge =  0 Multiplicity = 1

 SCF Done:  E(RB3LYP) =  -423.098316512     A.U. after   13 cycles
 Optimization completed.
    -- Stationary point found.
 Normal termination of Gaussian 09 at Tue Jan 28 09:59:54 2020.

 ----------------------------------------------------------------------
 #N Geom=AllCheck Guess=TCheck SCRF=Check GenChk RB3LYP/6-31G(2df,p) Fr
 eq
 ----------------------------------------------------------------------

 Structure from the checkpoint file:  "/scratch/puck/g09_e69f6a69-8450-4728-afc1-b11e54ea422f/Gau-21685.chk"
 -----
 titel
 -----
 Charge =  0 Multiplicity = 1

                         Standard orientation:
 ---------------------------------------------------------------------
 Center     Atomic      Atomic             Coordinates (Angstroms)
 Number     Number       Type             X           Y           Z
 ---------------------------------------------------------------------
      1          8           0        2.499860   -0.933558   -0.421673
      2          6           0        1.431046   -0.881894    0.515917
      3          6           0        0.461896    0.229653    0.211339
      4          6           0        0.768458    1.744943    0.110602
      5          6           0       -0.738519    1.639496   -0.178889
      6          6           0       -0.942282    0.498957    0.877553
      7          6           0       -1.679433   -0.372750   -0.160568
      8          8           0       -1.582810   -1.777311   -0.077947
      9          6           0       -0.572668    0.300176   -0.976512
     10          1           0        2.971807   -0.096177   -0.369041
     11          1           0        0.917520   -1.843841    0.452088
     12          1           0        1.811678   -0.768782    1.545363
     13          1           0        1.059188    2.253050    1.036850
     14          1           0        1.403922    2.067224   -0.721885
     15          1           0       -1.452197    2.431704   -0.407095
     16          1           0       -1.136249    0.636238    1.943495
     17          1           0       -2.705652   -0.055158   -0.398567
     18          1           0       -2.235840   -2.089392    0.556228
     19          1           0       -0.341557    0.200598   -2.037134
 ---------------------------------------------------------------------

 SCF Done:  E(RB3LYP) =  -423.098316512     A.U. after    1 cycles

 The electronic state is 1-A.
 Alpha  occ. eigenvalues --  -19.13812 -19.12692 -10.23254 -10.21608 -10.20212
 Alpha  occ. eigenvalues --  -10.20052 -10.19534 -10.19315 -10.18353  -1.02286
 Alpha  occ. eigenvalues --   -1.00690  -0.93436  -0.73793  -0.70303  -0.63620
 Alpha  occ. eigenvalues --   -0.60523  -0.59957  -0.51174  -0.50753  -0.50127
 Alpha  occ. eigenvalues --   -0.47723  -0.46279  -0.43525  -0.42035  -0.39348
 Alpha  occ. eigenvalues --   -0.35320  -0.33883  -0.32895  -0.30838  -0.30430
 Alpha  occ. eigenvalues --   -0.29416  -0.29055  -0.25946  -0.25300
 Alpha virt. eigenvalues --    0.07392   0.07598   0.11596   0.12233   0.12956
 Alpha virt. eigenvalues --    0.13585   0.14295   0.15540   0.15821   0.16952
 Alpha virt. eigenvalues --    0.17689   0.18589   0.18803   0.19303   0.20005

 Mulliken charges:
               1
     1  O   -0.414781
     2  C   -0.213171
     3  C    0.353409
     4  C   -0.328129
     5  C   -0.057921
     6  C   -0.150394
     7  C    0.112118
     8  O   -0.437707
     9  C   -0.096565
    10  H    0.281572
    11  H    0.131964
    12  H    0.078172
    13  H    0.089181
    14  H    0.090452
    15  H    0.071905
    16  H    0.066210
    17  H    0.061705
    18  H    0.283346
    19  H    0.078634
 Sum of Mulliken charges =   0.00000

 Dipole moment (field-independent basis, Debye):
    X=             -1.3613    Y=              1.6759    Z=              1.5440  Tot=              2.6544
 Quadrupole moment (field-independent basis, Debye-Ang):
   XX=            -49.5398   YY=            -55.2700   ZZ=            -52.3031
   XY=              5.5332   XZ=             -0.7889   YZ=             -3.5456

  Exact polarizability:  81.782   3.318  77.452  -0.576  -1.462  67.945
 Approx polarizability: 113.052   3.203 112.707  -3.158  -0.464 108.040

                      1                      2                      3
                      A                      A                      A
 Frequencies --     82.2528               159.6693               194.0685
 Red. masses --      3.7505                 3.7959                 3.1978
 Frc consts  --      0.0149                 0.0570                 0.0710
 IR Inten    --      1.5557                 0.3769                 4.6399

                      4                      5                      6
                      A                      A                      A
 Frequencies --    262.1708               268.9754               306.5264
 Red. masses --      1.8068                 1.1279                 1.9218
 Frc consts  --      0.0732                 0.0481                 0.1064
 IR Inten    --     65.0505                34.7255               115.0507

                      7                      8                      9
                      A                      A                      A
 Frequencies --    349.2114               425.7815               448.7888
 Red. masses --      2.0295                 3.9472                 2.1089
 Frc consts  --      0.1458                 0.4216                 0.2503
 IR Inten    --     19.1797                 5.3772                 4.6295

                     10                     11                     12
                      A                      A                      A
 Frequencies --    556.1256               678.4262               741.3580
 Red. masses --      4.8881                 3.6365                 3.1728
 Frc consts  --      0.8907                 0.9861                 1.0274
 IR Inten    --      4.5370                 2.8395                 2.2673

                     13                     14                     15
                      A                      A                      A
 Frequencies --    780.4854               846.4739               875.1758
 Red. masses --      3.7327                 2.0002                 1.9690
 Frc consts  --      1.3397                 0.8444                 0.8886
 IR Inten    --      3.3103                 0.7681                 0.0986

                     16                     17                     18
                      A                      A                      A
 Frequencies --    899.2827               909.4990               926.7955
 Red. masses --      2.0069                 1.9612                 2.1233
 Frc consts  --      0.9562                 0.9558                 1.0746
 IR Inten    --      7.1200                 6.2080                 8.5737

                     19                     20                     21
                      A                      A                      A
 Frequencies --    941.8855              1006.6624              1042.0514
 Red. masses --      1.9949                 1.3201                 2.5558
 Frc consts  --      1.0427                 0.7882                 1.6352
 IR Inten    --      5.7252                 0.3273                 0.7750

                     22                     23                     24
                      A                      A                      A
 Frequencies --   1049.7478              1061.9306              1090.7840
 Red. masses --      2.9377                 1.3170                 2.8658
 Frc consts  --      1.9074                 0.8750                 2.0090
 IR Inten    --    100.5514                12.8320                13.1421

                     25                     26                     27
                      A                      A                      A
 Frequencies --   1098.0282              1109.3517              1137.8783
 Red. masses --      2.7327                 1.9653                 1.4087
 Frc consts  --      1.9412                 1.4250                 1.0746
 IR Inten    --     58.1757                20.2597                 6.0107

                     28                     29                     30
                      A                      A                      A
 Frequencies --   1145.2646              1186.0593              1196.7772
 Red. masses --      1.5812                 1.7104                 1.4290
 Frc consts  --      1.2220                 1.4176                 1.2059
 IR Inten    --      1.6098                 1.8095                17.9015

                     31                     32                     33
                      A                      A                      A
 Frequencies --   1208.3070              1235.7568              1255.6108
 Red. masses --      1.5199                 1.6293                 1.8065
 Frc consts  --      1.3074                 1.4659                 1.6780
 IR Inten    --     16.7609                19.5596                43.9130

                     34                     35                     36
                      A                      A                      A
 Frequencies --   1295.2718              1306.2786              1342.2026
 Red. masses --      2.0482                 1.4821                 2.2412
 Frc consts  --      2.0246                 1.4901                 2.3789
 IR Inten    --     16.9003                39.2421                 8.1761

                     37                     38                     39
                      A                      A                      A
 Frequencies --   1374.8727              1413.9960              1437.5147
 Red. masses --      1.3271                 1.3742                 1.4694
 Frc consts  --      1.4781                 1.6188                 1.7890
 IR Inten    --      1.3656                43.3174                10.8049

                     40                     41                     42
                      A                      A                      A
 Frequencies --   1501.6840              1510.4872              2958.9738
 Red. masses --      1.0798                 1.1652                 1.0721
 Frc consts  --      1.4347                 1.5663                 5.5307
 IR Inten    --      2.3666                 0.0559                67.5259

                     43                     44                     45
                      A                      A                      A
 Frequencies --   2989.8647              3025.8772              3082.5164
 Red. masses --      1.0838                 1.0541                 1.1093
 Frc consts  --      5.7083                 5.6864                 6.2105
 IR Inten    --     83.2234                54.9055                35.1563

                     46                     47                     48
                      A                      A                      A
 Frequencies --   3090.4931              3106.7033              3111.4314
 Red. masses --      1.0888                 1.0898                 1.0897
 Frc consts  --      6.1272                 6.1975                 6.2156
 IR Inten    --     51.6922                65.7537                 6.7469

                     49                     50                     51
                      A                      A                      A
 Frequencies --   3120.5465              3813.4505              3818.7549
 Red. masses --      1.0939                 1.0660                 1.0662
 Frc consts  --      6.2760                 9.1341                 9.1605
 IR Inten    --     32.4921                12.9264                25.9467

 - Thermochemistry -
 -------------------
 Temperature   298.150 Kelvin.  Pressure   1.00000 Atm.
 Atom     1 has atomic number  8 and mass  15.99491

 Molecular mass:   126.06808 amu.
 Principal axes and moments of inertia in atomic units:
                           1         2         3
     Eigenvalues --   765.129401080.427111551.91480
           X            0.99961   0.02748   0.00482
           Y           -0.02739   0.99946  -0.01800
           Z           -0.00532   0.01786   0.99983
 This molecule is an asymmetric top.
 Rotational symmetry number  1.
 Warning -- assumption of classical behavior for rotation
           may cause significant error
 Rotational temperatures (Kelvin)      0.11320     0.08017     0.05581
 Rotational constants (GHZ):           2.35874     1.67040     1.16291
 Zero-point vibrational energy     417365.6 (Joules/Mol)
                                   99.75278 (Kcal/Mol)
 Warning -- explicit consideration of  10 degrees of freedom as
           vibrations may cause significant error
 Vibrational temperatures:    118.34   229.73   279.22   377.20   387.00
          (Kelvin)            441.02   502.44   612.60   645.71   800.14
                              976.10  1066.65  1122.94  1217.89  1259.18
                             1293.87  1308.56  1333.45  1355.16  1448.36
                             1499.28  1510.35  1527.88  1569.39  1579.82
                             1596.11  1637.15  1647.78  1706.47  1721.89
                             1738.48  1777.98  1806.54  1863.60  1879.44
                             1931.13  1978.13  2034.42  2068.26  2160.59
                             2173.25  4257.30  4301.74  4353.56  4435.05
                             4446.52  4469.85  4476.65  4489.76  5486.70
                             5494.33

 Zero-point correction=                           0.158966 (Hartree/Particle)
 Thermal correction to Energy=                    0.167220
 Thermal correction to Enthalpy=                  0.168164
 Thermal correction to Gibbs Free Energy=         0.126232
 Sum of electronic and zero-point Energies=           -422.939350
 Sum of electronic and thermal Energies=              -422.931097
 Sum of electronic and thermal Enthalpies=            -422.930153
 Sum of electronic and thermal Free Energies=         -422.972085

                     E (Thermal)             CV                S
                      KCal/Mol        Cal/Mol-Kelvin    Cal/Mol-Kelvin
 Total                  104.932             32.127             88.254
 Electronic               0.000              0.000              0.000
 Translational            0.889              2.981             40.409
 Rotational               0.889              2.981             28.641
 Vibrational            103.154             26.166             19.204
 Vibration     1          0.600              1.961              3.836
 Vibration     2          0.622              1.892              2.554
 Vibration     3          0.635              1.848              2.189
 Vibration     4          0.669              1.742              1.647
 Vibration     5          0.673              1.730              1.603
 Vibration     6          0.697              1.661              1.381
 Vibration     7          0.726              1.577              1.170
 Vibration     8          0.788              1.414              0.873
 Vibration     9          0.808              1.364              0.799
 Vibration    10          0.912              1.126              0.532

 Normal termination of Gaussian 09 at Tue Jan 28 10:44:50 2020.
