 Gaussian 09, Revision D.01,
 Gaussian 09:  ES64L-G09RevD.01 24-Apr-2013

 -----------------------------
 # b3lyp 6-31G(2df,p) opt Freq
 -----------------------------

 -----
 titel
 -----
 Symbolic Z-matrix:
 Charge =  0 Multiplicity = 1

 SCF Done:  E(RB3LYP) =  -423.157911679     A.U. after   13 cycles
 Optimization completed.
    -- Stationary point found.
 Normal termination of Gaussian 09 at Mon Jan 27 22:03:25 2020.

 ----------------------------------------------------------------------
 #N Geom=AllCheck Guess=TCheck SCRF=Check GenChk RB3LYP/6-31G(2df,p) Fr
 eq
 ----------------------------------------------------------------------

 Structure from the checkpoint file:  "/scratch/puck/g09_01625337-63e8-4c23-aaa5-57b58fb5fa2e/Gau-176390.chk"
 -----
 titel
 -----
 Charge =  0 Multiplicity = 1

                         Standard orientation:
 ---------------------------------------------------------------------
 Center     Atomic      Atomic             Coordinates (Angstroms)
 Number     Number       Type             X           Y           Z
 ---------------------------------------------------------------------
      1          8           0        2.634386   -0.612610   -0.269935
      2          6           0        1.349837   -0.081900   -0.524154
      3          6           0        0.216908   -1.073624   -0.274298
      4          6           0       -0.119004   -0.395668    1.060742
      5          6           0        0.774522    0.805522    0.633274
      6          6           0       -0.191742    1.874449    0.098093
      7          6           0       -1.309540    1.052990   -0.598572
      8          6           0       -1.116825   -0.363278   -0.050585
      9          8           0       -2.231493   -1.191036    0.082640
     10          1           0        2.583295   -1.109252    0.555390
     11          1           0        1.424175    0.389223   -1.510948
     12          1           0        0.229699   -2.131644   -0.515905
     13          1           0       -0.302606   -0.813497    2.041472
     14          1           0        1.536038    1.167105    1.325022
     15          1           0       -0.609367    2.452517    0.928908
     16          1           0        0.306370    2.577986   -0.576254
     17          1           0       -2.309351    1.407023   -0.331530
     18          1           0       -1.231339    1.087358   -1.691170
     19          1           0       -2.474995   -1.508594   -0.793631
 ---------------------------------------------------------------------

 SCF Done:  E(RB3LYP) =  -423.157911679     A.U. after    1 cycles

 The electronic state is 1-A.
 Alpha  occ. eigenvalues --  -19.14671 -19.13289 -10.24030 -10.22975 -10.18744
 Alpha  occ. eigenvalues --  -10.18699 -10.18681 -10.18262 -10.18101  -1.03437
 Alpha  occ. eigenvalues --   -1.01709  -0.89860  -0.76182  -0.71713  -0.65599
 Alpha  occ. eigenvalues --   -0.60216  -0.57405  -0.54481  -0.52307  -0.48806
 Alpha  occ. eigenvalues --   -0.46872  -0.45287  -0.42297  -0.41422  -0.38822
 Alpha  occ. eigenvalues --   -0.37780  -0.36913  -0.34626  -0.33663  -0.31512
 Alpha  occ. eigenvalues --   -0.30035  -0.26631  -0.25805  -0.24259
 Alpha virt. eigenvalues --    0.07159   0.08923   0.09598   0.10527   0.11243
 Alpha virt. eigenvalues --    0.13619   0.15047   0.15322   0.17126   0.17497
 Alpha virt. eigenvalues --    0.17764   0.18824   0.20941   0.22525   0.23089

 Mulliken charges:
               1
     1  O   -0.440465
     2  C    0.141949
     3  C   -0.179622
     4  C   -0.144846
     5  C   -0.089050
     6  C   -0.216840
     7  C   -0.300277
     8  C    0.421692
     9  O   -0.482759
    10  H    0.276824
    11  H    0.076585
    12  H    0.083686
    13  H    0.092965
    14  H    0.071042
    15  H    0.102551
    16  H    0.099652
    17  H    0.107510
    18  H    0.095808
    19  H    0.283595
 Sum of Mulliken charges =   0.00000

 Dipole moment (field-independent basis, Debye):
    X=             -0.8710    Y=              0.0048    Z=             -0.1748  Tot=              0.8884
 Quadrupole moment (field-independent basis, Debye-Ang):
   XX=            -59.1941   YY=            -51.0053   ZZ=            -50.3738
   XY=             -0.2637   XZ=              6.7103   YZ=              0.7954

  Exact polarizability:  79.517  -0.548  74.824   2.302   0.126  67.443
 Approx polarizability: 112.464  -0.209 105.654   1.024   1.036 108.526

                      1                      2                      3
                      A                      A                      A
 Frequencies --    152.2377               219.9819               255.7161
 Red. masses --      3.2216                 2.3239                 1.7989
 Frc consts  --      0.0440                 0.0663                 0.0693
 IR Inten    --      5.4835                 5.5398                27.4822

                      4                      5                      6
                      A                      A                      A
 Frequencies --    297.3042               318.8692               369.8986
 Red. masses --      1.4395                 1.8681                 1.7109
 Frc consts  --      0.0750                 0.1119                 0.1379
 IR Inten    --     24.6969                39.0759                80.4904

                      7                      8                      9
                      A                      A                      A
 Frequencies --    399.9892               401.1726               478.0748
 Red. masses --      3.7980                 3.4011                 3.3996
 Frc consts  --      0.3580                 0.3225                 0.4578
 IR Inten    --      4.2853                13.6181                 2.3704

                     10                     11                     12
                      A                      A                      A
 Frequencies --    575.6924               641.4759               747.8078
 Red. masses --      4.4119                 3.1787                 3.3788
 Frc consts  --      0.8615                 0.7707                 1.1132
 IR Inten    --      1.5015                 0.0179                 1.2094

                     13                     14                     15
                      A                      A                      A
 Frequencies --    790.8913               840.9086               863.7771
 Red. masses --      3.6755                 1.8052                 1.3433
 Frc consts  --      1.3546                 0.7521                 0.5905
 IR Inten    --      8.8633                 4.7545                 6.2251

                     16                     17                     18
                      A                      A                      A
 Frequencies --    872.3252               894.1236               922.6589
 Red. masses --      1.8696                 2.2392                 2.4942
 Frc consts  --      0.8382                 1.0547                 1.2510
 IR Inten    --      5.2838                14.1130                 1.8868

                     19                     20                     21
                      A                      A                      A
 Frequencies --    951.6797               972.7685               988.7676
 Red. masses --      2.0178                 1.9008                 1.8258
 Frc consts  --      1.0767                 1.0597                 1.0517
 IR Inten    --     12.0102                 6.9161                 0.8618

                     22                     23                     24
                      A                      A                      A
 Frequencies --   1021.8357              1050.1295              1063.1201
 Red. masses --      2.3133                 2.1915                 1.9442
 Frc consts  --      1.4232                 1.4239                 1.2946
 IR Inten    --      1.1843                 4.7384                21.8856

                     25                     26                     27
                      A                      A                      A
 Frequencies --   1082.5390              1133.9249              1143.1147
 Red. masses --      2.6601                 1.2223                 2.2021
 Frc consts  --      1.8367                 0.9260                 1.6954
 IR Inten    --    124.3703                 8.7062                11.7476

                     28                     29                     30
                      A                      A                      A
 Frequencies --   1198.6167              1204.8575              1234.6303
 Red. masses --      1.4803                 1.5753                 1.5475
 Frc consts  --      1.2530                 1.3474                 1.3898
 IR Inten    --      0.8513                 7.5668                 6.8583

                     31                     32                     33
                      A                      A                      A
 Frequencies --   1244.7352              1268.0720              1278.0831
 Red. masses --      1.4375                 2.3131                 1.5915
 Frc consts  --      1.3122                 2.1914                 1.5317
 IR Inten    --     22.1412                56.1558                20.3417

                     34                     35                     36
                      A                      A                      A
 Frequencies --   1291.1790              1303.1041              1326.9980
 Red. masses --      1.5161                 1.5143                 1.8321
 Frc consts  --      1.4892                 1.5151                 1.9008
 IR Inten    --      7.4275                55.5819                 2.1781

                     37                     38                     39
                      A                      A                      A
 Frequencies --   1346.3182              1433.2174              1435.3018
 Red. masses --      1.6373                 1.5361                 1.9286
 Frc consts  --      1.7485                 1.8591                 2.3409
 IR Inten    --     16.1951                30.0501                61.0114

                     40                     41                     42
                      A                      A                      A
 Frequencies --   1487.5948              1508.9951              3036.5962
 Red. masses --      1.0954                 1.1080                 1.0640
 Frc consts  --      1.4282                 1.4866                 5.7802
 IR Inten    --      1.1338                 1.6413                25.1797

                     43                     44                     45
                      A                      A                      A
 Frequencies --   3042.8469              3047.2779              3080.3274
 Red. masses --      1.0745                 1.0716                 1.0999
 Frc consts  --      5.8617                 5.8629                 6.1487
 IR Inten    --     28.9181                62.7979                10.2320

                     46                     47                     48
                      A                      A                      A
 Frequencies --   3096.7438              3110.8434              3164.6079
 Red. masses --      1.1043                 1.0890                 1.0912
 Frc consts  --      6.2395                 6.2095                 6.4388
 IR Inten    --     42.2194                26.3037                16.8400

                     49                     50                     51
                      A                      A                      A
 Frequencies --   3205.0159              3786.1437              3798.8847
 Red. masses --      1.0958                 1.0654                 1.0662
 Frc consts  --      6.6318                 8.9980                 9.0653
 IR Inten    --      7.9113                11.4140                21.6861

 - Thermochemistry -
 -------------------
 Temperature   298.150 Kelvin.  Pressure   1.00000 Atm.
 Atom     1 has atomic number  8 and mass  15.99491

 Molecular mass:   126.06808 amu.
 Principal axes and moments of inertia in atomic units:
                           1         2         3
     Eigenvalues --   633.030311154.229291488.56676
           X            0.99969  -0.01570   0.01933
           Y            0.01583   0.99985  -0.00630
           Z           -0.01923   0.00660   0.99979
 This molecule is an asymmetric top.
 Rotational symmetry number  1.
 Warning -- assumption of classical behavior for rotation
           may cause significant error
 Rotational temperatures (Kelvin)      0.13682     0.07504     0.05819
 Rotational constants (GHZ):           2.85096     1.56359     1.21240
 Zero-point vibrational energy     420976.5 (Joules/Mol)
                                  100.61580 (Kcal/Mol)
 Warning -- explicit consideration of  10 degrees of freedom as
           vibrations may cause significant error
 Vibrational temperatures:    219.04   316.50   367.92   427.75   458.78
          (Kelvin)            532.20   575.49   577.20   687.84   828.29
                              922.94  1075.93  1137.91  1209.88  1242.78
                             1255.08  1286.44  1327.50  1369.25  1399.60
                             1422.61  1470.19  1510.90  1529.59  1557.53
                             1631.46  1644.68  1724.54  1733.52  1776.36
                             1790.89  1824.47  1838.87  1857.72  1874.87
                             1909.25  1937.05  2062.08  2065.08  2140.31
                             2171.10  4368.98  4377.97  4384.35  4431.90
                             4455.52  4475.80  4553.16  4611.30  5447.41
                             5465.74

 Zero-point correction=                           0.160341 (Hartree/Particle)
 Thermal correction to Energy=                    0.168061
 Thermal correction to Enthalpy=                  0.169005
 Thermal correction to Gibbs Free Energy=         0.128691
 Sum of electronic and zero-point Energies=           -422.997570
 Sum of electronic and thermal Energies=              -422.989851
 Sum of electronic and thermal Enthalpies=            -422.988906
 Sum of electronic and thermal Free Energies=         -423.029221

                     E (Thermal)             CV                S
                      KCal/Mol        Cal/Mol-Kelvin    Cal/Mol-Kelvin
 Total                  105.460             31.611             84.849
 Electronic               0.000              0.000              0.000
 Translational            0.889              2.981             40.409
 Rotational               0.889              2.981             28.477
 Vibrational            103.682             25.649             15.963
 Vibration     1          0.619              1.900              2.644
 Vibration     2          0.647              1.811              1.959
 Vibration     3          0.666              1.753              1.691
 Vibration     4          0.691              1.679              1.432
 Vibration     5          0.705              1.637              1.316
 Vibration     6          0.742              1.534              1.080
 Vibration     7          0.766              1.470              0.963
 Vibration     8          0.767              1.468              0.958
 Vibration     9          0.835              1.299              0.715
 Vibration    10          0.932              1.084              0.493

 Optimization completed.
    -- Stationary point found.
 Normal termination of Gaussian 09 at Mon Jan 27 22:56:35 2020.
