 Gaussian 09, Revision D.01,
 Gaussian 09:  ES64L-G09RevD.01 24-Apr-2013

 -----------------------------
 # b3lyp 6-31G(2df,p) opt Freq
 -----------------------------

 -----
 titel
 -----
 Symbolic Z-matrix:
 Charge =  0 Multiplicity = 1

 SCF Done:  E(RB3LYP) =  -423.179730264     A.U. after   14 cycles
 Optimization completed.
    -- Stationary point found.
 Normal termination of Gaussian 09 at Mon Jan 27 23:02:01 2020.

 ----------------------------------------------------------------------
 #N Geom=AllCheck Guess=TCheck SCRF=Check GenChk RB3LYP/6-31G(2df,p) Fr
 eq
 ----------------------------------------------------------------------

 Structure from the checkpoint file:  "/scratch/puck/g09_3d40b7d6-be3d-40cd-a676-45ffb3ef0403/Gau-101486.chk"
 -----
 titel
 -----
 Charge =  0 Multiplicity = 1

                         Standard orientation:
 ---------------------------------------------------------------------
 Center     Atomic      Atomic             Coordinates (Angstroms)
 Number     Number       Type             X           Y           Z
 ---------------------------------------------------------------------
      1          8           0       -1.806658   -1.287730   -0.552784
      2          6           0       -0.547319   -0.672971   -0.688152
      3          6           0        0.481634   -1.211482    0.345634
      4          6           0       -0.137860   -0.205741    1.366642
      5          6           0       -0.466493    0.661682    0.124791
      6          8           0       -1.640148    1.436719    0.199450
      7          6           0        0.784240    1.397474   -0.297540
      8          6           0        1.917004    0.700635   -0.389635
      9          6           0        1.901636   -0.776777   -0.060307
     10          1           0       -2.444667   -0.569154   -0.444666
     11          1           0       -0.232224   -0.635863   -1.740388
     12          1           0        0.417253   -2.274824    0.580197
     13          1           0       -1.045412   -0.614149    1.811440
     14          1           0        0.504695    0.236912    2.130243
     15          1           0       -1.663612    2.030357   -0.560060
     16          1           0        0.725372    2.463783   -0.500049
     17          1           0        2.854540    1.165558   -0.679841
     18          1           0        2.245498   -1.360567   -0.925717
     19          1           0        2.615946   -0.990883    0.746917
 ---------------------------------------------------------------------

 SCF Done:  E(RB3LYP) =  -423.179730264     A.U. after    1 cycles

 The electronic state is 1-A.
 Alpha  occ. eigenvalues --  -19.15457 -19.12783 -10.23914 -10.22045 -10.18927
 Alpha  occ. eigenvalues --  -10.18707 -10.18658 -10.18498 -10.17627  -1.04119
 Alpha  occ. eigenvalues --   -1.00860  -0.86518  -0.76163  -0.72446  -0.65181
 Alpha  occ. eigenvalues --   -0.60698  -0.58121  -0.53422  -0.52760  -0.47710
 Alpha  occ. eigenvalues --   -0.47284  -0.44283  -0.43604  -0.41966  -0.38965
 Alpha  occ. eigenvalues --   -0.38508  -0.36247  -0.34307  -0.33393  -0.32197
 Alpha  occ. eigenvalues --   -0.31307  -0.27392  -0.25594  -0.23570
 Alpha virt. eigenvalues --    0.00986   0.07060   0.09318   0.11847   0.12409
 Alpha virt. eigenvalues --    0.14477   0.15100   0.16174   0.16622   0.17130
 Alpha virt. eigenvalues --    0.18198   0.19898   0.20398   0.20875   0.23946

 Mulliken charges:
               1
     1  O   -0.463319
     2  C    0.118289
     3  C   -0.056725
     4  C   -0.262050
     5  C    0.350095
     6  O   -0.507288
     7  C   -0.141743
     8  C   -0.067992
     9  C   -0.270333
    10  H    0.282935
    11  H    0.053780
    12  H    0.076615
    13  H    0.114305
    14  H    0.093519
    15  H    0.280021
    16  H    0.086110
    17  H    0.093650
    18  H    0.110346
    19  H    0.109785
 Sum of Mulliken charges =   0.00000

 Dipole moment (field-independent basis, Debye):
    X=              1.2228    Y=              1.5658    Z=             -0.7921  Tot=              2.1388
 Quadrupole moment (field-independent basis, Debye-Ang):
   XX=            -52.0365   YY=            -52.8767   ZZ=            -53.3805
   XY=             -3.6793   XZ=              1.3263   YZ=             -4.0810

  Exact polarizability:  86.467  -4.344  76.433  -2.028  -2.896  62.741
 Approx polarizability: 128.516 -11.996 114.289  -3.427  -2.310  95.703

                      1                      2                      3
                      A                      A                      A
 Frequencies --    210.7382               223.6128               262.7039
 Red. masses --      3.8185                 3.0303                 2.5859
 Frc consts  --      0.0999                 0.0893                 0.1051
 IR Inten    --      1.6740                 9.4266                 0.0507

                      4                      5                      6
                      A                      A                      A
 Frequencies --    297.0052               338.7005               369.6493
 Red. masses --      1.5705                 2.0260                 3.8134
 Frc consts  --      0.0816                 0.1369                 0.3070
 IR Inten    --     28.5248                20.9204                15.9179

                      7                      8                      9
                      A                      A                      A
 Frequencies --    418.2593               448.3228               481.0459
 Red. masses --      2.2684                 1.2397                 2.2655
 Frc consts  --      0.2338                 0.1468                 0.3089
 IR Inten    --      4.2445               102.6701                 9.4857

                     10                     11                     12
                      A                      A                      A
 Frequencies --    508.0155               551.1078               648.9752
 Red. masses --      3.3475                 3.9665                 4.5791
 Frc consts  --      0.5090                 0.7098                 1.1363
 IR Inten    --      3.6529                 3.5178                 2.6672

                     13                     14                     15
                      A                      A                      A
 Frequencies --    700.3992               747.2135               833.4106
 Red. masses --      1.4830                 3.1697                 2.7211
 Frc consts  --      0.4286                 1.0427                 1.1136
 IR Inten    --     24.9315                 2.3405                 0.2779

                     16                     17                     18
                      A                      A                      A
 Frequencies --    865.5532               907.2640               927.9965
 Red. masses --      2.3426                 3.7842                 2.0757
 Frc consts  --      1.0340                 1.8352                 1.0532
 IR Inten    --      2.9872                14.5530                 0.6561

                     19                     20                     21
                      A                      A                      A
 Frequencies --    965.9382               973.0367               988.8732
 Red. masses --      1.2674                 2.0386                 2.6351
 Frc consts  --      0.6967                 1.1372                 1.5182
 IR Inten    --      4.2588                 5.4250                34.5302

                     22                     23                     24
                      A                      A                      A
 Frequencies --   1016.6756              1028.2223              1074.1352
 Red. masses --      2.0846                 2.2376                 1.2961
 Frc consts  --      1.2695                 1.3938                 0.8810
 IR Inten    --      8.6734                 2.6691                 6.3620

                     25                     26                     27
                      A                      A                      A
 Frequencies --   1112.2329              1140.1103              1152.0697
 Red. masses --      2.7157                 1.7747                 1.1639
 Frc consts  --      1.9794                 1.3591                 0.9102
 IR Inten    --     72.7297                31.4330                11.4848

                     28                     29                     30
                      A                      A                      A
 Frequencies --   1171.8346              1201.6317              1227.0041
 Red. masses --      1.2965                 1.4143                 1.9819
 Frc consts  --      1.0489                 1.2032                 1.7580
 IR Inten    --     17.4708                33.1188                16.9312

                     31                     32                     33
                      A                      A                      A
 Frequencies --   1258.7161              1274.0682              1293.0750
 Red. masses --      1.9847                 1.5453                 1.6060
 Frc consts  --      1.8527                 1.4779                 1.5822
 IR Inten    --     71.4284                 3.3159                 0.5595

                     34                     35                     36
                      A                      A                      A
 Frequencies --   1347.9540              1354.8695              1376.0064
 Red. masses --      1.4490                 1.4186                 1.5304
 Frc consts  --      1.5512                 1.5342                 1.7072
 IR Inten    --     15.1860                44.9418                29.2344

                     37                     38                     39
                      A                      A                      A
 Frequencies --   1387.1323              1400.2541              1471.5042
 Red. masses --      1.5206                 1.6142                 1.1027
 Frc consts  --      1.7238                 1.8647                 1.4067
 IR Inten    --     19.8457                21.3186                 1.7961

                     40                     41                     42
                      A                      A                      A
 Frequencies --   1486.6739              1697.1174              3000.1244
 Red. masses --      1.1278                 6.7081                 1.0847
 Frc consts  --      1.4687                11.3834                 5.7522
 IR Inten    --      5.4053                 5.0435                59.0735

                     43                     44                     45
                      A                      A                      A
 Frequencies --   3006.2581              3030.3149              3077.1126
 Red. masses --      1.0601                 1.1014                 1.0586
 Frc consts  --      5.6449                 5.9588                 5.9054
 IR Inten    --     43.0923                23.1771                27.8017

                     46                     47                     48
                      A                      A                      A
 Frequencies --   3102.5374              3146.3294              3153.5203
 Red. masses --      1.0885                 1.1078                 1.0850
 Frc consts  --      6.1730                 6.4613                 6.3573
 IR Inten    --     30.6252                16.0217                 7.0336

                     49                     50                     51
                      A                      A                      A
 Frequencies --   3180.1864              3744.2615              3791.2394
 Red. masses --      1.0991                 1.0656                 1.0658
 Frc consts  --      6.5493                 8.8020                 9.0262
 IR Inten    --     24.4242                44.0338                16.1729

 - Thermochemistry -
 -------------------
 Temperature   298.150 Kelvin.  Pressure   1.00000 Atm.
 Atom     1 has atomic number  8 and mass  15.99491

 Molecular mass:   126.06808 amu.
 Principal axes and moments of inertia in atomic units:
                           1         2         3
     Eigenvalues --   706.402461008.445921343.54213
           X            0.99953  -0.03044  -0.00266
           Y            0.03034   0.99897  -0.03382
           Z            0.00369   0.03373   0.99942
 This molecule is an asymmetric top.
 Rotational symmetry number  1.
 Warning -- assumption of classical behavior for rotation
           may cause significant error
 Rotational temperatures (Kelvin)      0.12261     0.08589     0.06447
 Rotational constants (GHZ):           2.55483     1.78963     1.34327
 Zero-point vibrational energy     420912.0 (Joules/Mol)
                                  100.60038 (Kcal/Mol)
 Warning -- explicit consideration of  11 degrees of freedom as
           vibrations may cause significant error
 Vibrational temperatures:    303.20   321.73   377.97   427.32   487.31
          (Kelvin)            531.84   601.78   645.04   692.12   730.92
                              792.92   933.73  1007.72  1075.07  1199.09
                             1245.34  1305.35  1335.18  1389.77  1399.98
                             1422.77  1462.77  1479.38  1545.44  1600.25
                             1640.36  1657.57  1686.01  1728.88  1765.38
                             1811.01  1833.10  1860.44  1939.40  1949.35
                             1979.76  1995.77  2014.65  2117.16  2138.99
                             2441.77  4316.50  4325.33  4359.94  4427.27
                             4463.85  4526.86  4537.21  4575.57  5387.15
                             5454.74

 Zero-point correction=                           0.160317 (Hartree/Particle)
 Thermal correction to Energy=                    0.168026
 Thermal correction to Enthalpy=                  0.168971
 Thermal correction to Gibbs Free Energy=         0.128925
 Sum of electronic and zero-point Energies=           -423.019413
 Sum of electronic and thermal Energies=              -423.011704
 Sum of electronic and thermal Enthalpies=            -423.010760
 Sum of electronic and thermal Free Energies=         -423.050806

                     E (Thermal)             CV                S
                      KCal/Mol        Cal/Mol-Kelvin    Cal/Mol-Kelvin
 Total                  105.438             32.057             84.284
 Electronic               0.000              0.000              0.000
 Translational            0.889              2.981             40.409
 Rotational               0.889              2.981             28.350
 Vibrational            103.661             26.095             15.525
 Vibration     1          0.643              1.824              2.037
 Vibration     2          0.649              1.805              1.930
 Vibration     3          0.670              1.741              1.644
 Vibration     4          0.691              1.679              1.434
 Vibration     5          0.719              1.598              1.218
 Vibration     6          0.742              1.535              1.081
 Vibration     7          0.781              1.431              0.898
 Vibration     8          0.807              1.365              0.801
 Vibration     9          0.837              1.292              0.707
 Vibration    10          0.863              1.232              0.638
 Vibration    11          0.906              1.137              0.542

 Optimization completed.
    -- Stationary point found.
 Normal termination of Gaussian 09 at Mon Jan 27 23:47:56 2020.
