 Gaussian 09, Revision D.01,
 Gaussian 09:  ES64L-G09RevD.01 24-Apr-2013

 -----------------------------
 # b3lyp 6-31G(2df,p) opt Freq
 -----------------------------

 -----
 titel
 -----
 Symbolic Z-matrix:
 Charge =  0 Multiplicity = 1

 SCF Done:  E(RB3LYP) =  -423.120057162     A.U. after   12 cycles
 Optimization completed.
    -- Stationary point found.
 Normal termination of Gaussian 09 at Mon Jan 27 17:51:27 2020.

 ----------------------------------------------------------------------
 #N Geom=AllCheck Guess=TCheck SCRF=Check GenChk RB3LYP/6-31G(2df,p) Fr
 eq
 ----------------------------------------------------------------------

 Structure from the checkpoint file:  "/scratch/puck/g09_97e43ed3-4502-488d-b753-fba826c3eb75/Gau-67529.chk"
 -----
 titel
 -----
 Charge =  0 Multiplicity = 1

                         Standard orientation:
 ---------------------------------------------------------------------
 Center     Atomic      Atomic             Coordinates (Angstroms)
 Number     Number       Type             X           Y           Z
 ---------------------------------------------------------------------
      1          6           0       -1.266755    1.891621   -0.002599
      2          6           0       -0.966648    0.425665    0.104065
      3          6           0       -1.852318   -0.574418    0.835822
      4          6           0       -1.509284   -0.791462   -0.604508
      5          8           0       -0.215365   -1.398791   -0.712614
      6          6           0        0.395287   -0.241941   -0.101470
      7          6           0        1.446176   -0.448503    1.001643
      8          8           0        2.409120    0.348554    0.279282
      9          6           0        1.543952    0.435545   -0.871409
     10          1           0       -0.830760    2.332132   -0.905400
     11          1           0       -2.346953    2.063392   -0.039226
     12          1           0       -0.876631    2.443179    0.861039
     13          1           0       -1.447391   -1.249749    1.584962
     14          1           0       -2.856679   -0.212937    1.037079
     15          1           0       -2.205291   -0.928364   -1.423589
     16          1           0        1.213816   -0.031047    1.988785
     17          1           0        1.763438   -1.493703    1.106803
     18          1           0        1.394844    1.470843   -1.198783
     19          1           0        1.899103   -0.170882   -1.714281
 ---------------------------------------------------------------------

 SCF Done:  E(RB3LYP) =  -423.120057162     A.U. after    1 cycles

 The electronic state is 1-A.
 Alpha  occ. eigenvalues --  -19.14366 -19.13303 -10.24646 -10.24197 -10.22800
 Alpha  occ. eigenvalues --  -10.22677 -10.20759 -10.19368 -10.19133  -1.06353
 Alpha  occ. eigenvalues --   -1.03247  -0.84440  -0.74493  -0.71246  -0.69300
 Alpha  occ. eigenvalues --   -0.61284  -0.59655  -0.52819  -0.51370  -0.48861
 Alpha  occ. eigenvalues --   -0.46795  -0.45000  -0.44453  -0.42080  -0.41369
 Alpha  occ. eigenvalues --   -0.40183  -0.39344  -0.36810  -0.34087  -0.33593
 Alpha  occ. eigenvalues --   -0.30100  -0.26832  -0.25023  -0.23792
 Alpha virt. eigenvalues --    0.07318   0.07988   0.08605   0.11075   0.12111
 Alpha virt. eigenvalues --    0.12616   0.13265   0.13931   0.14526   0.16620
 Alpha virt. eigenvalues --    0.17704   0.18916   0.19062   0.21105   0.21597

 Mulliken charges:
               1
     1  C   -0.498301
     2  C    0.186897
     3  C   -0.348784
     4  C    0.056973
     5  O   -0.325110
     6  C    0.329441
     7  C   -0.131045
     8  O   -0.275311
     9  C   -0.140354
    10  H    0.125239
    11  H    0.123911
    12  H    0.129253
    13  H    0.116033
    14  H    0.113646
    15  H    0.107189
    16  H    0.103822
    17  H    0.111385
    18  H    0.103877
    19  H    0.111237
 Sum of Mulliken charges =   0.00000

 Dipole moment (field-independent basis, Debye):
    X=             -2.3297    Y=              1.0405    Z=              0.1365  Tot=              2.5551
 Quadrupole moment (field-independent basis, Debye-Ang):
   XX=            -55.7877   YY=            -54.9041   ZZ=            -51.1676
   XY=             -1.9851   XZ=             -0.5390   YZ=             -2.2812

  Exact polarizability:  81.029   0.821  71.735  -1.968  -2.501  71.088
 Approx polarizability: 110.068   3.755 105.826  -1.770  -0.050 107.333

                      1                      2                      3
                      A                      A                      A
 Frequencies --     80.9355               137.0233               179.0262
 Red. masses --      4.1403                 2.7603                 1.1534
 Frc consts  --      0.0160                 0.0305                 0.0218
 IR Inten    --      4.2855                 0.0112                 0.5250

                      4                      5                      6
                      A                      A                      A
 Frequencies --    191.3957               256.7767               333.5601
 Red. masses --      2.3925                 2.0860                 2.7245
 Frc consts  --      0.0516                 0.0810                 0.1786
 IR Inten    --      0.1913                 1.0318                 0.8374

                      7                      8                      9
                      A                      A                      A
 Frequencies --    399.7889               448.6295               477.1829
 Red. masses --      2.2623                 3.6247                 3.0365
 Frc consts  --      0.2130                 0.4298                 0.4074
 IR Inten    --      2.4188                 0.3642                 6.7202

                     10                     11                     12
                      A                      A                      A
 Frequencies --    528.5313               633.6741               804.1927
 Red. masses --      3.4494                 3.0271                 3.0640
 Frc consts  --      0.5677                 0.7162                 1.1675
 IR Inten    --      2.2041                 0.5346                16.4334

                     13                     14                     15
                      A                      A                      A
 Frequencies --    816.4023               866.8251               889.6337
 Red. masses --      2.7449                 2.8417                 2.3810
 Frc consts  --      1.0779                 1.2580                 1.1103
 IR Inten    --      2.9871                 7.2092                26.4764

                     16                     17                     18
                      A                      A                      A
 Frequencies --    896.9530               933.0787               975.5159
 Red. masses --      1.7513                 1.3611                 1.5894
 Frc consts  --      0.8301                 0.6982                 0.8911
 IR Inten    --     17.4849                 0.8219                 4.5092

                     19                     20                     21
                      A                      A                      A
 Frequencies --    990.1571              1001.4166              1027.3970
 Red. masses --      3.4756                 1.5282                 4.5073
 Frc consts  --      2.0077                 0.9030                 2.8031
 IR Inten    --      2.3806                 0.6302                71.3190

                     22                     23                     24
                      A                      A                      A
 Frequencies --   1030.5632              1072.3300              1090.4855
 Red. masses --      2.3624                 1.8625                 2.7443
 Frc consts  --      1.4782                 1.2618                 1.9227
 IR Inten    --     48.2315                37.1553                 8.2506

                     25                     26                     27
                      A                      A                      A
 Frequencies --   1099.3033              1130.5367              1140.6171
 Red. masses --      1.9363                 2.5996                 1.8447
 Frc consts  --      1.3787                 1.9576                 1.4140
 IR Inten    --     13.6696                 5.0099                 0.7583

                     28                     29                     30
                      A                      A                      A
 Frequencies --   1149.3388              1179.0203              1203.5690
 Red. masses --      1.0816                 1.3480                 3.3714
 Frc consts  --      0.8418                 1.1040                 2.8774
 IR Inten    --      0.0471                 5.8639                43.2653

                     31                     32                     33
                      A                      A                      A
 Frequencies --   1270.9756              1296.8571              1313.2274
 Red. masses --      1.8533                 1.3548                 2.6540
 Frc consts  --      1.7638                 1.3425                 2.6967
 IR Inten    --      9.1278                 2.1858                 9.9322

                     34                     35                     36
                      A                      A                      A
 Frequencies --   1379.7885              1394.7290              1425.0304
 Red. masses --      1.8492                 1.6511                 1.5567
 Frc consts  --      2.0742                 1.8923                 1.8626
 IR Inten    --      3.3959                 4.7566                 1.0243

                     37                     38                     39
                      A                      A                      A
 Frequencies --   1483.6160              1488.0196              1494.0193
 Red. masses --      1.1450                 1.3832                 1.0722
 Frc consts  --      1.4849                 1.8044                 1.4100
 IR Inten    --      2.9597                 8.6267                 1.9626

                     40                     41                     42
                      A                      A                      A
 Frequencies --   1499.8091              1521.7328              3009.9048
 Red. masses --      1.0662                 1.1125                 1.0524
 Frc consts  --      1.4130                 1.5179                 5.6173
 IR Inten    --      4.6596                 1.6907                81.7807

                     43                     44                     45
                      A                      A                      A
 Frequencies --   3021.9131              3026.9776              3064.6242
 Red. masses --      1.0567                 1.0377                 1.1107
 Frc consts  --      5.6857                 5.6021                 6.1462
 IR Inten    --      6.1878                25.3340                29.0399

                     46                     47                     48
                      A                      A                      A
 Frequencies --   3068.1375              3086.7241              3102.3046
 Red. masses --      1.1099                 1.0998                 1.0998
 Frc consts  --      6.1557                 6.1738                 6.2366
 IR Inten    --     37.6163                19.9269                16.6023

                     49                     50                     51
                      A                      A                      A
 Frequencies --   3111.5247              3184.7729              3203.8260
 Red. masses --      1.0544                 1.0957                 1.1145
 Frc consts  --      6.0148                 6.5477                 6.7400
 IR Inten    --     13.6850                17.5499                12.2612

 - Thermochemistry -
 -------------------
 Temperature   298.150 Kelvin.  Pressure   1.00000 Atm.
 Atom     1 has atomic number  6 and mass  12.00000

 Molecular mass:   126.06808 amu.
 Principal axes and moments of inertia in atomic units:
                           1         2         3
     Eigenvalues --   635.625231216.887251423.37928
           X            0.99934  -0.03481  -0.01008
           Y            0.03403   0.99701  -0.06942
           Z            0.01246   0.06903   0.99754
 This molecule is an asymmetric top.
 Rotational symmetry number  1.
 Warning -- assumption of classical behavior for rotation
           may cause significant error
 Rotational temperatures (Kelvin)      0.13627     0.07118     0.06085
 Rotational constants (GHZ):           2.83932     1.48308     1.26793
 Zero-point vibrational energy     415178.2 (Joules/Mol)
                                   99.22997 (Kcal/Mol)
 Warning -- explicit consideration of  10 degrees of freedom as
           vibrations may cause significant error
 Vibrational temperatures:    116.45   197.15   257.58   275.38   369.44
          (Kelvin)            479.92   575.21   645.48   686.56   760.44
                              911.71  1157.05  1174.62  1247.17  1279.98
                             1290.51  1342.49  1403.55  1424.61  1440.81
                             1478.19  1482.75  1542.84  1568.96  1581.65
                             1626.59  1641.09  1653.64  1696.35  1731.67
                             1828.65  1865.89  1889.44  1985.21  2006.70
                             2050.30  2134.59  2140.93  2149.56  2157.89
                             2189.43  4330.58  4347.85  4355.14  4409.31
                             4414.36  4441.10  4463.52  4476.78  4582.17
                             4609.59

 Zero-point correction=                           0.158133 (Hartree/Particle)
 Thermal correction to Energy=                    0.166402
 Thermal correction to Enthalpy=                  0.167347
 Thermal correction to Gibbs Free Energy=         0.125239
 Sum of electronic and zero-point Energies=           -422.961924
 Sum of electronic and thermal Energies=              -422.953655
 Sum of electronic and thermal Enthalpies=            -422.952711
 Sum of electronic and thermal Free Energies=         -422.994819

                     E (Thermal)             CV                S
                      KCal/Mol        Cal/Mol-Kelvin    Cal/Mol-Kelvin
 Total                  104.419             31.544             88.623
 Electronic               0.000              0.000              0.000
 Translational            0.889              2.981             40.409
 Rotational               0.889              2.981             28.489
 Vibrational            102.642             25.582             19.726
 Vibration     1          0.600              1.962              3.868
 Vibration     2          0.614              1.916              2.845
 Vibration     3          0.629              1.868              2.339
 Vibration     4          0.634              1.852              2.214
 Vibration     5          0.666              1.751              1.684
 Vibration     6          0.715              1.608              1.243
 Vibration     7          0.766              1.471              0.963
 Vibration     8          0.808              1.364              0.800
 Vibration     9          0.834              1.301              0.718
 Vibration    10          0.883              1.187              0.590

 Normal termination of Gaussian 09 at Mon Jan 27 18:38:26 2020.
