 Gaussian 09, Revision D.01,
 Gaussian 09:  ES64L-G09RevD.01 24-Apr-2013

 -----------------------------
 # b3lyp 6-31G(2df,p) opt Freq
 -----------------------------

 -----
 titel
 -----
 Symbolic Z-matrix:
 Charge =  0 Multiplicity = 1

 SCF Done:  E(RB3LYP) =  -423.151862454     A.U. after   14 cycles
 SCF Done:  E(RB3LYP) =  -423.151862462     A.U. after    7 cycles
 SCF Done:  E(RB3LYP) =  -423.151862435     A.U. after    7 cycles
 Optimization completed.
    -- Stationary point found.
 Normal termination of Gaussian 09 at Mon Jan 27 15:57:13 2020.

 ----------------------------------------------------------------------
 #N Geom=AllCheck Guess=TCheck SCRF=Check GenChk RB3LYP/6-31G(2df,p) Fr
 eq
 ----------------------------------------------------------------------

 Structure from the checkpoint file:  "/scratch/puck/g09_a1da3905-af99-4595-b564-d5d6aa7e25e6/Gau-175214.chk"
 -----
 titel
 -----
 Charge =  0 Multiplicity = 1

                         Standard orientation:
 ---------------------------------------------------------------------
 Center     Atomic      Atomic             Coordinates (Angstroms)
 Number     Number       Type             X           Y           Z
 ---------------------------------------------------------------------
      1          8           0       -1.772378    1.640405    0.142599
      2          6           0       -1.739350    0.323842   -0.406344
      3          6           0       -0.533874   -0.485153    0.113415
      4          6           0        0.799815    0.206804   -0.180799
      5          6           0        2.003801   -0.558374    0.393164
      6          6           0        3.298949    0.192291    0.182064
      7          8           0        4.278204   -0.252894   -0.357903
      8          6           0       -2.996814   -0.389575   -0.168966
      9          6           0       -4.018917   -0.971927    0.079136
     10          1           0       -2.119070    1.570722    1.039207
     11          1           0       -1.615280    0.478312   -1.485977
     12          1           0       -0.654694   -0.632674    1.194817
     13          1           0       -0.559410   -1.482055   -0.342032
     14          1           0        0.923078    0.315320   -1.266184
     15          1           0        0.769129    1.221836    0.230119
     16          1           0        1.868142   -0.678154    1.478623
     17          1           0        2.102136   -1.555713   -0.045920
     18          1           0        3.286681    1.237816    0.573095
     19          1           0       -4.928985   -1.482945    0.276663
 ---------------------------------------------------------------------

 SCF Done:  E(RB3LYP) =  -423.151862435     A.U. after    1 cycles

 The electronic state is 1-A.
 Alpha  occ. eigenvalues --  -19.15126 -19.13917 -10.27128 -10.26554 -10.19862
 Alpha  occ. eigenvalues --  -10.19823 -10.19775 -10.19132 -10.18720  -1.04593
 Alpha  occ. eigenvalues --   -1.03413  -0.81887  -0.77939  -0.73575  -0.67428
 Alpha  occ. eigenvalues --   -0.60841  -0.57695  -0.55749  -0.50986  -0.49580
 Alpha  occ. eigenvalues --   -0.47619  -0.46232  -0.43800  -0.43052  -0.40785
 Alpha  occ. eigenvalues --   -0.38518  -0.37871  -0.35844  -0.34982  -0.34325
 Alpha  occ. eigenvalues --   -0.29910  -0.28098  -0.27405  -0.24945
 Alpha virt. eigenvalues --   -0.02120   0.02530   0.04463   0.08285   0.10132
 Alpha virt. eigenvalues --    0.10620   0.11881   0.12222   0.14130   0.15237
 Alpha virt. eigenvalues --    0.16261   0.17147   0.17510   0.20855   0.21761

 Mulliken charges:
               1
     1  O   -0.415906
     2  C   -0.061567
     3  C   -0.191655
     4  C   -0.195640
     5  C   -0.281289
     6  C    0.160667
     7  O   -0.236620
     8  C    0.289114
     9  C   -0.433662
    10  H    0.286550
    11  H    0.120697
    12  H    0.099441
    13  H    0.114586
    14  H    0.111216
    15  H    0.121577
    16  H    0.117597
    17  H    0.121547
    18  H    0.070858
    19  H    0.202490
 Sum of Mulliken charges =   0.00000

 Dipole moment (field-independent basis, Debye):
    X=             -2.6685    Y=             -0.5124    Z=              1.7508  Tot=              3.2324
 Quadrupole moment (field-independent basis, Debye-Ang):
   XX=            -65.8242   YY=            -55.0485   ZZ=            -50.4665
   XY=              5.6261   XZ=              0.9610   YZ=              1.2510

  Exact polarizability: 109.028  10.006  69.890  -5.826   1.224  60.364
 Approx polarizability: 140.073  15.850 108.161 -15.308   1.608  95.808

                      1                      2                      3
                      A                      A                      A
 Frequencies --     48.1949                53.9906                80.3207
 Red. masses --      4.8640                 4.1590                 2.7322
 Frc consts  --      0.0067                 0.0071                 0.0104
 IR Inten    --      2.9035                 4.8991                 0.5718

                      4                      5                      6
                      A                      A                      A
 Frequencies --    106.6572               136.7343               185.9447
 Red. masses --      3.2403                 2.4880                 3.1739
 Frc consts  --      0.0217                 0.0274                 0.0647
 IR Inten    --      1.1153                 1.6639                 0.3703

                      7                      8                      9
                      A                      A                      A
 Frequencies --    229.8193               280.3224               299.2016
 Red. masses --      2.5087                 2.2727                 1.7057
 Frc consts  --      0.0781                 0.1052                 0.0900
 IR Inten    --     11.9255                55.6580                46.3151

                     10                     11                     12
                      A                      A                      A
 Frequencies --    340.5019               439.5234               522.9820
 Red. masses --      3.7054                 3.5962                 2.7536
 Frc consts  --      0.2531                 0.4093                 0.4437
 IR Inten    --      1.2825                13.2846                12.8307

                     13                     14                     15
                      A                      A                      A
 Frequencies --    555.1949               572.5579               635.3874
 Red. masses --      3.8459                 4.3503                 1.2224
 Frc consts  --      0.6985                 0.8403                 0.2908
 IR Inten    --      7.8624                 9.2207                45.3942

                     16                     17                     18
                      A                      A                      A
 Frequencies --    675.9500               744.2010               808.7637
 Red. masses --      1.2484                 1.1754                 1.5147
 Frc consts  --      0.3361                 0.3835                 0.5837
 IR Inten    --     34.8046                 1.6606                 0.3364

                     19                     20                     21
                      A                      A                      A
 Frequencies --    854.9686               931.0934               972.2724
 Red. masses --      2.6398                 1.7801                 3.3569
 Frc consts  --      1.1369                 0.9093                 1.8696
 IR Inten    --     18.9044                12.3112                27.4109

                     22                     23                     24
                      A                      A                      A
 Frequencies --   1018.8347              1043.1874              1072.2476
 Red. masses --      2.3262                 2.9900                 3.2830
 Frc consts  --      1.4227                 1.9171                 2.2239
 IR Inten    --      3.2813                 8.1756                58.1764

                     25                     26                     27
                      A                      A                      A
 Frequencies --   1104.9079              1125.5281              1177.0491
 Red. masses --      2.9171                 2.1011                 1.4250
 Frc consts  --      2.0983                 1.5682                 1.1632
 IR Inten    --     10.3891                64.0059                 3.4204

                     28                     29                     30
                      A                      A                      A
 Frequencies --   1238.5785              1263.2787              1287.9297
 Red. masses --      1.2601                 1.3126                 1.2815
 Frc consts  --      1.1389                 1.2342                 1.2524
 IR Inten    --      0.6063                 9.9404                16.1393

                     31                     32                     33
                      A                      A                      A
 Frequencies --   1319.2507              1334.1018              1360.7602
 Red. masses --      1.3123                 1.1191                 1.3553
 Frc consts  --      1.3456                 1.1735                 1.4786
 IR Inten    --      2.0752                 0.9288                 0.3864

                     34                     35                     36
                      A                      A                      A
 Frequencies --   1389.7660              1419.5595              1431.0820
 Red. masses --      1.5018                 1.2460                 1.1961
 Frc consts  --      1.7090                 1.4794                 1.4433
 IR Inten    --      2.7468                55.3377                 5.0327

                     37                     38                     39
                      A                      A                      A
 Frequencies --   1464.0938              1477.1370              1505.0615
 Red. masses --      1.0876                 1.0838                 1.0941
 Frc consts  --      1.3736                 1.3932                 1.4602
 IR Inten    --      3.3237                 1.8159                 2.8518

                     40                     41                     42
                      A                      A                      A
 Frequencies --   1837.5699              2232.9856              2848.4465
 Red. masses --     10.1080                 5.9049                 1.0816
 Frc consts  --     20.1095                17.3473                 5.1703
 IR Inten    --    198.6289                 0.9532               112.1935

                     43                     44                     45
                      A                      A                      A
 Frequencies --   3005.6900              3018.8122              3028.1524
 Red. masses --      1.0655                 1.0652                 1.0710
 Frc consts  --      5.6712                 5.7193                 5.7862
 IR Inten    --      6.1039                 0.9458                 6.4915

                     46                     47                     48
                      A                      A                      A
 Frequencies --   3035.5677              3063.5602              3081.0052
 Red. masses --      1.0713                 1.0957                 1.0994
 Frc consts  --      5.8165                 6.0592                 6.1486
 IR Inten    --     48.5865                 4.4296                13.8544

                     49                     50                     51
                      A                      A                      A
 Frequencies --   3098.7989              3502.3162              3804.7873
 Red. masses --      1.0984                 1.1626                 1.0662
 Frc consts  --      6.2143                 8.4022                 9.0938
 IR Inten    --     36.7813                67.9917                24.7001

 - Thermochemistry -
 -------------------
 Temperature   298.150 Kelvin.  Pressure   1.00000 Atm.
 Atom     1 has atomic number  8 and mass  15.99491

 Molecular mass:   126.06808 amu.
 Principal axes and moments of inertia in atomic units:
                           1         2         3
     Eigenvalues --   343.772953357.519983582.01188
           X            0.99998   0.00612   0.00194
           Y           -0.00611   0.99998  -0.00125
           Z           -0.00195   0.00123   1.00000
 This molecule is an asymmetric top.
 Rotational symmetry number  1.
 Rotational temperatures (Kelvin)      0.25195     0.02580     0.02418
 Rotational constants (GHZ):           5.24981     0.53752     0.50383
 Zero-point vibrational energy     407116.9 (Joules/Mol)
                                   97.30327 (Kcal/Mol)
 Warning -- explicit consideration of  14 degrees of freedom as
           vibrations may cause significant error
 Vibrational temperatures:     69.34    77.68   115.56   153.46   196.73
          (Kelvin)            267.53   330.66   403.32   430.48   489.91
                              632.38   752.45   798.80   823.78   914.18
                              972.54  1070.74  1163.63  1230.11  1339.63
                             1398.88  1465.87  1500.91  1542.72  1589.71
                             1619.38  1693.51  1782.04  1817.57  1853.04
                             1898.11  1919.47  1957.83  1999.56  2042.43
                             2059.01  2106.50  2125.27  2165.45  2643.85
                             3212.76  4098.27  4324.51  4343.39  4356.83
                             4367.50  4407.77  4432.87  4458.47  5039.05
                             5474.23

 Zero-point correction=                           0.155063 (Hartree/Particle)
 Thermal correction to Energy=                    0.165756
 Thermal correction to Enthalpy=                  0.166700
 Thermal correction to Gibbs Free Energy=         0.117836
 Sum of electronic and zero-point Energies=           -422.996800
 Sum of electronic and thermal Energies=              -422.986107
 Sum of electronic and thermal Enthalpies=            -422.985163
 Sum of electronic and thermal Free Energies=         -423.034026

                     E (Thermal)             CV                S
                      KCal/Mol        Cal/Mol-Kelvin    Cal/Mol-Kelvin
 Total                  104.013             37.039            102.842
 Electronic               0.000              0.000              0.000
 Translational            0.889              2.981             40.409
 Rotational               0.889              2.981             29.804
 Vibrational            102.236             31.078             32.630
 Vibration     1          0.595              1.978              4.890
 Vibration     2          0.596              1.976              4.666
 Vibration     3          0.600              1.963              3.883
 Vibration     4          0.606              1.944              3.329
 Vibration     5          0.614              1.917              2.849
 Vibration     6          0.632              1.859              2.268
 Vibration     7          0.652              1.795              1.880
 Vibration     8          0.680              1.710              1.532
 Vibration     9          0.692              1.675              1.421
 Vibration    10          0.720              1.595              1.210
 Vibration    11          0.800              1.384              0.828
 Vibration    12          0.878              1.199              0.603
 Vibration    13          0.911              1.128              0.534
 Vibration    14          0.929              1.091              0.499

 Optimization completed.
    -- Stationary point found.
 Normal termination of Gaussian 09 at Mon Jan 27 16:27:59 2020.
