 Gaussian 09, Revision D.01,
 Gaussian 09:  ES64L-G09RevD.01 24-Apr-2013

 -----------------------------
 # b3lyp 6-31G(2df,p) opt Freq
 -----------------------------

 -----
 titel
 -----
 Symbolic Z-matrix:
 Charge =  0 Multiplicity = 1

 SCF Done:  E(RB3LYP) =  -423.117912895     A.U. after   14 cycles
 Optimization completed.
    -- Stationary point found.
 Normal termination of Gaussian 09 at Mon Jan 27 14:10:42 2020.

 ----------------------------------------------------------------------
 #N Geom=AllCheck Guess=TCheck SCRF=Check GenChk RB3LYP/6-31G(2df,p) Fr
 eq
 ----------------------------------------------------------------------

 Structure from the checkpoint file:  "/scratch/puck/g09_5f03e2d7-cda0-4545-af2a-e3065846b091/Gau-70758.chk"
 -----
 titel
 -----
 Charge =  0 Multiplicity = 1

                         Standard orientation:
 ---------------------------------------------------------------------
 Center     Atomic      Atomic             Coordinates (Angstroms)
 Number     Number       Type             X           Y           Z
 ---------------------------------------------------------------------
      1          6           0        2.332393   -1.077738   -0.323747
      2          6           0        1.207527   -0.256374    0.337832
      3          6           0        1.419956    1.176130    0.146434
      4          6           0        1.624177    2.348215   -0.022236
      5          6           0       -0.181724   -0.697157   -0.172396
      6          8           0       -0.299631   -2.073410    0.172387
      7          6           0       -1.323598    0.083321    0.449677
      8          6           0       -2.637391    0.136740   -0.211590
      9          8           0       -1.759852    1.261317   -0.219009
     10          1           0        2.167102   -2.142585   -0.152334
     11          1           0        2.356205   -0.893395   -1.402264
     12          1           0        3.303385   -0.793198    0.088686
     13          1           0        1.216590   -0.470189    1.416164
     14          1           0        1.784324    3.387772   -0.166922
     15          1           0       -0.223427   -0.548718   -1.263024
     16          1           0       -1.165083   -2.378807   -0.118014
     17          1           0       -1.293316    0.159641    1.537967
     18          1           0       -2.777593   -0.348961   -1.177988
     19          1           0       -3.540354    0.246371    0.386862
 ---------------------------------------------------------------------

 SCF Done:  E(RB3LYP) =  -423.117912895     A.U. after    1 cycles

 The electronic state is 1-A.
 Alpha  occ. eigenvalues --  -19.15627 -19.14852 -10.24442 -10.24129 -10.24035
 Alpha  occ. eigenvalues --  -10.21274 -10.17601 -10.17464 -10.16632  -1.07839
 Alpha  occ. eigenvalues --   -1.03055  -0.81469  -0.72583  -0.71232  -0.66803
 Alpha  occ. eigenvalues --   -0.62560  -0.60027  -0.55034  -0.51070  -0.49163
 Alpha  occ. eigenvalues --   -0.49035  -0.44793  -0.43681  -0.41390  -0.40273
 Alpha  occ. eigenvalues --   -0.38166  -0.37386  -0.36398  -0.34283  -0.30981
 Alpha  occ. eigenvalues --   -0.29079  -0.26763  -0.25958  -0.25729
 Alpha virt. eigenvalues --    0.05158   0.05810   0.07022   0.09540   0.11146
 Alpha virt. eigenvalues --    0.11336   0.12445   0.13496   0.14488   0.15814
 Alpha virt. eigenvalues --    0.16032   0.17702   0.18661   0.19067   0.22657

 Mulliken charges:
               1
     1  C   -0.398916
     2  C   -0.165649
     3  C    0.335057
     4  C   -0.470564
     5  C    0.102742
     6  O   -0.432102
     7  C    0.054685
     8  C   -0.194623
     9  O   -0.216166
    10  H    0.136723
    11  H    0.122175
    12  H    0.122660
    13  H    0.111841
    14  H    0.195109
    15  H    0.082638
    16  H    0.285253
    17  H    0.099495
    18  H    0.110755
    19  H    0.118888
 Sum of Mulliken charges =   0.00000

 Dipole moment (field-independent basis, Debye):
    X=             -1.3488    Y=             -1.4194    Z=             -0.1250  Tot=              1.9620
 Quadrupole moment (field-independent basis, Debye-Ang):
   XX=            -48.6836   YY=            -53.6672   ZZ=            -52.5230
   XY=              5.3475   XZ=              0.0444   YZ=              1.6104

  Exact polarizability:  83.868   4.107  87.959   1.270  -0.877  59.632
 Approx polarizability: 104.506   8.601 140.188   3.496  -7.390  92.475

                      1                      2                      3
                      A                      A                      A
 Frequencies --     52.6905                85.0315               123.2763
 Red. masses --      4.1411                 4.4532                 3.6769
 Frc consts  --      0.0068                 0.0190                 0.0329
 IR Inten    --      0.5405                 2.6819                 1.9369

                      4                      5                      6
                      A                      A                      A
 Frequencies --    190.6248               206.5626               223.1818
 Red. masses --      3.2544                 1.4803                 1.9095
 Frc consts  --      0.0697                 0.0372                 0.0560
 IR Inten    --      0.5218                 1.8989                 0.5989

                      7                      8                      9
                      A                      A                      A
 Frequencies --    272.1408               283.1688               316.6527
 Red. masses --      2.6110                 1.2491                 3.2472
 Frc consts  --      0.1139                 0.0590                 0.1918
 IR Inten    --      3.1079                94.9942                10.4407

                     10                     11                     12
                      A                      A                      A
 Frequencies --    393.5968               429.1281               498.8895
 Red. masses --      3.5973                 4.4937                 4.1117
 Frc consts  --      0.3283                 0.4876                 0.6030
 IR Inten    --      7.7423                 6.0615                 5.7779

                     13                     14                     15
                      A                      A                      A
 Frequencies --    539.2356               565.4767               633.1559
 Red. masses --      4.3499                 4.7308                 1.2142
 Frc consts  --      0.7452                 0.8913                 0.2868
 IR Inten    --      1.0700                 2.7617                40.7346

                     16                     17                     18
                      A                      A                      A
 Frequencies --    644.2986               840.2082               856.2581
 Red. masses --      1.2464                 1.8757                 2.4023
 Frc consts  --      0.3048                 0.7802                 1.0377
 IR Inten    --     42.3225                 2.3162                22.4438

                     19                     20                     21
                      A                      A                      A
 Frequencies --    881.7048               926.3502               973.0825
 Red. masses --      4.9911                 2.3831                 1.6726
 Frc consts  --      2.2861                 1.2049                 0.9331
 IR Inten    --     16.9208                30.1118                 5.3873

                     22                     23                     24
                      A                      A                      A
 Frequencies --   1039.1569              1055.4196              1078.0082
 Red. masses --      1.9501                 3.0464                 2.7238
 Frc consts  --      1.2407                 1.9993                 1.8650
 IR Inten    --     52.6765                17.2311                19.9972

                     25                     26                     27
                      A                      A                      A
 Frequencies --   1103.1287              1121.6226              1153.7470
 Red. masses --      1.5268                 1.6696                 1.3925
 Frc consts  --      1.0947                 1.2376                 1.0921
 IR Inten    --      7.7758                 1.8924                 0.3897

                     28                     29                     30
                      A                      A                      A
 Frequencies --   1166.1076              1181.7546              1245.4539
 Red. masses --      1.4310                 2.1364                 1.2839
 Frc consts  --      1.1465                 1.7579                 1.1734
 IR Inten    --      2.6292                 3.8318                32.9400

                     31                     32                     33
                      A                      A                      A
 Frequencies --   1279.9181              1297.9100              1326.5958
 Red. masses --      1.4091                 1.4608                 1.2498
 Frc consts  --      1.3600                 1.4499                 1.2959
 IR Inten    --      4.1589                35.1012                 3.6300

                     34                     35                     36
                      A                      A                      A
 Frequencies --   1332.8684              1392.2923              1408.5735
 Red. masses --      1.5110                 1.3196                 1.2996
 Frc consts  --      1.5815                 1.5071                 1.5192
 IR Inten    --      2.1038                 5.9228                 9.6297

                     37                     38                     39
                      A                      A                      A
 Frequencies --   1450.4182              1493.3903              1499.3040
 Red. masses --      1.7364                 1.0454                 1.0514
 Frc consts  --      2.1523                 1.3737                 1.3925
 IR Inten    --      0.4668                 5.4320                 3.1008

                     40                     41                     42
                      A                      A                      A
 Frequencies --   1525.3045              2239.0639              2983.4375
 Red. masses --      1.3491                 5.9282                 1.0820
 Frc consts  --      1.8492                17.5109                 5.6745
 IR Inten    --      1.5549                 0.5227                17.7567

                     43                     44                     45
                      A                      A                      A
 Frequencies --   3010.9184              3049.4318              3074.7077
 Red. masses --      1.0823                 1.0356                 1.0505
 Frc consts  --      5.7809                 5.6737                 5.8512
 IR Inten    --     20.2071                21.1678                26.5120

                     46                     47                     48
                      A                      A                      A
 Frequencies --   3101.3071              3120.0772              3145.7337
 Red. masses --      1.0885                 1.1011                 1.1021
 Frc consts  --      6.1683                 6.3155                 6.4258
 IR Inten    --     19.1246                22.7428                12.5987

                     49                     50                     51
                      A                      A                      A
 Frequencies --   3163.5387              3505.9750              3818.6693
 Red. masses --      1.1183                 1.1622                 1.0662
 Frc consts  --      6.5941                 8.4170                 9.1603
 IR Inten    --     27.7508                62.3696                17.4565

 - Thermochemistry -
 -------------------
 Temperature   298.150 Kelvin.  Pressure   1.00000 Atm.
 Atom     1 has atomic number  6 and mass  12.00000

 Molecular mass:   126.06808 amu.
 Principal axes and moments of inertia in atomic units:
                           1         2         3
     Eigenvalues --   852.949941289.368532020.63350
           X            0.99994  -0.00940  -0.00487
           Y            0.00945   0.99991   0.00984
           Z            0.00478  -0.00989   0.99994
 This molecule is an asymmetric top.
 Rotational symmetry number  1.
 Warning -- assumption of classical behavior for rotation
           may cause significant error
 Rotational temperatures (Kelvin)      0.10155     0.06718     0.04286
 Rotational constants (GHZ):           2.11588     1.39971     0.89316
 Zero-point vibrational energy     408516.0 (Joules/Mol)
                                   97.63768 (Kcal/Mol)
 Warning -- explicit consideration of  14 degrees of freedom as
           vibrations may cause significant error
 Vibrational temperatures:     75.81   122.34   177.37   274.27   297.20
          (Kelvin)            321.11   391.55   407.42   455.59   566.30
                              617.42   717.79   775.84   813.59   910.97
                              927.00  1208.87  1231.96  1268.57  1332.81
                             1400.05  1495.11  1518.51  1551.01  1587.15
                             1613.76  1659.98  1677.77  1700.28  1791.93
                             1841.51  1867.40  1908.67  1917.70  2003.20
                             2026.62  2086.83  2148.65  2157.16  2194.57
                             3221.51  4292.50  4332.03  4387.45  4423.81
                             4462.08  4489.09  4526.00  4551.62  5044.31
                             5494.21

 Zero-point correction=                           0.155596 (Hartree/Particle)
 Thermal correction to Energy=                    0.165705
 Thermal correction to Enthalpy=                  0.166649
 Thermal correction to Gibbs Free Energy=         0.120287
 Sum of electronic and zero-point Energies=           -422.962317
 Sum of electronic and thermal Energies=              -422.952208
 Sum of electronic and thermal Enthalpies=            -422.951264
 Sum of electronic and thermal Free Energies=         -422.997626

                     E (Thermal)             CV                S
                      KCal/Mol        Cal/Mol-Kelvin    Cal/Mol-Kelvin
 Total                  103.981             36.706             97.578
 Electronic               0.000              0.000              0.000
 Translational            0.889              2.981             40.409
 Rotational               0.889              2.981             29.187
 Vibrational            102.204             30.745             27.983
 Vibration     1          0.596              1.977              4.714
 Vibration     2          0.601              1.960              3.771
 Vibration     3          0.610              1.930              3.048
 Vibration     4          0.634              1.853              2.222
 Vibration     5          0.641              1.831              2.074
 Vibration     6          0.649              1.806              1.933
 Vibration     7          0.675              1.725              1.583
 Vibration     8          0.682              1.705              1.514
 Vibration     9          0.704              1.642              1.327
 Vibration    10          0.761              1.484              0.986
 Vibration    11          0.790              1.407              0.862
 Vibration    12          0.854              1.252              0.661
 Vibration    13          0.894              1.163              0.567
 Vibration    14          0.921              1.106              0.513

 Optimization completed.
    -- Stationary point found.
 Normal termination of Gaussian 09 at Mon Jan 27 14:58:07 2020.
