 Gaussian 09, Revision D.01,
 Gaussian 09:  ES64L-G09RevD.01 24-Apr-2013

 -----------------------------
 # b3lyp 6-31G(2df,p) opt Freq
 -----------------------------

 -----
 titel
 -----
 Symbolic Z-matrix:
 Charge =  0 Multiplicity = 1

 SCF Done:  E(RB3LYP) =  -423.141257830     A.U. after   14 cycles
 Optimization completed.
    -- Stationary point found.
 Normal termination of Gaussian 09 at Tue Jan 28 14:29:24 2020.

 ----------------------------------------------------------------------
 #N Geom=AllCheck Guess=TCheck SCRF=Check GenChk RB3LYP/6-31G(2df,p) Fr
 eq
 ----------------------------------------------------------------------

 Structure from the checkpoint file:  "/scratch/puck/g09_c7617637-c197-4592-806f-f31143a1ae20/Gau-11973.chk"
 -----
 titel
 -----
 Charge =  0 Multiplicity = 1

                         Standard orientation:
 ---------------------------------------------------------------------
 Center     Atomic      Atomic             Coordinates (Angstroms)
 Number     Number       Type             X           Y           Z
 ---------------------------------------------------------------------
      1          6           0       -3.841770    0.045049    0.160568
      2          6           0       -2.531181   -0.514141   -0.399012
      3          6           0       -1.313129    0.052867    0.314808
      4          8           0       -0.147772   -0.522654   -0.263883
      5          6           0        1.065249   -0.101332    0.320634
      6          6           0        2.155277   -0.974737   -0.326894
      7          8           0        3.121115   -1.381676    0.253709
      8          6           0        1.378069    1.308844    0.064307
      9          6           0        1.656927    2.452017   -0.182323
     10          1           0       -4.702471   -0.374111   -0.367907
     11          1           0       -3.956817   -0.193239    1.223641
     12          1           0       -3.887401    1.134754    0.058056
     13          1           0       -2.513653   -1.606188   -0.308765
     14          1           0       -2.445426   -0.286140   -1.467448
     15          1           0       -1.279178    1.148018    0.218044
     16          1           0       -1.349058   -0.182521    1.391480
     17          1           0        1.080830   -0.293716    1.404583
     18          1           0        1.948603   -1.189293   -1.396211
     19          1           0        1.901182    3.465677   -0.386610
 ---------------------------------------------------------------------

 SCF Done:  E(RB3LYP) =  -423.141257830     A.U. after    1 cycles

 The electronic state is 1-A.
 Alpha  occ. eigenvalues --  -19.15962 -19.15248 -10.28221 -10.27045 -10.23543
 Alpha  occ. eigenvalues --  -10.19788 -10.19369 -10.18777 -10.18257  -1.06450
 Alpha  occ. eigenvalues --   -1.04980  -0.80850  -0.77484  -0.72829  -0.66748
 Alpha  occ. eigenvalues --   -0.61311  -0.58881  -0.55064  -0.51493  -0.50769
 Alpha  occ. eigenvalues --   -0.48105  -0.46929  -0.44288  -0.42728  -0.40871
 Alpha  occ. eigenvalues --   -0.38873  -0.36899  -0.36745  -0.34247  -0.33489
 Alpha  occ. eigenvalues --   -0.29926  -0.28760  -0.27875  -0.25515
 Alpha virt. eigenvalues --   -0.03782   0.02627   0.04990   0.08778   0.10557
 Alpha virt. eigenvalues --    0.11733   0.13228   0.14060   0.14744   0.15654
 Alpha virt. eigenvalues --    0.16887   0.18022   0.18582   0.19467   0.20813

 Mulliken charges:
               1
     1  C   -0.383969
     2  C   -0.184465
     3  C   -0.041658
     4  O   -0.251201
     5  C   -0.123030
     6  C    0.157085
     7  O   -0.233634
     8  C    0.327334
     9  C   -0.471064
    10  H    0.120757
    11  H    0.118601
    12  H    0.119443
    13  H    0.109278
    14  H    0.111004
    15  H    0.104989
    16  H    0.090831
    17  H    0.115832
    18  H    0.103973
    19  H    0.209896
 Sum of Mulliken charges =   0.00000

 Dipole moment (field-independent basis, Debye):
    X=             -2.4055    Y=              1.6145    Z=             -0.1461  Tot=              2.9008
 Quadrupole moment (field-independent basis, Debye-Ang):
   XX=            -59.5254   YY=            -50.3906   ZZ=            -52.8316
   XY=              5.7174   XZ=             -2.6318   YZ=             -0.4350

  Exact polarizability:  89.681   2.175  86.587   0.405  -2.432  62.831
 Approx polarizability: 108.949   3.316 136.626   3.853  -8.485  96.353

                      1                      2                      3
                      A                      A                      A
 Frequencies --     49.4640                59.5458                72.8046
 Red. masses --      5.0463                 1.6115                 4.0589
 Frc consts  --      0.0073                 0.0034                 0.0127
 IR Inten    --      1.3178                 0.3824                 7.0690

                      4                      5                      6
                      A                      A                      A
 Frequencies --    105.7176               136.0823               166.3731
 Red. masses --      4.0845                 2.8366                 2.7771
 Frc consts  --      0.0269                 0.0309                 0.0453
 IR Inten    --      0.2201                 0.6296                 6.7176

                      7                      8                      9
                      A                      A                      A
 Frequencies --    223.8845               238.2743               262.4737
 Red. masses --      1.8210                 1.7624                 3.0901
 Frc consts  --      0.0538                 0.0590                 0.1254
 IR Inten    --      1.2153                 1.3129                 1.8841

                     10                     11                     12
                      A                      A                      A
 Frequencies --    342.8360               418.9504               476.8536
 Red. masses --      4.9221                 4.0640                 5.8674
 Frc consts  --      0.3409                 0.4203                 0.7861
 IR Inten    --      3.7461                 1.1588                 7.3923

                     13                     14                     15
                      A                      A                      A
 Frequencies --    506.5424               640.2768               641.4054
 Red. masses --      4.0654                 1.5039                 3.2778
 Frc consts  --      0.6146                 0.3633                 0.7945
 IR Inten    --     26.5335                44.1005                 7.1345

                     16                     17                     18
                      A                      A                      A
 Frequencies --    684.4444               766.6564               891.7004
 Red. masses --      1.2520                 1.0806                 2.6419
 Frc consts  --      0.3456                 0.3742                 1.2377
 IR Inten    --     34.3643                 1.6100                13.0797

                     19                     20                     21
                      A                      A                      A
 Frequencies --    903.8172               911.1051               984.7357
 Red. masses --      1.2426                 1.7373                 4.3357
 Frc consts  --      0.5980                 0.8497                 2.4771
 IR Inten    --      6.7201                 3.5906                16.7913

                     22                     23                     24
                      A                      A                      A
 Frequencies --   1044.0670              1057.5066              1074.8291
 Red. masses --      2.4823                 2.6982                 3.2697
 Frc consts  --      1.5943                 1.7778                 2.2255
 IR Inten    --      6.6152                14.6527                12.9058

                     25                     26                     27
                      A                      A                      A
 Frequencies --   1133.9662              1153.2048              1192.4757
 Red. masses --      8.4161                 2.4065                 1.6118
 Frc consts  --      6.3762                 1.8856                 1.3504
 IR Inten    --    241.8719                 0.0644                 1.7956

                     28                     29                     30
                      A                      A                      A
 Frequencies --   1262.0372              1270.0124              1317.1616
 Red. masses --      1.4056                 1.2094                 1.0859
 Frc consts  --      1.3190                 1.1493                 1.1100
 IR Inten    --      7.0979                 1.4592                 2.1526

                     31                     32                     33
                      A                      A                      A
 Frequencies --   1324.2075              1343.4060              1393.7653
 Red. masses --      1.2153                 1.3640                 1.1931
 Frc consts  --      1.2555                 1.4504                 1.3655
 IR Inten    --     31.7528                 4.8432                 8.9727

                     34                     35                     36
                      A                      A                      A
 Frequencies --   1413.4198              1437.4818              1492.5888
 Red. masses --      1.2561                 1.4179                 1.0526
 Frc consts  --      1.4784                 1.7262                 1.3816
 IR Inten    --      0.5865                 6.0149                 1.0533

                     37                     38                     39
                      A                      A                      A
 Frequencies --   1500.5293              1507.6427              1526.0047
 Red. masses --      1.0394                 1.0826                 1.0865
 Frc consts  --      1.3789                 1.4499                 1.4906
 IR Inten    --      5.5387                 1.5928                 4.6122

                     40                     41                     42
                      A                      A                      A
 Frequencies --   1851.0031              2225.8893              2923.1849
 Red. masses --     10.4916                 5.8886                 1.0860
 Frc consts  --     21.1790                17.1896                 5.4676
 IR Inten    --    188.0187                 4.4036                68.5320

                     43                     44                     45
                      A                      A                      A
 Frequencies --   2968.0806              2992.4279              3015.7872
 Red. masses --      1.0616                 1.0817                 1.0975
 Frc consts  --      5.5103                 5.7071                 5.8812
 IR Inten    --     36.2302                30.0361                19.5033

                     46                     47                     48
                      A                      A                      A
 Frequencies --   3033.9683              3041.1537              3074.9730
 Red. masses --      1.0377                 1.0576                 1.1028
 Frc consts  --      5.6281                 5.7627                 6.1440
 IR Inten    --     19.1571                31.1649                 4.9571

                     49                     50                     51
                      A                      A                      A
 Frequencies --   3102.8751              3111.4197              3499.7501
 Red. masses --      1.1031                 1.1004                 1.1626
 Frc consts  --      6.2572                 6.2767                 8.3896
 IR Inten    --     53.5342                29.3172                64.1355

 - Thermochemistry -
 -------------------
 Temperature   298.150 Kelvin.  Pressure   1.00000 Atm.
 Atom     1 has atomic number  6 and mass  12.00000

 Molecular mass:   126.06808 amu.
 Principal axes and moments of inertia in atomic units:
                           1         2         3
     Eigenvalues --   642.577852323.152042833.49695
           X            0.99992   0.01135  -0.00498
           Y           -0.01132   0.99992   0.00530
           Z            0.00504  -0.00525   0.99997
 This molecule is an asymmetric top.
 Rotational symmetry number  1.
 Warning -- assumption of classical behavior for rotation
           may cause significant error
 Rotational temperatures (Kelvin)      0.13479     0.03728     0.03057
 Rotational constants (GHZ):           2.80860     0.77685     0.63693
 Zero-point vibrational energy     405347.2 (Joules/Mol)
                                   96.88031 (Kcal/Mol)
 Warning -- explicit consideration of  13 degrees of freedom as
           vibrations may cause significant error
 Vibrational temperatures:     71.17    85.67   104.75   152.10   195.79
          (Kelvin)            239.37   322.12   342.82   377.64   493.26
                              602.78   686.09   728.80   921.21   922.84
                              984.76  1103.05  1282.96  1300.39  1310.88
                             1416.81  1502.18  1521.51  1546.44  1631.52
                             1659.20  1715.70  1815.79  1827.26  1895.10
                             1905.24  1932.86  2005.31  2033.59  2068.21
                             2147.50  2158.92  2169.16  2195.58  2663.18
                             3202.55  4205.81  4270.40  4305.43  4339.04
                             4365.20  4375.54  4424.19  4464.34  4476.63
                             5035.35

 Zero-point correction=                           0.154389 (Hartree/Particle)
 Thermal correction to Energy=                    0.165215
 Thermal correction to Enthalpy=                  0.166159
 Thermal correction to Gibbs Free Energy=         0.116938
 Sum of electronic and zero-point Energies=           -422.986869
 Sum of electronic and thermal Energies=              -422.976043
 Sum of electronic and thermal Enthalpies=            -422.975099
 Sum of electronic and thermal Free Energies=         -423.024320

                     E (Thermal)             CV                S
                      KCal/Mol        Cal/Mol-Kelvin    Cal/Mol-Kelvin
 Total                  103.674             36.865            103.595
 Electronic               0.000              0.000              0.000
 Translational            0.889              2.981             40.409
 Rotational               0.889              2.981             29.827
 Vibrational            101.897             30.904             33.360
 Vibration     1          0.595              1.978              4.839
 Vibration     2          0.597              1.974              4.472
 Vibration     3          0.599              1.967              4.076
 Vibration     4          0.605              1.945              3.346
 Vibration     5          0.614              1.917              2.858
 Vibration     6          0.624              1.884              2.476
 Vibration     7          0.649              1.805              1.927
 Vibration     8          0.656              1.782              1.816
 Vibration     9          0.670              1.742              1.645
 Vibration    10          0.722              1.590              1.199
 Vibration    11          0.782              1.429              0.896
 Vibration    12          0.833              1.301              0.719
 Vibration    13          0.862              1.236              0.642

 Optimization completed.
    -- Stationary point found.
 Normal termination of Gaussian 09 at Tue Jan 28 15:02:51 2020.
