 Gaussian 09, Revision D.01,
 Gaussian 09:  ES64L-G09RevD.01 24-Apr-2013

 -----------------------------
 # b3lyp 6-31G(2df,p) opt Freq
 -----------------------------

 -----
 titel
 -----
 Symbolic Z-matrix:
 Charge =  0 Multiplicity = 1

 SCF Done:  E(RB3LYP) =  -423.137398561     A.U. after   14 cycles
 Optimization completed.
    -- Stationary point found.
 Normal termination of Gaussian 09 at Mon Jan 27 16:07:35 2020.

 ----------------------------------------------------------------------
 #N Geom=AllCheck Guess=TCheck SCRF=Check GenChk RB3LYP/6-31G(2df,p) Fr
 eq
 ----------------------------------------------------------------------

 Structure from the checkpoint file:  "/scratch/puck/g09_eace37bc-de01-4fa7-8e62-ff9c4e1d2b53/Gau-38932.chk"
 -----
 titel
 -----
 Charge =  0 Multiplicity = 1

                         Standard orientation:
 ---------------------------------------------------------------------
 Center     Atomic      Atomic             Coordinates (Angstroms)
 Number     Number       Type             X           Y           Z
 ---------------------------------------------------------------------
      1          6           0       -2.248769   -1.020769   -0.194804
      2          6           0       -0.841060   -0.482063    0.019539
      3          8           0        0.017755   -1.572740    0.323649
      4          6           0       -0.254846    0.639244   -0.914407
      5          6           0       -1.153965    1.651141   -0.145090
      6          6           0       -0.550725    0.728980    0.955688
      7          6           0        0.809195    0.891302    0.197532
      8          6           0        1.964911   -0.067000    0.368824
      9          8           0        2.701353   -0.375194   -0.537629
     10          1           0       -2.561641   -1.586674    0.687450
     11          1           0       -2.992646   -0.248228   -0.393405
     12          1           0       -2.254004   -1.710857   -1.046937
     13          1           0        0.170261   -2.086615   -0.477595
     14          1           0       -0.076645    0.585333   -1.988905
     15          1           0       -0.800907    2.684111   -0.140329
     16          1           0       -2.229765    1.610693   -0.310010
     17          1           0       -0.722000    0.776768    2.032081
     18          1           0        1.206489    1.913702    0.214078
     19          1           0        2.159550   -0.399770    1.411717
 ---------------------------------------------------------------------

 SCF Done:  E(RB3LYP) =  -423.137398561     A.U. after    1 cycles

 The electronic state is 1-A.
 Alpha  occ. eigenvalues --  -19.15155 -19.11822 -10.25776 -10.25346 -10.20972
 Alpha  occ. eigenvalues --  -10.20872 -10.20049 -10.19783 -10.18448  -1.04052
 Alpha  occ. eigenvalues --   -1.02488  -0.91394  -0.74533  -0.69550  -0.64747
 Alpha  occ. eigenvalues --   -0.63955  -0.57541  -0.54331  -0.50702  -0.48958
 Alpha  occ. eigenvalues --   -0.47472  -0.44571  -0.43156  -0.41121  -0.39558
 Alpha  occ. eigenvalues --   -0.38146  -0.36385  -0.34921  -0.34315  -0.32973
 Alpha  occ. eigenvalues --   -0.32205  -0.30209  -0.27574  -0.23378
 Alpha virt. eigenvalues --    0.00046   0.07130   0.10263   0.11772   0.12057
 Alpha virt. eigenvalues --    0.12914   0.13504   0.14232   0.14645   0.15825
 Alpha virt. eigenvalues --    0.17238   0.17596   0.18376   0.19916   0.22329

 Mulliken charges:
               1
     1  C   -0.472282
     2  C    0.454843
     3  O   -0.467876
     4  C   -0.124270
     5  C   -0.250553
     6  C   -0.117343
     7  C   -0.050735
     8  C    0.123418
     9  O   -0.283163
    10  H    0.132368
    11  H    0.124014
    12  H    0.113919
    13  H    0.288717
    14  H    0.082309
    15  H    0.102031
    16  H    0.099625
    17  H    0.077720
    18  H    0.093931
    19  H    0.073329
 Sum of Mulliken charges =   0.00000

 Dipole moment (field-independent basis, Debye):
    X=             -2.9226    Y=              0.7123    Z=              0.1772  Tot=              3.0133
 Quadrupole moment (field-independent basis, Debye-Ang):
   XX=            -60.3838   YY=            -50.7348   ZZ=            -52.4521
   XY=              2.3554   XZ=              3.6875   YZ=              2.5811

  Exact polarizability:  85.670  -0.907  75.409  -0.161   0.974  68.853
 Approx polarizability: 117.976  -3.754 110.022  -6.025   2.429 113.399

                      1                      2                      3
                      A                      A                      A
 Frequencies --     97.2027               143.2190               189.1203
 Red. masses --      4.5788                 2.6963                 1.1368
 Frc consts  --      0.0255                 0.0326                 0.0240
 IR Inten    --     14.0996                10.9907                 0.6843

                      4                      5                      6
                      A                      A                      A
 Frequencies --    239.2107               244.4542               314.3183
 Red. masses --      2.5850                 2.9011                 1.3440
 Frc consts  --      0.0872                 0.1021                 0.0782
 IR Inten    --     10.8833                29.9519                49.7139

                      7                      8                      9
                      A                      A                      A
 Frequencies --    380.5594               417.2344               439.9315
 Red. masses --      3.3308                 2.5467                 3.9452
 Frc consts  --      0.2842                 0.2612                 0.4499
 IR Inten    --      1.0933                 0.9302                20.5333

                     10                     11                     12
                      A                      A                      A
 Frequencies --    472.9611               586.3504               645.6516
 Red. masses --      3.0764                 3.8005                 3.6370
 Frc consts  --      0.4055                 0.7699                 0.8933
 IR Inten    --      0.3306                 9.6281                 4.4632

                     13                     14                     15
                      A                      A                      A
 Frequencies --    694.0622               764.1355               794.0090
 Red. masses --      3.4476                 2.6376                 2.5965
 Frc consts  --      0.9785                 0.9074                 0.9645
 IR Inten    --      6.2486                 7.4294                 3.3020

                     16                     17                     18
                      A                      A                      A
 Frequencies --    841.9542               894.4154               905.2888
 Red. masses --      2.5237                 2.1088                 1.8742
 Frc consts  --      1.0540                 0.9940                 0.9050
 IR Inten    --      4.9566                 0.3524                 5.0733

                     19                     20                     21
                      A                      A                      A
 Frequencies --    951.0568              1003.6311              1017.7113
 Red. masses --      1.9166                 1.5234                 1.1970
 Frc consts  --      1.0214                 0.9041                 0.7304
 IR Inten    --     26.9932                 1.2055                 1.8655

                     22                     23                     24
                      A                      A                      A
 Frequencies --   1029.5349              1063.5374              1072.5369
 Red. masses --      1.4608                 1.7897                 1.7574
 Frc consts  --      0.9123                 1.1927                 1.1911
 IR Inten    --      7.9406                 6.6798                 0.6991

                     25                     26                     27
                      A                      A                      A
 Frequencies --   1087.9826              1114.4296              1135.1008
 Red. masses --      1.4999                 1.7941                 1.9982
 Frc consts  --      1.0461                 1.3128                 1.5169
 IR Inten    --      1.8179                15.7046                21.1759

                     28                     29                     30
                      A                      A                      A
 Frequencies --   1183.3939              1188.1577              1199.7648
 Red. masses --      1.6751                 2.2273                 3.1977
 Frc consts  --      1.3821                 1.8526                 2.7119
 IR Inten    --     25.0180                45.1790                25.6637

                     31                     32                     33
                      A                      A                      A
 Frequencies --   1221.7536              1232.6545              1270.7486
 Red. masses --      1.5932                 1.6613                 1.8950
 Frc consts  --      1.4012                 1.4872                 1.8029
 IR Inten    --     17.3438                 0.9781                33.5935

                     34                     35                     36
                      A                      A                      A
 Frequencies --   1340.4747              1364.4366              1413.0688
 Red. masses --      1.8461                 1.5806                 1.2769
 Frc consts  --      1.9545                 1.7337                 1.5022
 IR Inten    --     10.5275                 1.9310                 8.3106

                     37                     38                     39
                      A                      A                      A
 Frequencies --   1418.7258              1487.6266              1491.5284
 Red. masses --      1.2414                 1.0555                 1.0701
 Frc consts  --      1.4721                 1.3762                 1.4026
 IR Inten    --      9.0831                 3.5977                 4.6501

                     40                     41                     42
                      A                      A                      A
 Frequencies --   1532.6978              1805.0958              2886.6502
 Red. masses --      1.1068                10.6113                 1.0837
 Frc consts  --      1.5318                20.3714                 5.3205
 IR Inten    --      2.5031               188.3581               115.0308

                     43                     44                     45
                      A                      A                      A
 Frequencies --   3036.5175              3037.3712              3079.1611
 Red. masses --      1.0579                 1.0656                 1.0578
 Frc consts  --      5.7473                 5.7920                 5.9088
 IR Inten    --     45.3530                 1.4293                30.8822

                     46                     47                     48
                      A                      A                      A
 Frequencies --   3099.9036              3105.8627              3113.5087
 Red. masses --      1.0958                 1.0903                 1.0925
 Frc consts  --      6.2038                 6.1967                 6.2398
 IR Inten    --     14.2262                71.0608                14.3840

                     49                     50                     51
                      A                      A                      A
 Frequencies --   3134.2344              3150.6658              3801.8798
 Red. masses --      1.1038                 1.1027                 1.0661
 Frc consts  --      6.3884                 6.4494                 9.0794
 IR Inten    --     22.3211                36.8679                31.7830

 - Thermochemistry -
 -------------------
 Temperature   298.150 Kelvin.  Pressure   1.00000 Atm.
 Atom     1 has atomic number  6 and mass  12.00000

 Molecular mass:   126.06808 amu.
 Principal axes and moments of inertia in atomic units:
                           1         2         3
     Eigenvalues --   633.993111198.309091530.21040
           X            0.99963   0.02038   0.01791
           Y           -0.02062   0.99970   0.01318
           Z           -0.01763  -0.01354   0.99975
 This molecule is an asymmetric top.
 Rotational symmetry number  1.
 Warning -- assumption of classical behavior for rotation
           may cause significant error
 Rotational temperatures (Kelvin)      0.13662     0.07228     0.05660
 Rotational constants (GHZ):           2.84663     1.50607     1.17941
 Zero-point vibrational energy     413522.0 (Joules/Mol)
                                   98.83413 (Kcal/Mol)
 Warning -- explicit consideration of  11 degrees of freedom as
           vibrations may cause significant error
 Vibrational temperatures:    139.85   206.06   272.10   344.17   351.71
          (Kelvin)            452.23   547.54   600.31   632.96   680.48
                              843.63   928.95   998.60  1099.42  1142.40
                             1211.38  1286.86  1302.51  1368.36  1444.00
                             1464.26  1481.27  1530.19  1543.14  1565.36
                             1603.41  1633.15  1702.64  1709.49  1726.19
                             1757.83  1773.51  1828.32  1928.64  1963.12
                             2033.09  2041.23  2140.36  2145.97  2205.21
                             2597.13  4153.24  4368.87  4370.09  4430.22
                             4460.06  4468.64  4479.64  4509.46  4533.10
                             5470.05

 Zero-point correction=                           0.157502 (Hartree/Particle)
 Thermal correction to Energy=                    0.166029
 Thermal correction to Enthalpy=                  0.166973
 Thermal correction to Gibbs Free Energy=         0.124692
 Sum of electronic and zero-point Energies=           -422.979896
 Sum of electronic and thermal Energies=              -422.971370
 Sum of electronic and thermal Enthalpies=            -422.970426
 Sum of electronic and thermal Free Energies=         -423.012707

                     E (Thermal)             CV                S
                      KCal/Mol        Cal/Mol-Kelvin    Cal/Mol-Kelvin
 Total                  104.185             33.117             88.988
 Electronic               0.000              0.000              0.000
 Translational            0.889              2.981             40.409
 Rotational               0.889              2.981             28.543
 Vibrational            102.407             27.156             20.036
 Vibration     1          0.603              1.951              3.510
 Vibration     2          0.616              1.910              2.760
 Vibration     3          0.633              1.855              2.236
 Vibration     4          0.657              1.780              1.809
 Vibration     5          0.660              1.772              1.770
 Vibration     6          0.702              1.646              1.340
 Vibration     7          0.750              1.512              1.037
 Vibration     8          0.780              1.433              0.901
 Vibration     9          0.800              1.383              0.827
 Vibration    10          0.830              1.310              0.729
 Vibration    11          0.943              1.061              0.474

 Optimization completed.
    -- Stationary point found.
 Normal termination of Gaussian 09 at Mon Jan 27 16:50:48 2020.
