 Gaussian 09, Revision D.01,
 Gaussian 09:  ES64L-G09RevD.01 24-Apr-2013

 -----------------------------
 # b3lyp 6-31G(2df,p) opt Freq
 -----------------------------

 -----
 titel
 -----
 Symbolic Z-matrix:
 Charge =  0 Multiplicity = 1

 SCF Done:  E(RB3LYP) =  -423.171173573     A.U. after   13 cycles
 Optimization completed.
    -- Stationary point found.
 Normal termination of Gaussian 09 at Tue Jan 28 03:45:25 2020.

 ----------------------------------------------------------------------
 #N Geom=AllCheck Guess=TCheck SCRF=Check GenChk RB3LYP/6-31G(2df,p) Fr
 eq
 ----------------------------------------------------------------------

 Structure from the checkpoint file:  "/scratch/puck/g09_558b9943-4773-4401-9545-22df9999d6e9/Gau-80602.chk"
 -----
 titel
 -----
 Charge =  0 Multiplicity = 1

                         Standard orientation:
 ---------------------------------------------------------------------
 Center     Atomic      Atomic             Coordinates (Angstroms)
 Number     Number       Type             X           Y           Z
 ---------------------------------------------------------------------
      1          8           0        2.066335   -0.931006    0.376442
      2          6           0        1.373750   -0.144684   -0.588697
      3          6           0        1.066463    1.316951   -0.127880
      4          6           0       -0.413341    1.258367    0.278028
      5          6           0       -0.590490    0.190075    1.400548
      6          6           0       -0.913154   -0.985346    0.460137
      7          8           0       -2.055636   -0.436743   -0.276004
      8          6           0       -1.056218    0.414217   -0.879438
      9          6           0       -0.020145   -0.729276   -0.798660
     10          1           0        2.948882   -0.562584    0.482890
     11          1           0        1.934186   -0.142103   -1.534289
     12          1           0        1.726665    1.630700    0.687209
     13          1           0        1.216208    2.012751   -0.962564
     14          1           0       -0.875539    2.224817    0.479020
     15          1           0        0.307012    0.042025    2.002094
     16          1           0       -1.445228    0.390639    2.049528
     17          1           0       -1.084546   -1.978054    0.873638
     18          1           0       -1.372760    0.912947   -1.795761
     19          1           0       -0.121663   -1.510972   -1.549492
 ---------------------------------------------------------------------

 SCF Done:  E(RB3LYP) =  -423.171173573     A.U. after    1 cycles

 The electronic state is 1-A.
 Alpha  occ. eigenvalues --  -19.13918 -19.12564 -10.23391 -10.23162 -10.22963
 Alpha  occ. eigenvalues --  -10.18555 -10.18516 -10.18256 -10.17318  -1.04419
 Alpha  occ. eigenvalues --   -1.01919  -0.83447  -0.73121  -0.71788  -0.67925
 Alpha  occ. eigenvalues --   -0.60806  -0.55044  -0.53108  -0.52519  -0.51113
 Alpha  occ. eigenvalues --   -0.47050  -0.44209  -0.41692  -0.41012  -0.38862
 Alpha  occ. eigenvalues --   -0.36477  -0.35444  -0.34563  -0.33676  -0.32815
 Alpha  occ. eigenvalues --   -0.30588  -0.29384  -0.26448  -0.23647
 Alpha virt. eigenvalues --    0.06743   0.09425   0.09895   0.11814   0.13794
 Alpha virt. eigenvalues --    0.14871   0.15042   0.15995   0.16337   0.17508
 Alpha virt. eigenvalues --    0.18122   0.19021   0.19773   0.20330   0.21765

 Mulliken charges:
               1
     1  O   -0.432197
     2  C    0.084478
     3  C   -0.255326
     4  C   -0.050682
     5  C   -0.218099
     6  C    0.078867
     7  O   -0.304497
     8  C    0.078328
     9  C   -0.029006
    10  H    0.283056
    11  H    0.066502
    12  H    0.093748
    13  H    0.094785
    14  H    0.064601
    15  H    0.107616
    16  H    0.102116
    17  H    0.080282
    18  H    0.076817
    19  H    0.078611
 Sum of Mulliken charges =   0.00000

 Dipole moment (field-independent basis, Debye):
    X=              2.3909    Y=              1.3133    Z=             -0.3822  Tot=              2.7545
 Quadrupole moment (field-independent basis, Debye-Ang):
   XX=            -53.5790   YY=            -53.2131   ZZ=            -51.2230
   XY=              0.8477   XZ=             -0.9001   YZ=             -0.4221

  Exact polarizability:  75.517   1.161  71.503  -0.651  -1.402  71.035
 Approx polarizability: 109.725   1.198 106.427   1.923  -4.072 106.727

                      1                      2                      3
                      A                      A                      A
 Frequencies --    158.6535               241.4008               294.3905
 Red. masses --      3.8520                 3.8640                 1.0909
 Frc consts  --      0.0571                 0.1327                 0.0557
 IR Inten    --      1.3062                 1.5184               104.5769

                      4                      5                      6
                      A                      A                      A
 Frequencies --    388.0604               421.4479               473.3128
 Red. masses --      2.0569                 2.3596                 4.9211
 Frc consts  --      0.1825                 0.2469                 0.6495
 IR Inten    --      0.4692                 6.8331                 6.9745

                      7                      8                      9
                      A                      A                      A
 Frequencies --    527.7454               591.6183               681.7691
 Red. masses --      4.1992                 4.5970                 3.9577
 Frc consts  --      0.6891                 0.9480                 1.0838
 IR Inten    --      5.6532                 2.8544                 1.8909

                     10                     11                     12
                      A                      A                      A
 Frequencies --    773.5152               796.5198               834.1368
 Red. masses --      2.9649                 2.9347                 3.4942
 Frc consts  --      1.0452                 1.0970                 1.4324
 IR Inten    --      0.2503                 3.0410                 0.8882

                     13                     14                     15
                      A                      A                      A
 Frequencies --    855.0849               865.5087               883.4621
 Red. masses --      3.5563                 2.9498                 2.3883
 Frc consts  --      1.5320                 1.3019                 1.0983
 IR Inten    --     32.9194                 1.4657                22.4409

                     16                     17                     18
                      A                      A                      A
 Frequencies --    906.4952               952.1418               957.7140
 Red. masses --      2.6932                 2.8469                 1.6516
 Frc consts  --      1.3039                 1.5206                 0.8925
 IR Inten    --     10.3506                20.1374                 4.8825

                     19                     20                     21
                      A                      A                      A
 Frequencies --    978.7700              1001.7840              1021.2730
 Red. masses --      2.0394                 2.3600                 1.8384
 Frc consts  --      1.1511                 1.3955                 1.1297
 IR Inten    --     11.6888                10.6439                 1.6339

                     22                     23                     24
                      A                      A                      A
 Frequencies --   1041.9602              1072.8161              1090.9715
 Red. masses --      2.4675                 1.7842                 1.3599
 Frc consts  --      1.5784                 1.2099                 0.9537
 IR Inten    --      8.7261                 5.2204                23.0287

                     25                     26                     27
                      A                      A                      A
 Frequencies --   1107.4714              1158.4410              1170.2510
 Red. masses --      2.1379                 2.0588                 1.2431
 Frc consts  --      1.5449                 1.6278                 1.0031
 IR Inten    --      4.9261                36.7859                 2.0278

                     28                     29                     30
                      A                      A                      A
 Frequencies --   1197.3562              1221.1562              1242.3190
 Red. masses --      1.3748                 1.3570                 1.3801
 Frc consts  --      1.1613                 1.1922                 1.2549
 IR Inten    --      2.3388                 2.0007                48.7406

                     31                     32                     33
                      A                      A                      A
 Frequencies --   1243.6760              1260.9660              1298.2124
 Red. masses --      1.3715                 1.4733                 1.3512
 Frc consts  --      1.2498                 1.3802                 1.3417
 IR Inten    --      3.2683                 2.2149                 2.9481

                     34                     35                     36
                      A                      A                      A
 Frequencies --   1309.3283              1314.7952              1333.5927
 Red. masses --      1.5467                 1.5717                 1.7618
 Frc consts  --      1.5623                 1.6008                 1.8461
 IR Inten    --     14.7806                 5.9495                10.2268

                     37                     38                     39
                      A                      A                      A
 Frequencies --   1352.4619              1369.8980              1429.2341
 Red. masses --      1.3642                 1.5994                 1.5123
 Frc consts  --      1.4702                 1.7684                 1.8201
 IR Inten    --      3.1055                 6.4493                 4.9917

                     40                     41                     42
                      A                      A                      A
 Frequencies --   1477.7149              1490.8482              2990.2964
 Red. masses --      1.1009                 1.1027                 1.0841
 Frc consts  --      1.4164                 1.4440                 5.7116
 IR Inten    --      2.1035                 3.8541                48.5204

                     43                     44                     45
                      A                      A                      A
 Frequencies --   3031.8930              3078.2175              3081.2461
 Red. masses --      1.0631                 1.0659                 1.0960
 Frc consts  --      5.7575                 5.9506                 6.1309
 IR Inten    --     47.2205                 8.7907                35.9354

                     46                     47                     48
                      A                      A                      A
 Frequencies --   3108.6673              3120.1124              3129.5692
 Red. masses --      1.0878                 1.0897                 1.0893
 Frc consts  --      6.1937                 6.2501                 6.2861
 IR Inten    --     24.5455                55.6013                34.1668

                     49                     50                     51
                      A                      A                      A
 Frequencies --   3139.0054              3140.2834              3818.3180
 Red. masses --      1.1053                 1.0937                 1.0663
 Frc consts  --      6.4169                 6.3548                 9.1595
 IR Inten    --     19.4799                25.4904                18.7842

 - Thermochemistry -
 -------------------
 Temperature   298.150 Kelvin.  Pressure   1.00000 Atm.
 Atom     1 has atomic number  8 and mass  15.99491

 Molecular mass:   126.06808 amu.
 Principal axes and moments of inertia in atomic units:
                           1         2         3
     Eigenvalues --   597.909631055.601531148.58822
           X            0.99975   0.01534  -0.01648
           Y           -0.01532   0.99988   0.00142
           Z            0.01650  -0.00117   0.99986
 This molecule is an asymmetric top.
 Rotational symmetry number  1.
 Warning -- assumption of classical behavior for rotation
           may cause significant error
 Rotational temperatures (Kelvin)      0.14486     0.08205     0.07541
 Rotational constants (GHZ):           3.01842     1.70968     1.57127
 Zero-point vibrational energy     427221.7 (Joules/Mol)
                                  102.10843 (Kcal/Mol)
 Warning -- explicit consideration of   8 degrees of freedom as
           vibrations may cause significant error
 Vibrational temperatures:    228.27   347.32   423.56   558.33   606.37
          (Kelvin)            680.99   759.31   851.21   980.91  1112.91
                             1146.01  1200.14  1230.27  1245.27  1271.10
                             1304.24  1369.92  1377.94  1408.23  1441.34
                             1469.38  1499.15  1543.54  1569.66  1593.40
                             1666.74  1683.73  1722.73  1756.97  1787.42
                             1789.37  1814.25  1867.84  1883.83  1891.69
                             1918.74  1945.89  1970.98  2056.35  2126.10
                             2145.00  4302.36  4362.21  4428.86  4433.22
                             4472.67  4489.14  4502.75  4516.32  4518.16
                             5493.70

 Zero-point correction=                           0.162720 (Hartree/Particle)
 Thermal correction to Energy=                    0.169418
 Thermal correction to Enthalpy=                  0.170362
 Thermal correction to Gibbs Free Energy=         0.131984
 Sum of electronic and zero-point Energies=           -423.008453
 Sum of electronic and thermal Energies=              -423.001756
 Sum of electronic and thermal Enthalpies=            -423.000811
 Sum of electronic and thermal Free Energies=         -423.039189

                     E (Thermal)             CV                S
                      KCal/Mol        Cal/Mol-Kelvin    Cal/Mol-Kelvin
 Total                  106.311             28.355             80.773
 Electronic               0.000              0.000              0.000
 Translational            0.889              2.981             40.409
 Rotational               0.889              2.981             28.074
 Vibrational            104.534             22.394             12.291
 Vibration     1          0.621              1.893              2.566
 Vibration     2          0.658              1.777              1.793
 Vibration     3          0.689              1.684              1.449
 Vibration     4          0.756              1.496              1.008
 Vibration     5          0.784              1.424              0.887
 Vibration     6          0.830              1.309              0.728
 Vibration     7          0.883              1.189              0.592
 Vibration     8          0.949              1.050              0.464

 Optimization completed.
    -- Stationary point found.
 Normal termination of Gaussian 09 at Tue Jan 28 04:31:17 2020.
