 Gaussian 09, Revision D.01,
 Gaussian 09:  ES64L-G09RevD.01 24-Apr-2013

 -----------------------------
 # b3lyp 6-31G(2df,p) opt Freq
 -----------------------------

 -----
 titel
 -----
 Symbolic Z-matrix:
 Charge =  0 Multiplicity = 1

 SCF Done:  E(RB3LYP) =  -423.167400118     A.U. after   14 cycles
 Optimization completed.
    -- Stationary point found.
 Normal termination of Gaussian 09 at Mon Jan 27 22:03:01 2020.

 ----------------------------------------------------------------------
 #N Geom=AllCheck Guess=TCheck SCRF=Check GenChk RB3LYP/6-31G(2df,p) Fr
 eq
 ----------------------------------------------------------------------

 Structure from the checkpoint file:  "/scratch/puck/g09_e732b61c-fac4-4f6d-9ebf-3c32c78002a9/Gau-180994.chk"
 -----
 titel
 -----
 Charge =  0 Multiplicity = 1

                         Standard orientation:
 ---------------------------------------------------------------------
 Center     Atomic      Atomic             Coordinates (Angstroms)
 Number     Number       Type             X           Y           Z
 ---------------------------------------------------------------------
      1          6           0       -0.558324    2.260477    0.122344
      2          6           0       -0.942848    0.817442    0.069634
      3          6           0       -2.107980    0.265382   -0.258801
      4          6           0       -2.037642   -1.227931   -0.135705
      5          8           0       -0.694441   -1.503080    0.265575
      6          6           0        0.029507   -0.285867    0.431884
      7          6           0        1.264022   -0.320569   -0.450560
      8          6           0        2.563916   -0.757428    0.065843
      9          8           0        2.281909    0.631625   -0.131567
     10          1           0       -0.258234    2.548107    1.137522
     11          1           0        0.304275    2.466287   -0.520536
     12          1           0       -1.385859    2.904497   -0.185536
     13          1           0       -3.005056    0.792613   -0.560304
     14          1           0       -2.739310   -1.621894    0.616906
     15          1           0       -2.253594   -1.749275   -1.081002
     16          1           0        0.369190   -0.186736    1.477393
     17          1           0        1.058582   -0.433116   -1.516041
     18          1           0        2.646525   -1.073493    1.104854
     19          1           0        3.299825   -1.184385   -0.613143
 ---------------------------------------------------------------------

 SCF Done:  E(RB3LYP) =  -423.167400118     A.U. after    1 cycles

 The electronic state is 1-A.
 Alpha  occ. eigenvalues --  -19.15272 -19.13692 -10.23595 -10.23521 -10.23330
 Alpha  occ. eigenvalues --  -10.23020 -10.19192 -10.18413 -10.18179  -1.07196
 Alpha  occ. eigenvalues --   -1.03424  -0.80606  -0.75591  -0.70271  -0.66433
 Alpha  occ. eigenvalues --   -0.63453  -0.58382  -0.54928  -0.50506  -0.48921
 Alpha  occ. eigenvalues --   -0.47636  -0.44762  -0.43281  -0.41636  -0.41000
 Alpha  occ. eigenvalues --   -0.39260  -0.37758  -0.37554  -0.35656  -0.32376
 Alpha  occ. eigenvalues --   -0.30043  -0.27656  -0.26638  -0.23170
 Alpha virt. eigenvalues --    0.01890   0.08942   0.10626   0.11249   0.12182
 Alpha virt. eigenvalues --    0.12491   0.13301   0.14150   0.15588   0.16179
 Alpha virt. eigenvalues --    0.17926   0.18151   0.18547   0.19567   0.22292

 Mulliken charges:
               1
     1  C   -0.491230
     2  C    0.307409
     3  C   -0.216105
     4  C   -0.116656
     5  O   -0.279507
     6  C    0.012804
     7  C    0.072992
     8  C   -0.176790
     9  O   -0.238304
    10  H    0.132862
    11  H    0.149924
    12  H    0.121946
    13  H    0.100439
    14  H    0.104982
    15  H    0.105862
    16  H    0.079920
    17  H    0.094465
    18  H    0.117987
    19  H    0.117001
 Sum of Mulliken charges =   0.00000

 Dipole moment (field-independent basis, Debye):
    X=             -1.0263    Y=              0.0782    Z=             -0.2799  Tot=              1.0667
 Quadrupole moment (field-independent basis, Debye-Ang):
   XX=            -50.1114   YY=            -54.9245   ZZ=            -51.9175
   XY=             -4.2570   XZ=              1.1219   YZ=              0.9028

  Exact polarizability:  97.859   3.766  76.858   6.525   1.511  60.336
 Approx polarizability: 135.295  11.943 111.415  13.304   2.972  92.923

                      1                      2                      3
                      A                      A                      A
 Frequencies --     71.9717                82.3565               156.8735
 Red. masses --      3.8638                 3.4499                 3.3249
 Frc consts  --      0.0118                 0.0138                 0.0482
 IR Inten    --      1.7226                 2.7851                 6.5773

                      4                      5                      6
                      A                      A                      A
 Frequencies --    172.8042               244.9829               283.9515
 Red. masses --      1.0761                 2.1334                 2.7647
 Frc consts  --      0.0189                 0.0754                 0.1313
 IR Inten    --      0.8405                 0.8093                 1.1388

                      7                      8                      9
                      A                      A                      A
 Frequencies --    294.5770               355.1709               444.7329
 Red. masses --      3.5421                 4.4172                 3.3845
 Frc consts  --      0.1811                 0.3283                 0.3944
 IR Inten    --      6.1792                 0.1709                 0.9464

                     10                     11                     12
                      A                      A                      A
 Frequencies --    562.4050               615.9497               775.6278
 Red. masses --      3.2882                 4.8787                 6.7729
 Frc consts  --      0.6128                 1.0905                 2.4007
 IR Inten    --      6.0887                 2.2621                 6.5288

                     13                     14                     15
                      A                      A                      A
 Frequencies --    806.0603               856.0502               865.4156
 Red. masses --      1.2841                 1.7076                 4.5277
 Frc consts  --      0.4916                 0.7373                 1.9979
 IR Inten    --      6.8175                11.9713                13.7134

                     16                     17                     18
                      A                      A                      A
 Frequencies --    914.2692               940.9322               962.3903
 Red. masses --      3.9434                 2.7100                 2.5690
 Frc consts  --      1.9421                 1.4136                 1.4019
 IR Inten    --     48.1324                 6.0911                10.8474

                     19                     20                     21
                      A                      A                      A
 Frequencies --    993.0072              1036.4424              1047.1347
 Red. masses --      1.9080                 1.5498                 1.7107
 Frc consts  --      1.1085                 0.9809                 1.1052
 IR Inten    --      2.1531                 8.6947                 8.9452

                     22                     23                     24
                      A                      A                      A
 Frequencies --   1065.8366              1095.9883              1106.6434
 Red. masses --      1.5124                 1.4287                 4.5859
 Frc consts  --      1.0123                 1.0111                 3.3090
 IR Inten    --      1.9609                 5.7303                88.1902

                     25                     26                     27
                      A                      A                      A
 Frequencies --   1140.8960              1157.5247              1175.3041
 Red. masses --      2.0564                 1.4214                 1.4771
 Frc consts  --      1.5771                 1.1221                 1.2022
 IR Inten    --     12.7383                 2.3844                 6.6683

                     28                     29                     30
                      A                      A                      A
 Frequencies --   1195.1476              1209.4320              1279.5853
 Red. masses --      1.1596                 2.2828                 1.4487
 Frc consts  --      0.9759                 1.9674                 1.3975
 IR Inten    --      1.9462                 4.7928                 3.8595

                     31                     32                     33
                      A                      A                      A
 Frequencies --   1280.1756              1310.8569              1340.1806
 Red. masses --      1.3262                 1.3673                 2.2295
 Frc consts  --      1.2806                 1.3843                 2.3593
 IR Inten    --      7.8380                18.7750                 0.1402

                     34                     35                     36
                      A                      A                      A
 Frequencies --   1378.8558              1420.0344              1444.4746
 Red. masses --      1.4630                 1.2809                 1.7808
 Frc consts  --      1.6388                 1.5218                 2.1892
 IR Inten    --      8.9039                 2.2778                 1.9408

                     37                     38                     39
                      A                      A                      A
 Frequencies --   1478.9418              1486.9660              1524.3287
 Red. masses --      1.0445                 1.0594                 1.0882
 Frc consts  --      1.3460                 1.3802                 1.4898
 IR Inten    --      6.5282                 7.6970                 1.7443

                     40                     41                     42
                      A                      A                      A
 Frequencies --   1526.9827              1733.6905              2952.8120
 Red. masses --      1.3488                 7.3795                 1.0817
 Frc consts  --      1.8530                13.0683                 5.5568
 IR Inten    --      2.4534                 4.3103                58.5394

                     43                     44                     45
                      A                      A                      A
 Frequencies --   2974.1463              2992.7421              3029.5866
 Red. masses --      1.0600                 1.1020                 1.0386
 Frc consts  --      5.5244                 5.8154                 5.6165
 IR Inten    --     87.5504                48.6556                20.8704

                     46                     47                     48
                      A                      A                      A
 Frequencies --   3082.4451              3086.5801              3105.5701
 Red. masses --      1.0959                 1.0500                 1.0891
 Frc consts  --      6.1349                 5.8936                 6.1886
 IR Inten    --     10.1547                28.8741                19.1653

                     49                     50                     51
                      A                      A                      A
 Frequencies --   3119.4582              3175.6383              3208.1395
 Red. masses --      1.1015                 1.1197                 1.0951
 Frc consts  --      6.3154                 6.6527                 6.6407
 IR Inten    --     18.5455                24.4685                 8.3325

 - Thermochemistry -
 -------------------
 Temperature   298.150 Kelvin.  Pressure   1.00000 Atm.
 Atom     1 has atomic number  6 and mass  12.00000

 Molecular mass:   126.06808 amu.
 Principal axes and moments of inertia in atomic units:
                           1         2         3
     Eigenvalues --   667.903541310.285891856.89420
           X            0.99956  -0.02897   0.00605
           Y            0.02891   0.99954   0.00911
           Z           -0.00631  -0.00893   0.99994
 This molecule is an asymmetric top.
 Rotational symmetry number  1.
 Warning -- assumption of classical behavior for rotation
           may cause significant error
 Rotational temperatures (Kelvin)      0.12968     0.06610     0.04664
 Rotational constants (GHZ):           2.70210     1.37736     0.97191
 Zero-point vibrational energy     416073.6 (Joules/Mol)
                                   99.44397 (Kcal/Mol)
 Warning -- explicit consideration of  11 degrees of freedom as
           vibrations may cause significant error
 Vibrational temperatures:    103.55   118.49   225.71   248.63   352.48
          (Kelvin)            408.54   423.83   511.01   639.87   809.17
                              886.21  1115.95  1159.74  1231.66  1245.14
                             1315.43  1353.79  1384.66  1428.71  1491.21
                             1506.59  1533.50  1576.88  1592.21  1641.49
                             1665.42  1691.00  1719.55  1740.10  1841.04
                             1841.88  1886.03  1928.22  1983.86  2043.11
                             2078.27  2127.86  2139.41  2193.17  2196.98
                             2494.39  4248.43  4279.13  4305.88  4358.89
                             4434.95  4440.89  4468.22  4488.20  4569.03
                             4615.79

 Zero-point correction=                           0.158474 (Hartree/Particle)
 Thermal correction to Energy=                    0.167206
 Thermal correction to Enthalpy=                  0.168150
 Thermal correction to Gibbs Free Energy=         0.124515
 Sum of electronic and zero-point Energies=           -423.008926
 Sum of electronic and thermal Energies=              -423.000195
 Sum of electronic and thermal Enthalpies=            -422.999250
 Sum of electronic and thermal Free Energies=         -423.042885

                     E (Thermal)             CV                S
                      KCal/Mol        Cal/Mol-Kelvin    Cal/Mol-Kelvin
 Total                  104.923             31.911             91.836
 Electronic               0.000              0.000              0.000
 Translational            0.889              2.981             40.409
 Rotational               0.889              2.981             28.876
 Vibrational            103.146             25.950             22.552
 Vibration     1          0.598              1.967              4.099
 Vibration     2          0.600              1.961              3.834
 Vibration     3          0.621              1.895              2.587
 Vibration     4          0.626              1.876              2.405
 Vibration     5          0.660              1.771              1.766
 Vibration     6          0.682              1.703              1.510
 Vibration     7          0.689              1.684              1.448
 Vibration     8          0.731              1.565              1.143
 Vibration     9          0.804              1.373              0.812
 Vibration    10          0.918              1.113              0.519
 Vibration    11          0.976              0.998              0.423

 Normal termination of Gaussian 09 at Mon Jan 27 22:44:46 2020.
