 Gaussian 09, Revision D.01,
 Gaussian 09:  ES64L-G09RevD.01 24-Apr-2013

 -----------------------------
 # b3lyp 6-31G(2df,p) opt Freq
 -----------------------------

 -----
 titel
 -----
 Symbolic Z-matrix:
 Charge =  0 Multiplicity = 1

 SCF Done:  E(RB3LYP) =  -423.170616789     A.U. after   13 cycles
 Optimization completed.
    -- Stationary point found.
 Normal termination of Gaussian 09 at Mon Jan 27 16:23:38 2020.

 ----------------------------------------------------------------------
 #N Geom=AllCheck Guess=TCheck SCRF=Check GenChk RB3LYP/6-31G(2df,p) Fr
 eq
 ----------------------------------------------------------------------

 Structure from the checkpoint file:  "/scratch/puck/g09_bc3f97d4-baf8-4c35-9c2a-06fa6f90102c/Gau-12109.chk"
 -----
 titel
 -----
 Charge =  0 Multiplicity = 1

                         Standard orientation:
 ---------------------------------------------------------------------
 Center     Atomic      Atomic             Coordinates (Angstroms)
 Number     Number       Type             X           Y           Z
 ---------------------------------------------------------------------
      1          6           0        2.133317    1.035536   -0.665842
      2          6           0        1.329358   -0.069365   -0.029675
      3          8           0        1.645643   -1.321431   -0.564627
      4          6           0        0.945770   -0.003890    1.439957
      5          6           0       -0.124216    0.107453    0.372700
      6          8           0       -0.927090   -1.048823    0.162519
      7          6           0       -2.220768   -0.650429   -0.308387
      8          6           0       -2.188810    0.853155   -0.297607
      9          6           0       -0.988781    1.270743    0.097660
     10          1           0        1.936484    1.087404   -1.741283
     11          1           0        1.903296    2.007332   -0.220472
     12          1           0        3.202625    0.844462   -0.525726
     13          1           0        0.811438   -1.809227   -0.621028
     14          1           0        0.968838   -0.938449    1.990387
     15          1           0        1.191973    0.883130    2.015786
     16          1           0       -2.397389   -1.063138   -1.313669
     17          1           0       -2.989790   -1.069217    0.357261
     18          1           0       -3.033370    1.466126   -0.583120
     19          1           0       -0.657747    2.294393    0.205895
 ---------------------------------------------------------------------

 SCF Done:  E(RB3LYP) =  -423.170616789     A.U. after    1 cycles

 The electronic state is 1-A.
 Alpha  occ. eigenvalues --  -19.15342 -19.12688 -10.24137 -10.24088 -10.23461
 Alpha  occ. eigenvalues --  -10.19503 -10.19256 -10.17652 -10.17536  -1.05428
 Alpha  occ. eigenvalues --   -1.01196  -0.84075  -0.79428  -0.72246  -0.68975
 Alpha  occ. eigenvalues --   -0.58454  -0.57876  -0.55458  -0.53051  -0.48545
 Alpha  occ. eigenvalues --   -0.46805  -0.45182  -0.42236  -0.41439  -0.39942
 Alpha  occ. eigenvalues --   -0.38278  -0.37746  -0.37427  -0.34557  -0.33720
 Alpha  occ. eigenvalues --   -0.32338  -0.28515  -0.24245  -0.21306
 Alpha virt. eigenvalues --    0.00841   0.07560   0.10888   0.11796   0.13044
 Alpha virt. eigenvalues --    0.14463   0.14786   0.15358   0.15495   0.16176
 Alpha virt. eigenvalues --    0.17470   0.19025   0.19378   0.22178   0.22393

 Mulliken charges:
               1
     1  C   -0.440215
     2  C    0.371804
     3  O   -0.477062
     4  C   -0.411522
     5  C    0.354793
     6  O   -0.325828
     7  C   -0.133175
     8  C   -0.111411
     9  C   -0.163803
    10  H    0.122639
    11  H    0.108482
    12  H    0.129326
    13  H    0.291379
    14  H    0.123406
    15  H    0.109818
    16  H    0.111821
    17  H    0.114764
    18  H    0.110103
    19  H    0.114680
 Sum of Mulliken charges =   0.00000

 Dipole moment (field-independent basis, Debye):
    X=             -1.9988    Y=              1.6607    Z=             -0.0257  Tot=              2.5988
 Quadrupole moment (field-independent basis, Debye-Ang):
   XX=            -51.9512   YY=            -51.8181   ZZ=            -53.5632
   XY=              2.8535   XZ=              2.8677   YZ=              0.3323

  Exact polarizability: 100.147   4.256  72.650   7.208   1.311  65.013
 Approx polarizability: 141.787   6.412 107.518  13.009   5.003  97.734

                      1                      2                      3
                      A                      A                      A
 Frequencies --     93.1445               153.6726               171.6819
 Red. masses --      3.1439                 3.4150                 2.8317
 Frc consts  --      0.0161                 0.0475                 0.0492
 IR Inten    --      0.8674                 0.9910                 0.7428

                      4                      5                      6
                      A                      A                      A
 Frequencies --    206.1455               262.9667               342.1650
 Red. masses --      1.1435                 3.4256                 2.8143
 Frc consts  --      0.0286                 0.1396                 0.1941
 IR Inten    --      0.2400                 6.3318                 1.0117

                      7                      8                      9
                      A                      A                      A
 Frequencies --    378.7652               416.3056               432.1715
 Red. masses --      2.0829                 2.0740                 1.7716
 Frc consts  --      0.1761                 0.2118                 0.1950
 IR Inten    --     20.1705                22.1487                20.2351

                     10                     11                     12
                      A                      A                      A
 Frequencies --    463.7693               533.3225               596.9078
 Red. masses --      1.9788                 3.3489                 3.2016
 Frc consts  --      0.2508                 0.5612                 0.6721
 IR Inten    --      7.2373                 2.7585                10.0165

                     13                     14                     15
                      A                      A                      A
 Frequencies --    699.7404               780.0253               785.1163
 Red. masses --      1.5800                 6.4694                 2.8670
 Frc consts  --      0.4558                 2.3192                 1.0412
 IR Inten    --      6.7649                 5.1234                20.8111

                     16                     17                     18
                      A                      A                      A
 Frequencies --    835.1892               878.5747               895.9405
 Red. masses --      4.5297                 1.7366                 2.0097
 Frc consts  --      1.8616                 0.7898                 0.9505
 IR Inten    --     11.0829                 9.9609                13.0071

                     19                     20                     21
                      A                      A                      A
 Frequencies --    915.1835               947.4236               957.0205
 Red. masses --      1.9969                 1.2676                 2.4762
 Frc consts  --      0.9854                 0.6704                 1.3362
 IR Inten    --     20.4891                 0.2448                 0.9452

                     22                     23                     24
                      A                      A                      A
 Frequencies --    976.7489              1027.1161              1035.6164
 Red. masses --      1.9420                 1.9382                 1.5864
 Frc consts  --      1.0916                 1.2047                 1.0024
 IR Inten    --     14.1209                46.9924                16.1197

                     25                     26                     27
                      A                      A                      A
 Frequencies --   1045.0215              1102.0877              1115.8455
 Red. masses --      1.6350                 1.6086                 1.6838
 Frc consts  --      1.0520                 1.1511                 1.2352
 IR Inten    --      9.8947                13.8033                55.8463

                     28                     29                     30
                      A                      A                      A
 Frequencies --   1166.3168              1198.1940              1211.9507
 Red. masses --      2.8529                 1.0934                 2.6482
 Frc consts  --      2.2865                 0.9249                 2.2917
 IR Inten    --     21.6628                 2.8512                37.4251

                     31                     32                     33
                      A                      A                      A
 Frequencies --   1255.5065              1322.7843              1379.5971
 Red. masses --      2.1771                 1.9711                 1.5397
 Frc consts  --      2.0219                 2.0320                 1.7266
 IR Inten    --    116.3987                10.3104                 5.9583

                     34                     35                     36
                      A                      A                      A
 Frequencies --   1391.9306              1400.6456              1429.6851
 Red. masses --      1.7878                 1.3699                 1.4023
 Frc consts  --      2.0408                 1.5834                 1.6888
 IR Inten    --     19.5986                26.7279                13.3845

                     37                     38                     39
                      A                      A                      A
 Frequencies --   1466.6304              1480.3541              1503.6292
 Red. masses --      1.5324                 1.1000                 1.1820
 Frc consts  --      1.9421                 1.4203                 1.5745
 IR Inten    --     31.2962                 7.8210                 4.0758

                     40                     41                     42
                      A                      A                      A
 Frequencies --   1520.4965              1675.8909              2982.0551
 Red. masses --      1.0862                 6.5098                 1.0592
 Frc consts  --      1.4796                10.7723                 5.5498
 IR Inten    --      2.2520                 1.2838                89.8803

                     43                     44                     45
                      A                      A                      A
 Frequencies --   3005.6659              3035.8325              3101.3645
 Red. masses --      1.1031                 1.0351                 1.1012
 Frc consts  --      5.8713                 5.6205                 6.2406
 IR Inten    --     44.8838                24.9682                20.7494

                     46                     47                     48
                      A                      A                      A
 Frequencies --   3115.7912              3121.6739              3216.7910
 Red. masses --      1.0964                 1.0585                 1.0871
 Frc consts  --      6.2715                 6.0771                 6.6277
 IR Inten    --     16.1996                14.3868                 0.9737

                     49                     50                     51
                      A                      A                      A
 Frequencies --   3219.5914              3240.9621              3728.3985
 Red. masses --      1.1162                 1.1058                 1.0650
 Frc consts  --      6.8169                 6.8432                 8.7230
 IR Inten    --      4.2062                 5.8503                56.2962

 - Thermochemistry -
 -------------------
 Temperature   298.150 Kelvin.  Pressure   1.00000 Atm.
 Atom     1 has atomic number  6 and mass  12.00000

 Molecular mass:   126.06808 amu.
 Principal axes and moments of inertia in atomic units:
                           1         2         3
     Eigenvalues --   592.620251326.915431535.31646
           X            0.99938   0.03453   0.00726
           Y           -0.03440   0.99924  -0.01812
           Z           -0.00788   0.01786   0.99981
 This molecule is an asymmetric top.
 Rotational symmetry number  1.
 Warning -- assumption of classical behavior for rotation
           may cause significant error
 Rotational temperatures (Kelvin)      0.14615     0.06527     0.05641
 Rotational constants (GHZ):           3.04536     1.36010     1.17548
 Zero-point vibrational energy     414024.0 (Joules/Mol)
                                   98.95411 (Kcal/Mol)
 Warning -- explicit consideration of  12 degrees of freedom as
           vibrations may cause significant error
 Vibrational temperatures:    134.01   221.10   247.01   296.60   378.35
          (Kelvin)            492.30   544.96   598.97   621.80   667.26
                              767.33   858.82  1006.77  1122.28  1129.61
                             1201.65  1264.07  1289.06  1316.74  1363.13
                             1376.94  1405.32  1477.79  1490.02  1503.55
                             1585.66  1605.45  1678.07  1723.93  1743.72
                             1806.39  1903.19  1984.93  2002.68  2015.21
                             2057.00  2110.15  2129.90  2163.38  2187.65
                             2411.23  4290.51  4324.48  4367.88  4462.17
                             4482.92  4491.39  4628.24  4632.27  4663.02
                             5364.33

 Zero-point correction=                           0.157693 (Hartree/Particle)
 Thermal correction to Energy=                    0.166340
 Thermal correction to Enthalpy=                  0.167284
 Thermal correction to Gibbs Free Energy=         0.124760
 Sum of electronic and zero-point Energies=           -423.012923
 Sum of electronic and thermal Energies=              -423.004277
 Sum of electronic and thermal Enthalpies=            -423.003333
 Sum of electronic and thermal Free Energies=         -423.045857

                     E (Thermal)             CV                S
                      KCal/Mol        Cal/Mol-Kelvin    Cal/Mol-Kelvin
 Total                  104.380             33.594             89.499
 Electronic               0.000              0.000              0.000
 Translational            0.889              2.981             40.409
 Rotational               0.889              2.981             28.581
 Vibrational            102.602             27.632             20.509
 Vibration     1          0.602              1.954              3.593
 Vibration     2          0.619              1.899              2.626
 Vibration     3          0.626              1.877              2.417
 Vibration     4          0.641              1.831              2.078
 Vibration     5          0.670              1.741              1.642
 Vibration     6          0.721              1.591              1.202
 Vibration     7          0.749              1.515              1.044
 Vibration     8          0.780              1.435              0.905
 Vibration     9          0.793              1.400              0.852
 Vibration    10          0.821              1.330              0.755
 Vibration    11          0.888              1.176              0.580
 Vibration    12          0.955              1.038              0.455

 Normal termination of Gaussian 09 at Mon Jan 27 18:19:25 2020.
