 Gaussian 09, Revision D.01,
 Gaussian 09:  ES64L-G09RevD.01 24-Apr-2013

 -----------------------------
 # b3lyp 6-31G(2df,p) opt Freq
 -----------------------------

 -----
 titel
 -----
 Symbolic Z-matrix:
 Charge =  0 Multiplicity = 1

 SCF Done:  E(RB3LYP) =  -423.192722306     A.U. after   14 cycles
 Optimization completed.
    -- Stationary point found.
 Normal termination of Gaussian 09 at Mon Jan 27 13:52:00 2020.

 ----------------------------------------------------------------------
 #N Geom=AllCheck Guess=TCheck SCRF=Check GenChk RB3LYP/6-31G(2df,p) Fr
 eq
 ----------------------------------------------------------------------

 Structure from the checkpoint file:  "/scratch/puck/g09_ae02d689-2cca-464f-8ffb-7e8bdfbf1624/Gau-47142.chk"
 -----
 titel
 -----
 Charge =  0 Multiplicity = 1

                         Standard orientation:
 ---------------------------------------------------------------------
 Center     Atomic      Atomic             Coordinates (Angstroms)
 Number     Number       Type             X           Y           Z
 ---------------------------------------------------------------------
      1          8           0       -4.038445   -0.539740   -0.211146
      2          6           0       -3.006490   -0.399440    0.391388
      3          6           0       -1.627447   -0.424713   -0.227778
      4          6           0       -0.853978    0.878406    0.049359
      5          6           0        0.570633    0.831500   -0.461217
      6          6           0        1.644361    1.670609    0.139331
      7          6           0        1.646115    0.167033    0.395546
      8          6           0        2.668507   -0.662677   -0.276593
      9          8           0        3.161665   -1.662143    0.183135
     10          1           0       -3.006974   -0.227286    1.494481
     11          1           0       -1.076289   -1.266031    0.215949
     12          1           0       -1.728775   -0.610634   -1.300901
     13          1           0       -1.378917    1.719754   -0.419998
     14          1           0       -0.846708    1.081215    1.128056
     15          1           0        0.659753    0.645614   -1.529645
     16          1           0        2.416550    2.069363   -0.510462
     17          1           0        1.402004    2.300336    0.988317
     18          1           0        1.360270   -0.177043    1.384166
     19          1           0        2.963116   -0.284540   -1.286097
 ---------------------------------------------------------------------

 SCF Done:  E(RB3LYP) =  -423.192722306     A.U. after    1 cycles

 The electronic state is 1-A.
 Alpha  occ. eigenvalues --  -19.14552 -19.13667 -10.27783 -10.27374 -10.22392
 Alpha  occ. eigenvalues --  -10.21529 -10.21527 -10.21378 -10.20470  -1.05237
 Alpha  occ. eigenvalues --   -1.04488  -0.89404  -0.80160  -0.69944  -0.66405
 Alpha  occ. eigenvalues --   -0.59829  -0.58699  -0.58154  -0.50775  -0.49390
 Alpha  occ. eigenvalues --   -0.48157  -0.44994  -0.43895  -0.43132  -0.42333
 Alpha  occ. eigenvalues --   -0.40812  -0.39730  -0.38073  -0.37416  -0.36517
 Alpha  occ. eigenvalues --   -0.32311  -0.30342  -0.25697  -0.25372
 Alpha virt. eigenvalues --   -0.02797  -0.02235   0.07524   0.08613   0.09976
 Alpha virt. eigenvalues --    0.11156   0.12065   0.13012   0.14216   0.15169
 Alpha virt. eigenvalues --    0.15879   0.16689   0.17950   0.20233   0.20982

 Mulliken charges:
               1
     1  O   -0.231969
     2  C    0.158085
     3  C   -0.268737
     4  C   -0.229487
     5  C   -0.001328
     6  C   -0.314115
     7  C   -0.090771
     8  C    0.163531
     9  O   -0.265827
    10  H    0.071057
    11  H    0.129084
    12  H    0.124453
    13  H    0.122304
    14  H    0.106337
    15  H    0.100900
    16  H    0.128187
    17  H    0.129801
    18  H    0.105153
    19  H    0.063341
 Sum of Mulliken charges =   0.00000

 Dipole moment (field-independent basis, Debye):
    X=              0.7099    Y=              2.9271    Z=              0.2288  Tot=              3.0207
 Quadrupole moment (field-independent basis, Debye-Ang):
   XX=            -75.8947   YY=            -56.1921   ZZ=            -50.7778
   XY=              5.9819   XZ=             -5.3433   YZ=              0.5016

  Exact polarizability:  95.846  -3.868  73.918  -0.032  -0.722  68.337
 Approx polarizability: 123.945 -10.342 115.499   7.985  -5.013 107.660

                      1                      2                      3
                      A                      A                      A
 Frequencies --     44.4288                63.4661                77.1738
 Red. masses --      7.3379                 2.9532                 4.8593
 Frc consts  --      0.0085                 0.0070                 0.0171
 IR Inten    --      7.2107                 4.5833                 2.2186

                      4                      5                      6
                      A                      A                      A
 Frequencies --    111.8094               152.0710               238.5514
 Red. masses --      2.2945                 3.5229                 2.4946
 Frc consts  --      0.0169                 0.0480                 0.0836
 IR Inten    --      0.1596                 2.8942                 3.1543

                      7                      8                      9
                      A                      A                      A
 Frequencies --    269.4150               311.2789               405.3209
 Red. masses --      2.4014                 3.2083                 2.4766
 Frc consts  --      0.1027                 0.1832                 0.2397
 IR Inten    --      2.8877                 2.1290                 0.4501

                     10                     11                     12
                      A                      A                      A
 Frequencies --    429.1767               509.2038               526.1458
 Red. masses --      3.1457                 4.3617                 2.5187
 Frc consts  --      0.3414                 0.6663                 0.4108
 IR Inten    --      2.5603                 7.9669                22.7578

                     13                     14                     15
                      A                      A                      A
 Frequencies --    754.1458               785.7712               860.5407
 Red. masses --      1.7191                 1.7151                 1.4677
 Frc consts  --      0.5760                 0.6239                 0.6404
 IR Inten    --      4.2137                 0.2334                 4.5249

                     16                     17                     18
                      A                      A                      A
 Frequencies --    868.2449               881.2934               948.0018
 Red. masses --      1.5309                 1.7157                 2.5959
 Frc consts  --      0.6800                 0.7851                 1.3745
 IR Inten    --      5.7020                16.7858                18.9740

                     19                     20                     21
                      A                      A                      A
 Frequencies --    994.1436              1032.4659              1049.0899
 Red. masses --      2.6530                 1.6687                 1.8202
 Frc consts  --      1.5448                 1.0480                 1.1803
 IR Inten    --     11.9574                49.4097                 4.0623

                     22                     23                     24
                      A                      A                      A
 Frequencies --   1054.5650              1077.8665              1094.2589
 Red. masses --      2.3438                 1.3558                 2.0529
 Frc consts  --      1.5358                 0.9280                 1.4483
 IR Inten    --     17.5528                 2.6001                 4.2987

                     25                     26                     27
                      A                      A                      A
 Frequencies --   1128.2780              1167.0689              1181.1022
 Red. masses --      1.2006                 1.8411                 1.7243
 Frc consts  --      0.9005                 1.4774                 1.4173
 IR Inten    --      1.1985                10.9962                41.2788

                     28                     29                     30
                      A                      A                      A
 Frequencies --   1217.5425              1230.8618              1268.4583
 Red. masses --      1.5728                 1.7613                 1.3649
 Frc consts  --      1.3737                 1.5721                 1.2939
 IR Inten    --      0.8853                11.6820                 0.5393

                     31                     32                     33
                      A                      A                      A
 Frequencies --   1300.4432              1323.9359              1361.8636
 Red. masses --      1.3687                 1.1875                 1.4177
 Frc consts  --      1.3637                 1.2264                 1.5492
 IR Inten    --      3.4548                 1.4780                19.7109

                     34                     35                     36
                      A                      A                      A
 Frequencies --   1420.8062              1430.7893              1446.8829
 Red. masses --      1.4017                 1.1950                 1.4293
 Frc consts  --      1.6672                 1.4413                 1.7630
 IR Inten    --      1.3534                 3.8196                 6.5131

                     37                     38                     39
                      A                      A                      A
 Frequencies --   1464.8463              1490.6649              1493.4299
 Red. masses --      1.0855                 1.2797                 1.1742
 Frc consts  --      1.3723                 1.6754                 1.5430
 IR Inten    --      2.3462                 5.6115                 3.9136

                     40                     41                     42
                      A                      A                      A
 Frequencies --   1823.1120              1838.9305              2833.6734
 Red. masses --     10.1884                10.1305                 1.0809
 Frc consts  --     19.9518                20.1841                 5.1137
 IR Inten    --    280.4355               181.0080                98.7854

                     43                     44                     45
                      A                      A                      A
 Frequencies --   2846.2724              3016.6625              3024.5045
 Red. masses --      1.0815                 1.0622                 1.0613
 Frc consts  --      5.1621                 5.6951                 5.7199
 IR Inten    --    110.0059                 1.9025                25.8216

                     46                     47                     48
                      A                      A                      A
 Frequencies --   3058.7260              3101.2497              3131.4782
 Red. masses --      1.1004                 1.0984                 1.0831
 Frc consts  --      6.0659                 6.2241                 6.2580
 IR Inten    --     13.6713                15.0058                13.6368

                     49                     50                     51
                      A                      A                      A
 Frequencies --   3134.7677              3172.7340              3221.7616
 Red. masses --      1.0588                 1.0897                 1.1162
 Frc consts  --      6.1302                 6.4626                 6.8264
 IR Inten    --      9.9243                 3.9518                 4.7250

 - Thermochemistry -
 -------------------
 Temperature   298.150 Kelvin.  Pressure   1.00000 Atm.
 Atom     1 has atomic number  8 and mass  15.99491

 Molecular mass:   126.06808 amu.
 Principal axes and moments of inertia in atomic units:
                           1         2         3
     Eigenvalues --   527.122482789.293533159.74695
           X            0.99990   0.01167  -0.00748
           Y           -0.01160   0.99989   0.00936
           Z            0.00759  -0.00927   0.99993
 This molecule is an asymmetric top.
 Rotational symmetry number  1.
 Warning -- assumption of classical behavior for rotation
           may cause significant error
 Rotational temperatures (Kelvin)      0.16431     0.03105     0.02741
 Rotational constants (GHZ):           3.42376     0.64702     0.57117
 Zero-point vibrational energy     410733.5 (Joules/Mol)
                                   98.16766 (Kcal/Mol)
 Warning -- explicit consideration of  12 degrees of freedom as
           vibrations may cause significant error
 Vibrational temperatures:     63.92    91.31   111.04   160.87   218.80
          (Kelvin)            343.22   387.63   447.86   583.17   617.49
                              732.63   757.01  1085.05  1130.55  1238.12
                             1249.21  1267.98  1363.96  1430.35  1485.49
                             1509.40  1517.28  1550.81  1574.39  1623.34
                             1679.15  1699.34  1751.77  1770.93  1825.03
                             1871.05  1904.85  1959.42  2044.22  2058.58
                             2081.74  2107.58  2144.73  2148.71  2623.05
                             2645.81  4077.02  4095.15  4340.30  4351.58
                             4400.82  4462.00  4505.49  4510.23  4564.85
                             4635.39

 Zero-point correction=                           0.156440 (Hartree/Particle)
 Thermal correction to Energy=                    0.166191
 Thermal correction to Enthalpy=                  0.167135
 Thermal correction to Gibbs Free Energy=         0.119950
 Sum of electronic and zero-point Energies=           -423.036282
 Sum of electronic and thermal Energies=              -423.026532
 Sum of electronic and thermal Enthalpies=            -423.025587
 Sum of electronic and thermal Free Energies=         -423.072773

                     E (Thermal)             CV                S
                      KCal/Mol        Cal/Mol-Kelvin    Cal/Mol-Kelvin
 Total                  104.286             33.815             99.310
 Electronic               0.000              0.000              0.000
 Translational            0.889              2.981             40.409
 Rotational               0.889              2.981             29.920
 Vibrational            102.509             27.853             28.981
 Vibration     1          0.595              1.980              5.051
 Vibration     2          0.597              1.972              4.346
 Vibration     3          0.599              1.964              3.962
 Vibration     4          0.607              1.940              3.237
 Vibration     5          0.619              1.900              2.646
 Vibration     6          0.657              1.782              1.814
 Vibration     7          0.674              1.729              1.600
 Vibration     8          0.700              1.652              1.356
 Vibration     9          0.770              1.459              0.943
 Vibration    10          0.791              1.407              0.861
 Vibration    11          0.864              1.230              0.636
 Vibration    12          0.881              1.192              0.596

 Optimization completed.
    -- Stationary point found.
 Normal termination of Gaussian 09 at Mon Jan 27 14:24:59 2020.
