 Gaussian 09, Revision D.01,
 Gaussian 09:  ES64L-G09RevD.01 24-Apr-2013

 -----------------------------
 # b3lyp 6-31G(2df,p) opt Freq
 -----------------------------

 -----
 titel
 -----
 Symbolic Z-matrix:
 Charge =  0 Multiplicity = 1

 SCF Done:  E(RB3LYP) =  -423.110866969     A.U. after   13 cycles
 Optimization completed.
    -- Stationary point found.
 Normal termination of Gaussian 09 at Tue Jan 28 14:05:25 2020.

 ----------------------------------------------------------------------
 #N Geom=AllCheck Guess=TCheck SCRF=Check GenChk RB3LYP/6-31G(2df,p) Fr
 eq
 ----------------------------------------------------------------------

 Structure from the checkpoint file:  "/scratch/puck/g09_4e91374d-d1f6-4371-b72a-d40e43b3cab0/Gau-122919.chk"
 -----
 titel
 -----
 Charge =  0 Multiplicity = 1

                         Standard orientation:
 ---------------------------------------------------------------------
 Center     Atomic      Atomic             Coordinates (Angstroms)
 Number     Number       Type             X           Y           Z
 ---------------------------------------------------------------------
      1          6           0        2.732878   -0.221086   -0.155324
      2          8           0        1.573391   -0.868773    0.331053
      3          6           0        0.411097   -0.573944   -0.402883
      4          6           0       -0.813059   -1.207395    0.309546
      5          6           0       -2.020656   -0.852782   -0.598953
      6          6           0       -1.761075    0.592159   -0.177389
      7          6           0       -1.023858    0.160697    1.078178
      8          6           0       -0.234498    0.770330   -0.042455
      9          8           0        0.353493    2.021235   -0.030431
     10          1           0        2.659920    0.869442   -0.066809
     11          1           0        3.573270   -0.576342    0.446294
     12          1           0        2.922878   -0.478266   -1.210033
     13          1           0        0.561045   -0.815819   -1.469501
     14          1           0       -0.691000   -2.185758    0.767042
     15          1           0       -1.951721   -1.121318   -1.660030
     16          1           0       -2.962962   -1.227810   -0.189063
     17          1           0       -2.389540    1.466723   -0.298237
     18          1           0       -1.137984    0.428992    2.117026
     19          1           0        0.256048    2.412584   -0.905988
 ---------------------------------------------------------------------

 SCF Done:  E(RB3LYP) =  -423.110866969     A.U. after    1 cycles

 The electronic state is 1-A.
 Alpha  occ. eigenvalues --  -19.15392 -19.13306 -10.23506 -10.22651 -10.21442
 Alpha  occ. eigenvalues --  -10.19302 -10.19112 -10.18638 -10.18512  -1.04252
 Alpha  occ. eigenvalues --   -1.02341  -0.91960  -0.72455  -0.71021  -0.65240
 Alpha  occ. eigenvalues --   -0.62002  -0.56921  -0.53171  -0.52502  -0.48065
 Alpha  occ. eigenvalues --   -0.46576  -0.45755  -0.43824  -0.41960  -0.40610
 Alpha  occ. eigenvalues --   -0.40314  -0.34865  -0.33206  -0.33011  -0.31766
 Alpha  occ. eigenvalues --   -0.29538  -0.27082  -0.24932  -0.22707
 Alpha virt. eigenvalues --    0.07148   0.10123   0.11131   0.12096   0.13284
 Alpha virt. eigenvalues --    0.13830   0.13957   0.15660   0.16346   0.17103
 Alpha virt. eigenvalues --    0.17991   0.18986   0.19476   0.20595   0.21792

 Mulliken charges:
               1
     1  C   -0.243318
     2  O   -0.255676
     3  C    0.069804
     4  C   -0.098446
     5  C   -0.247115
     6  C   -0.137953
     7  C   -0.120394
     8  C    0.363721
     9  O   -0.462385
    10  H    0.125140
    11  H    0.122616
    12  H    0.095677
    13  H    0.047299
    14  H    0.082113
    15  H    0.086960
    16  H    0.102176
    17  H    0.085036
    18  H    0.098752
    19  H    0.285993
 Sum of Mulliken charges =   0.00000

 Dipole moment (field-independent basis, Debye):
    X=             -0.6225    Y=              0.6013    Z=             -1.6820  Tot=              1.8916
 Quadrupole moment (field-independent basis, Debye-Ang):
   XX=            -50.9639   YY=            -52.9507   ZZ=            -51.3649
   XY=              0.4607   XZ=             -1.8671   YZ=             -2.8358

  Exact polarizability:  86.775   1.822  72.244   0.002  -0.416  67.165
 Approx polarizability: 112.045   2.525 107.042   0.878  -3.117 107.209

                      1                      2                      3
                      A                      A                      A
 Frequencies --    103.1259               168.6805               183.3949
 Red. masses --      2.4698                 1.7899                 1.9300
 Frc consts  --      0.0155                 0.0300                 0.0382
 IR Inten    --      2.6645                 0.4636                 2.0273

                      4                      5                      6
                      A                      A                      A
 Frequencies --    246.4328               280.4541               335.7151
 Red. masses --      3.2071                 1.9510                 1.3857
 Frc consts  --      0.1148                 0.0904                 0.0920
 IR Inten    --      2.5945                35.4167                52.9619

                      7                      8                      9
                      A                      A                      A
 Frequencies --    358.5669               397.1483               443.3557
 Red. masses --      3.7690                 4.1212                 2.1692
 Frc consts  --      0.2855                 0.3830                 0.2512
 IR Inten    --     18.0683                 0.9364                 3.5361

                     10                     11                     12
                      A                      A                      A
 Frequencies --    541.9829               644.6307               729.5496
 Red. masses --      4.4000                 4.2143                 3.2653
 Frc consts  --      0.7615                 1.0318                 1.0240
 IR Inten    --     10.4117                 6.5347                 2.7449

                     13                     14                     15
                      A                      A                      A
 Frequencies --    819.7258               833.8989               841.7624
 Red. masses --      1.8929                 3.2691                 1.3822
 Frc consts  --      0.7494                 1.3394                 0.5770
 IR Inten    --      3.4652                16.3366                12.2131

                     16                     17                     18
                      A                      A                      A
 Frequencies --    901.3689               927.5419               944.7586
 Red. masses --      2.6080                 2.0481                 1.9580
 Frc consts  --      1.2484                 1.0382                 1.0297
 IR Inten    --      2.0934                 1.3197                15.1436

                     19                     20                     21
                      A                      A                      A
 Frequencies --    956.7090               974.7836              1006.2211
 Red. masses --      1.8969                 2.0951                 2.1241
 Frc consts  --      1.0229                 1.1729                 1.2671
 IR Inten    --      1.5363                 9.9316                 2.3616

                     22                     23                     24
                      A                      A                      A
 Frequencies --   1027.5118              1068.1008              1094.9548
 Red. masses --      3.5530                 1.7786                 1.6720
 Frc consts  --      2.2101                 1.1955                 1.1811
 IR Inten    --     12.1698                 4.6602                 4.7265

                     25                     26                     27
                      A                      A                      A
 Frequencies --   1133.3213              1155.2464              1162.5372
 Red. masses --      1.7643                 1.9835                 2.4704
 Frc consts  --      1.3352                 1.5596                 1.9671
 IR Inten    --     28.0000                48.9537                62.2206

                     28                     29                     30
                      A                      A                      A
 Frequencies --   1186.5395              1191.8162              1223.5230
 Red. masses --      1.2889                 1.6062                 1.7952
 Frc consts  --      1.0691                 1.3442                 1.5833
 IR Inten    --      2.4376                 0.6637                42.2667

                     31                     32                     33
                      A                      A                      A
 Frequencies --   1234.4746              1249.5907              1280.2986
 Red. masses --      1.5828                 2.0429                 1.7582
 Frc consts  --      1.4212                 1.8795                 1.6980
 IR Inten    --      7.7770                50.4483                 8.6666

                     34                     35                     36
                      A                      A                      A
 Frequencies --   1299.0788              1305.4267              1379.3042
 Red. masses --      1.6760                 1.9575                 1.4826
 Frc consts  --      1.6665                 1.9654                 1.6618
 IR Inten    --      5.6599               100.3034                28.8579

                     37                     38                     39
                      A                      A                      A
 Frequencies --   1447.4250              1479.7900              1488.0129
 Red. masses --      3.1163                 1.1415                 1.0834
 Frc consts  --      3.8467                 1.4727                 1.4134
 IR Inten    --     39.3477                 2.4049                 1.6072

                     40                     41                     42
                      A                      A                      A
 Frequencies --   1501.5947              1516.7505              2948.1121
 Red. masses --      1.1139                 1.0526                 1.0818
 Frc consts  --      1.4798                 1.4268                 5.5396
 IR Inten    --      0.4699                 5.8209                56.6239

                     43                     44                     45
                      A                      A                      A
 Frequencies --   2976.7899              3027.1718              3057.7409
 Red. masses --      1.0478                 1.0602                 1.0874
 Frc consts  --      5.4706                 5.7241                 5.9903
 IR Inten    --     85.8309                71.1425                35.9775

                     46                     47                     48
                      A                      A                      A
 Frequencies --   3087.7531              3115.3443              3152.9914
 Red. masses --      1.1039                 1.1009                 1.0916
 Frc consts  --      6.2008                 6.2952                 6.3936
 IR Inten    --     30.3108                28.7138                20.4917

                     49                     50                     51
                      A                      A                      A
 Frequencies --   3184.0534              3239.7461              3786.0051
 Red. masses --      1.0916                 1.0982                 1.0661
 Frc consts  --      6.5207                 6.7915                 9.0033
 IR Inten    --     19.2620                 3.8689                22.0733

 - Thermochemistry -
 -------------------
 Temperature   298.150 Kelvin.  Pressure   1.00000 Atm.
 Atom     1 has atomic number  6 and mass  12.00000

 Molecular mass:   126.06808 amu.
 Principal axes and moments of inertia in atomic units:
                           1         2         3
     Eigenvalues --   621.494911165.380501526.55993
           X            0.99986   0.01531  -0.00631
           Y           -0.01530   0.99988   0.00168
           Z            0.00634  -0.00158   0.99998
 This molecule is an asymmetric top.
 Rotational symmetry number  1.
 Warning -- assumption of classical behavior for rotation
           may cause significant error
 Rotational temperatures (Kelvin)      0.13936     0.07432     0.05674
 Rotational constants (GHZ):           2.90387     1.54863     1.18223
 Zero-point vibrational energy     416544.6 (Joules/Mol)
                                   99.55654 (Kcal/Mol)
 Warning -- explicit consideration of  10 degrees of freedom as
           vibrations may cause significant error
 Vibrational temperatures:    148.37   242.69   263.86   354.56   403.51
          (Kelvin)            483.02   515.90   571.41   637.89   779.79
                              927.48  1049.66  1179.40  1199.79  1211.11
                             1296.87  1334.52  1359.30  1376.49  1402.49
                             1447.73  1478.36  1536.76  1575.39  1630.59
                             1662.14  1672.63  1707.16  1714.76  1760.37
                             1776.13  1797.88  1842.06  1869.08  1878.22
                             1984.51  2082.52  2129.09  2140.92  2160.46
                             2182.26  4241.67  4282.93  4355.42  4399.40
                             4442.58  4482.28  4536.45  4581.14  4661.27
                             5447.21

 Zero-point correction=                           0.158653 (Hartree/Particle)
 Thermal correction to Energy=                    0.166867
 Thermal correction to Enthalpy=                  0.167811
 Thermal correction to Gibbs Free Energy=         0.126163
 Sum of electronic and zero-point Energies=           -422.952214
 Sum of electronic and thermal Energies=              -422.944000
 Sum of electronic and thermal Enthalpies=            -422.943056
 Sum of electronic and thermal Free Energies=         -422.984704

                     E (Thermal)             CV                S
                      KCal/Mol        Cal/Mol-Kelvin    Cal/Mol-Kelvin
 Total                  104.710             32.012             87.656
 Electronic               0.000              0.000              0.000
 Translational            0.889              2.981             40.409
 Rotational               0.889              2.981             28.493
 Vibrational            102.933             26.051             18.754
 Vibration     1          0.605              1.947              3.394
 Vibration     2          0.625              1.881              2.450
 Vibration     3          0.631              1.862              2.294
 Vibration     4          0.661              1.769              1.756
 Vibration     5          0.680              1.710              1.531
 Vibration     6          0.717              1.604              1.232
 Vibration     7          0.733              1.558              1.128
 Vibration     8          0.764              1.476              0.973
 Vibration     9          0.803              1.376              0.816
 Vibration    10          0.897              1.157              0.561

 Optimization completed.
    -- Stationary point found.
 Normal termination of Gaussian 09 at Tue Jan 28 14:46:30 2020.
