 Gaussian 09, Revision D.01,
 Gaussian 09:  ES64L-G09RevD.01 24-Apr-2013

 -----------------------------
 # b3lyp 6-31G(2df,p) opt Freq
 -----------------------------

 -----
 titel
 -----
 Symbolic Z-matrix:
 Charge =  0 Multiplicity = 1

 SCF Done:  E(RB3LYP) =  -423.236169073     A.U. after   14 cycles
 Optimization completed.
    -- Stationary point found.
 Normal termination of Gaussian 09 at Tue Jan 28 03:54:32 2020.

 ----------------------------------------------------------------------
 #N Geom=AllCheck Guess=TCheck SCRF=Check GenChk RB3LYP/6-31G(2df,p) Fr
 eq
 ----------------------------------------------------------------------

 Structure from the checkpoint file:  "/scratch/puck/g09_acbf649e-7d08-4881-9c2b-81d2ee0554b4/Gau-116363.chk"
 -----
 titel
 -----
 Charge =  0 Multiplicity = 1

                         Standard orientation:
 ---------------------------------------------------------------------
 Center     Atomic      Atomic             Coordinates (Angstroms)
 Number     Number       Type             X           Y           Z
 ---------------------------------------------------------------------
      1          6           0       -1.976775    1.402501   -0.500599
      2          6           0       -0.728609    0.856977    0.188946
      3          6           0        0.466267    1.838879    0.223108
      4          6           0        1.687653    0.958123    0.519330
      5          6           0        1.374971   -0.374748   -0.157799
      6          8           0        2.150068   -1.255222   -0.422932
      7          6           0       -0.143743   -0.406933   -0.458544
      8          6           0       -0.756717   -1.725367   -0.032341
      9          8           0       -1.716822   -1.819201    0.688904
     10          1           0       -2.327384    2.316271   -0.009658
     11          1           0       -1.773526    1.645827   -1.550490
     12          1           0       -2.788854    0.670888   -0.469257
     13          1           0       -0.993010    0.593952    1.221046
     14          1           0        0.579169    2.315951   -0.758753
     15          1           0        0.323706    2.637169    0.955857
     16          1           0        2.649729    1.350579    0.182767
     17          1           0        1.778086    0.759039    1.596149
     18          1           0       -0.218422   -0.371412   -1.557780
     19          1           0       -0.233755   -2.619465   -0.430271
 ---------------------------------------------------------------------

 SCF Done:  E(RB3LYP) =  -423.236169073     A.U. after    1 cycles

 The electronic state is 1-A.
 Alpha  occ. eigenvalues --  -19.14880 -19.14358 -10.28281 -10.27919 -10.20714
 Alpha  occ. eigenvalues --  -10.20152 -10.20120 -10.19742 -10.18230  -1.05753
 Alpha  occ. eigenvalues --   -1.05286  -0.85663  -0.76027  -0.74110  -0.65824
 Alpha  occ. eigenvalues --   -0.61677  -0.57291  -0.53741  -0.49973  -0.47587
 Alpha  occ. eigenvalues --   -0.47026  -0.44617  -0.43367  -0.42655  -0.42136
 Alpha  occ. eigenvalues --   -0.39625  -0.38957  -0.37310  -0.36649  -0.34881
 Alpha  occ. eigenvalues --   -0.33866  -0.33577  -0.26687  -0.24651
 Alpha virt. eigenvalues --   -0.03502  -0.02007   0.07718   0.10541   0.11117
 Alpha virt. eigenvalues --    0.13103   0.14044   0.14827   0.15797   0.16139
 Alpha virt. eigenvalues --    0.17448   0.18058   0.19242   0.19547   0.22415

 Mulliken charges:
               1
     1  C   -0.417320
     2  C    0.028580
     3  C   -0.236253
     4  C   -0.323696
     5  C    0.383775
     6  O   -0.312065
     7  C   -0.201507
     8  C    0.144019
     9  O   -0.242878
    10  H    0.116900
    11  H    0.110156
    12  H    0.136587
    13  H    0.097108
    14  H    0.104478
    15  H    0.108654
    16  H    0.132350
    17  H    0.138222
    18  H    0.124317
    19  H    0.108573
 Sum of Mulliken charges =   0.00000

 Dipole moment (field-independent basis, Debye):
    X=              0.1172    Y=              2.7338    Z=             -0.6350  Tot=              2.8090
 Quadrupole moment (field-independent basis, Debye-Ang):
   XX=            -61.3099   YY=            -55.4413   ZZ=            -51.7529
   XY=              1.3184   XZ=              3.9620   YZ=              1.9530

  Exact polarizability:  84.321  -0.134  81.803  -1.733   2.741  62.602
 Approx polarizability: 122.951  -1.686 113.277 -10.971   3.194 102.685

                      1                      2                      3
                      A                      A                      A
 Frequencies --     52.6723               103.8626               160.7976
 Red. masses --      4.2197                 4.7278                 2.5743
 Frc consts  --      0.0069                 0.0300                 0.0392
 IR Inten    --      1.1994                 9.2411                 3.2479

                      4                      5                      6
                      A                      A                      A
 Frequencies --    181.6377               235.1440               254.2911
 Red. masses --      2.6254                 1.4188                 1.6889
 Frc consts  --      0.0510                 0.0462                 0.0643
 IR Inten    --      4.0681                 0.4720                 1.1210

                      7                      8                      9
                      A                      A                      A
 Frequencies --    274.3009               405.9467               467.3941
 Red. masses --      3.1475                 2.9664                 2.7696
 Frc consts  --      0.1395                 0.2880                 0.3565
 IR Inten    --      2.9508                 0.3028                 3.7338

                     10                     11                     12
                      A                      A                      A
 Frequencies --    500.9981               542.3003               618.7173
 Red. masses --      4.2710                 2.8118                 3.5243
 Frc consts  --      0.6316                 0.4872                 0.7949
 IR Inten    --      4.4521                 4.6567                 6.2162

                     13                     14                     15
                      A                      A                      A
 Frequencies --    653.7294               740.5491               811.0666
 Red. masses --      4.0401                 3.0351                 1.6802
 Frc consts  --      1.0173                 0.9807                 0.6512
 IR Inten    --     19.9262                15.9558                 6.7032

                     16                     17                     18
                      A                      A                      A
 Frequencies --    882.0255               897.5763               945.5974
 Red. masses --      2.2731                 1.7990                 1.5014
 Frc consts  --      1.0419                 0.8539                 0.7909
 IR Inten    --      1.5554                 3.2751                 0.4051

                     19                     20                     21
                      A                      A                      A
 Frequencies --    970.5987               993.8998              1011.9182
 Red. masses --      1.4754                 2.0124                 1.3749
 Frc consts  --      0.8189                 1.1712                 0.8295
 IR Inten    --      0.3870                11.0877                 9.7357

                     22                     23                     24
                      A                      A                      A
 Frequencies --   1068.0385              1105.9622              1150.4558
 Red. masses --      2.9283                 2.1100                 2.9602
 Frc consts  --      1.9680                 1.5206                 2.3084
 IR Inten    --     24.9664                21.8579                53.2118

                     25                     26                     27
                      A                      A                      A
 Frequencies --   1155.8973              1181.9556              1204.7081
 Red. masses --      1.8277                 1.9622                 1.7189
 Frc consts  --      1.4388                 1.6151                 1.4698
 IR Inten    --     10.2072                18.1978                16.0363

                     28                     29                     30
                      A                      A                      A
 Frequencies --   1235.6193              1269.3849              1299.3975
 Red. masses --      1.4575                 1.6951                 1.3884
 Frc consts  --      1.3111                 1.6093                 1.3811
 IR Inten    --     14.4205                13.7274                 1.6980

                     31                     32                     33
                      A                      A                      A
 Frequencies --   1319.8221              1346.5492              1387.3925
 Red. masses --      1.3831                 1.3838                 1.4380
 Frc consts  --      1.4195                 1.4783                 1.6309
 IR Inten    --      9.5020                 6.6069                 9.9588

                     34                     35                     36
                      A                      A                      A
 Frequencies --   1407.4679              1415.7644              1450.1060
 Red. masses --      1.2779                 1.2287                 1.0853
 Frc consts  --      1.4914                 1.4510                 1.3446
 IR Inten    --      3.2499                 3.1455                 8.2613

                     37                     38                     39
                      A                      A                      A
 Frequencies --   1494.0528              1500.4998              1504.0853
 Red. masses --      1.0587                 1.0775                 1.0566
 Frc consts  --      1.3924                 1.4293                 1.4084
 IR Inten    --      1.0971                 1.6080                 7.8279

                     40                     41                     42
                      A                      A                      A
 Frequencies --   1814.1963              1846.0389              2924.7779
 Red. masses --     10.6002                12.1523                 1.0849
 Frc consts  --     20.5558                24.4001                 5.4678
 IR Inten    --    247.0057               128.8157                77.4887

                     43                     44                     45
                      A                      A                      A
 Frequencies --   2990.9761              3025.0058              3026.1571
 Red. masses --      1.0801                 1.0729                 1.0463
 Frc consts  --      5.6932                 5.7847                 5.6451
 IR Inten    --      7.5486                 4.6929                17.6521

                     46                     47                     48
                      A                      A                      A
 Frequencies --   3029.3717              3039.7400              3091.8903
 Red. masses --      1.0653                 1.0700                 1.0992
 Frc consts  --      5.7600                 5.8249                 6.1911
 IR Inten    --      2.2320                40.7034                12.6009

                     49                     50                     51
                      A                      A                      A
 Frequencies --   3098.3376              3112.2297              3115.2164
 Red. masses --      1.0974                 1.0948                 1.1007
 Frc consts  --      6.2068                 6.2480                 6.2938
 IR Inten    --     41.7235                10.5297                16.1349

 - Thermochemistry -
 -------------------
 Temperature   298.150 Kelvin.  Pressure   1.00000 Atm.
 Atom     1 has atomic number  6 and mass  12.00000

 Molecular mass:   126.06808 amu.
 Principal axes and moments of inertia in atomic units:
                           1         2         3
     Eigenvalues --   938.089791074.282691789.22008
           X            0.99609  -0.08414   0.02704
           Y            0.08396   0.99644   0.00799
           Z           -0.02761  -0.00569   0.99960
 This molecule is an asymmetric top.
 Rotational symmetry number  1.
 Warning -- assumption of classical behavior for rotation
           may cause significant error
 Rotational temperatures (Kelvin)      0.09233     0.08062     0.04841
 Rotational constants (GHZ):           1.92385     1.67995     1.00867
 Zero-point vibrational energy     414602.5 (Joules/Mol)
                                   99.09237 (Kcal/Mol)
 Warning -- explicit consideration of  12 degrees of freedom as
           vibrations may cause significant error
 Vibrational temperatures:     75.78   149.43   231.35   261.34   338.32
          (Kelvin)            365.87   394.66   584.07   672.48   720.82
                              780.25   890.20   940.57  1065.48  1166.94
                             1269.04  1291.41  1360.50  1396.47  1430.00
                             1455.92  1536.67  1591.23  1655.25  1663.08
                             1700.57  1733.30  1777.78  1826.36  1869.54
                             1898.93  1937.38  1996.15  2025.03  2036.97
                             2086.38  2149.61  2158.88  2164.04  2610.22
                             2656.03  4208.10  4303.34  4352.30  4353.96
                             4358.58  4373.50  4448.53  4457.81  4477.80
                             4482.10

 Zero-point correction=                           0.157914 (Hartree/Particle)
 Thermal correction to Energy=                    0.166888
 Thermal correction to Enthalpy=                  0.167832
 Thermal correction to Gibbs Free Energy=         0.123714
 Sum of electronic and zero-point Energies=           -423.078255
 Sum of electronic and thermal Energies=              -423.069281
 Sum of electronic and thermal Enthalpies=            -423.068337
 Sum of electronic and thermal Free Energies=         -423.112456

                     E (Thermal)             CV                S
                      KCal/Mol        Cal/Mol-Kelvin    Cal/Mol-Kelvin
 Total                  104.724             32.927             92.856
 Electronic               0.000              0.000              0.000
 Translational            0.889              2.981             40.409
 Rotational               0.889              2.981             28.979
 Vibrational            102.946             26.965             23.468
 Vibration     1          0.596              1.977              4.714
 Vibration     2          0.605              1.946              3.381
 Vibration     3          0.622              1.890              2.540
 Vibration     4          0.630              1.865              2.312
 Vibration     5          0.655              1.787              1.839
 Vibration     6          0.665              1.756              1.701
 Vibration     7          0.677              1.721              1.569
 Vibration     8          0.771              1.457              0.941
 Vibration     9          0.825              1.322              0.745
 Vibration    10          0.856              1.248              0.656
 Vibration    11          0.897              1.157              0.560
 Vibration    12          0.979              0.992              0.419

 Optimization completed.
    -- Stationary point found.
 Normal termination of Gaussian 09 at Tue Jan 28 04:34:53 2020.
