 Gaussian 09, Revision D.01,
 Gaussian 09:  ES64L-G09RevD.01 24-Apr-2013

 -----------------------------
 # b3lyp 6-31G(2df,p) opt Freq
 -----------------------------

 -----
 titel
 -----
 Symbolic Z-matrix:
 Charge =  0 Multiplicity = 1

 SCF Done:  E(RB3LYP) =  -423.208024263     A.U. after   14 cycles
 Optimization completed.
    -- Stationary point found.
 Normal termination of Gaussian 09 at Mon Jan 27 10:17:55 2020.

 ----------------------------------------------------------------------
 #N Geom=AllCheck Guess=TCheck SCRF=Check GenChk RB3LYP/6-31G(2df,p) Fr
 eq
 ----------------------------------------------------------------------

 Structure from the checkpoint file:  "/scratch/puck/g09_b633cda2-c17e-432a-92ec-adef5c2b9088/Gau-66858.chk"
 -----
 titel
 -----
 Charge =  0 Multiplicity = 1

                         Standard orientation:
 ---------------------------------------------------------------------
 Center     Atomic      Atomic             Coordinates (Angstroms)
 Number     Number       Type             X           Y           Z
 ---------------------------------------------------------------------
      1          6           0        2.947567   -0.755189   -0.515139
      2          6           0        1.736990    0.130800   -0.253059
      3          6           0        2.007357    1.199253    0.806310
      4          8           0        0.683395   -0.750049    0.168707
      5          6           0       -0.586004   -0.306425    0.042941
      6          6           0       -1.087348    0.864314   -0.453780
      7          8           0       -2.456359    0.837412   -0.393738
      8          6           0       -2.809100   -0.352993    0.143733
      9          6           0       -1.714958   -1.100412    0.435780
     10          1           0        3.793756   -0.153722   -0.859681
     11          1           0        3.242823   -1.274145    0.402132
     12          1           0        2.718444   -1.505199   -1.276384
     13          1           0        1.426995    0.607820   -1.194252
     14          1           0        2.781510    1.890941    0.459450
     15          1           0        1.106154    1.776213    1.027023
     16          1           0        2.351859    0.731591    1.733932
     17          1           0       -0.652803    1.761891   -0.854597
     18          1           0       -3.867564   -0.522923    0.254104
     19          1           0       -1.684477   -2.087457    0.867805
 ---------------------------------------------------------------------

 SCF Done:  E(RB3LYP) =  -423.208024263     A.U. after    1 cycles

 The electronic state is 1-A.
 Alpha  occ. eigenvalues --  -19.19477 -19.16209 -10.24358 -10.23030 -10.22511
 Alpha  occ. eigenvalues --  -10.21259 -10.17889 -10.17854 -10.17348  -1.09782
 Alpha  occ. eigenvalues --   -1.05642  -0.80448  -0.76704  -0.73254  -0.69375
 Alpha  occ. eigenvalues --   -0.61916  -0.58661  -0.55359  -0.53991  -0.47050
 Alpha  occ. eigenvalues --   -0.45865  -0.45004  -0.43478  -0.42837  -0.40863
 Alpha  occ. eigenvalues --   -0.39442  -0.38994  -0.37879  -0.36939  -0.35008
 Alpha  occ. eigenvalues --   -0.32766  -0.31858  -0.24443  -0.20521
 Alpha virt. eigenvalues --    0.02535   0.08616   0.09780   0.10824   0.12377
 Alpha virt. eigenvalues --    0.14156   0.14288   0.15069   0.15961   0.16940
 Alpha virt. eigenvalues --    0.17823   0.18784   0.19303   0.20644   0.21883

 Mulliken charges:
               1
     1  C   -0.392775
     2  C    0.137432
     3  C   -0.395552
     4  O   -0.282469
     5  C    0.319700
     6  C   -0.153239
     7  O   -0.150830
     8  C    0.020882
     9  C   -0.305114
    10  H    0.116516
    11  H    0.127051
    12  H    0.125919
    13  H    0.082639
    14  H    0.116361
    15  H    0.129499
    16  H    0.125289
    17  H    0.129181
    18  H    0.134898
    19  H    0.114609
 Sum of Mulliken charges =   0.00000

 Dipole moment (field-independent basis, Debye):
    X=              1.0976    Y=              0.3009    Z=             -0.1075  Tot=              1.1432
 Quadrupole moment (field-independent basis, Debye-Ang):
   XX=            -48.7564   YY=            -52.5603   ZZ=            -54.2590
   XY=              3.6569   XZ=             -1.8992   YZ=             -1.2715

  Exact polarizability: 102.564   2.321  74.563  -1.889  -6.621  56.787
 Approx polarizability: 136.442  -3.077 122.564   0.109 -18.530  88.024

                      1                      2                      3
                      A                      A                      A
 Frequencies --     67.7970                88.7278               153.5309
 Red. masses --      3.6008                 3.4249                 3.1306
 Frc consts  --      0.0098                 0.0159                 0.0435
 IR Inten    --      1.2214                 0.0129                 1.1985

                      4                      5                      6
                      A                      A                      A
 Frequencies --    209.0578               249.0256               307.2102
 Red. masses --      1.0254                 1.1272                 3.7367
 Frc consts  --      0.0264                 0.0412                 0.2078
 IR Inten    --      0.0683                 0.1052                 0.7676

                      7                      8                      9
                      A                      A                      A
 Frequencies --    318.0467               388.4855               448.8365
 Red. masses --      3.0134                 3.7625                 2.6631
 Frc consts  --      0.1796                 0.3346                 0.3161
 IR Inten    --      0.5026                 2.4081                 0.5862

                     10                     11                     12
                      A                      A                      A
 Frequencies --    486.5843               607.7436               648.7211
 Red. masses --      2.9971                 4.6457                 1.4622
 Frc consts  --      0.4181                 1.0110                 0.3625
 IR Inten    --      1.5308                 8.3283                 9.6641

                     13                     14                     15
                      A                      A                      A
 Frequencies --    692.3641               713.3375               765.4848
 Red. masses --      2.4553                 5.0628                 1.3424
 Frc consts  --      0.6935                 1.5179                 0.4634
 IR Inten    --      2.5699                 2.3010                54.7660

                     16                     17                     18
                      A                      A                      A
 Frequencies --    821.7003               842.6508               883.2818
 Red. masses --      1.3091                 2.7880                 5.4692
 Frc consts  --      0.5208                 1.1664                 2.5140
 IR Inten    --      4.4491                 2.9769                23.5669

                     19                     20                     21
                      A                      A                      A
 Frequencies --    933.8977               943.9189               955.2605
 Red. masses --      1.2727                 1.7446                 2.0252
 Frc consts  --      0.6540                 0.9158                 1.0888
 IR Inten    --      0.5601                 4.6288                10.2470

                     22                     23                     24
                      A                      A                      A
 Frequencies --   1014.1011              1064.5551              1089.7233
 Red. masses --      2.0357                 3.4224                 1.8234
 Frc consts  --      1.2335                 2.2852                 1.2757
 IR Inten    --     39.6315                14.7236                40.6107

                     25                     26                     27
                      A                      A                      A
 Frequencies --   1149.7697              1157.0760              1200.7021
 Red. masses --      2.0497                 2.0894                 1.9490
 Frc consts  --      1.5965                 1.6482                 1.6555
 IR Inten    --     61.9659                23.5984                11.6141

                     28                     29                     30
                      A                      A                      A
 Frequencies --   1218.3376              1266.9660              1315.6489
 Red. masses --      3.8005                 1.2604                 2.6439
 Frc consts  --      3.3238                 1.1920                 2.6963
 IR Inten    --     16.5947                 4.3727               180.2510

                     31                     32                     33
                      A                      A                      A
 Frequencies --   1372.3205              1380.4338              1401.0833
 Red. masses --      1.2863                 1.3415                 1.3909
 Frc consts  --      1.4273                 1.5062                 1.6087
 IR Inten    --      7.2617                14.8907                16.6478

                     34                     35                     36
                      A                      A                      A
 Frequencies --   1413.8281              1424.2149              1480.1532
 Red. masses --      1.6155                 2.2275                 1.0545
 Frc consts  --      1.9027                 2.6621                 1.3612
 IR Inten    --     22.0542                 0.4238                 1.1424

                     37                     38                     39
                      A                      A                      A
 Frequencies --   1487.8649              1493.8709              1511.7158
 Red. masses --      1.0472                 1.0563                 1.0557
 Frc consts  --      1.3658                 1.3888                 1.4215
 IR Inten    --      0.8643                 3.0858                 5.3024

                     40                     41                     42
                      A                      A                      A
 Frequencies --   1545.2711              1641.3201              2999.4039
 Red. masses --      4.0548                 6.3828                 1.0834
 Frc consts  --      5.7046                10.1309                 5.7425
 IR Inten    --     22.9729               129.9743                23.0643

                     43                     44                     45
                      A                      A                      A
 Frequencies --   3041.4038              3045.7170              3111.6232
 Red. masses --      1.0350                 1.0353                 1.1019
 Frc consts  --      5.6410                 5.6585                 6.2861
 IR Inten    --     13.3067                16.1164                 3.3535

                     46                     47                     48
                      A                      A                      A
 Frequencies --   3119.8406              3125.1540              3126.8248
 Red. masses --      1.1013                 1.1021                 1.1013
 Frc consts  --      6.3158                 6.3417                 6.3441
 IR Inten    --     38.6007                16.6065                23.6257

                     49                     50                     51
                      A                      A                      A
 Frequencies --   3261.9354              3284.1597              3297.5418
 Red. masses --      1.0889                 1.1062                 1.0983
 Frc consts  --      6.8266                 7.0294                 7.0365
 IR Inten    --      0.2103                 1.3811                 2.5232

 - Thermochemistry -
 -------------------
 Temperature   298.150 Kelvin.  Pressure   1.00000 Atm.
 Atom     1 has atomic number  6 and mass  12.00000

 Molecular mass:   126.06808 amu.
 Principal axes and moments of inertia in atomic units:
                           1         2         3
     Eigenvalues --   426.878731918.680892134.72545
           X            0.99990   0.01316  -0.00488
           Y           -0.01305   0.99969   0.02135
           Z            0.00516  -0.02128   0.99976
 This molecule is an asymmetric top.
 Rotational symmetry number  1.
 Rotational temperatures (Kelvin)      0.20290     0.04514     0.04057
 Rotational constants (GHZ):           4.22776     0.94062     0.84542
 Zero-point vibrational energy     416110.4 (Joules/Mol)
                                   99.45277 (Kcal/Mol)
 Warning -- explicit consideration of  11 degrees of freedom as
           vibrations may cause significant error
 Vibrational temperatures:     97.54   127.66   220.90   300.79   358.29
          (Kelvin)            442.01   457.60   558.94   645.77   700.09
                              874.41   933.36   996.16  1026.33  1101.36
                             1182.24  1212.38  1270.84  1343.67  1358.09
                             1374.41  1459.06  1531.66  1567.87  1654.26
                             1664.77  1727.54  1752.91  1822.88  1892.92
                             1974.46  1986.13  2015.84  2034.18  2049.12
                             2129.61  2140.70  2149.34  2175.02  2223.30
                             2361.49  4315.47  4375.90  4382.10  4476.93
                             4488.75  4496.39  4498.80  4693.19  4725.17
                             4744.42

 Zero-point correction=                           0.158488 (Hartree/Particle)
 Thermal correction to Energy=                    0.167363
 Thermal correction to Enthalpy=                  0.168307
 Thermal correction to Gibbs Free Energy=         0.124590
 Sum of electronic and zero-point Energies=           -423.049536
 Sum of electronic and thermal Energies=              -423.040662
 Sum of electronic and thermal Enthalpies=            -423.039717
 Sum of electronic and thermal Free Energies=         -423.083435

                     E (Thermal)             CV                S
                      KCal/Mol        Cal/Mol-Kelvin    Cal/Mol-Kelvin
 Total                  105.022             33.258             92.010
 Electronic               0.000              0.000              0.000
 Translational            0.889              2.981             40.409
 Rotational               0.889              2.981             28.949
 Vibrational            103.244             27.297             22.653
 Vibration     1          0.598              1.970              4.216
 Vibration     2          0.602              1.957              3.688
 Vibration     3          0.619              1.899              2.628
 Vibration     4          0.642              1.827              2.052
 Vibration     5          0.662              1.764              1.737
 Vibration     6          0.697              1.660              1.377
 Vibration     7          0.704              1.639              1.320
 Vibration     8          0.757              1.495              1.006
 Vibration     9          0.808              1.363              0.799
 Vibration    10          0.843              1.280              0.693
 Vibration    11          0.967              1.015              0.437

 Normal termination of Gaussian 09 at Mon Jan 27 10:54:08 2020.
