 Gaussian 09, Revision D.01,
 Gaussian 09:  ES64L-G09RevD.01 24-Apr-2013

 -----------------------------
 # b3lyp 6-31G(2df,p) opt Freq
 -----------------------------

 -----
 titel
 -----
 Symbolic Z-matrix:
 Charge =  0 Multiplicity = 1

 SCF Done:  E(RB3LYP) =  -423.171411312     A.U. after   14 cycles
 Optimization completed.
    -- Stationary point found.
 Normal termination of Gaussian 09 at Tue Jan 28 08:14:25 2020.

 ----------------------------------------------------------------------
 #N Geom=AllCheck Guess=TCheck SCRF=Check GenChk RB3LYP/6-31G(2df,p) Fr
 eq
 ----------------------------------------------------------------------

 Structure from the checkpoint file:  "/scratch/puck/g09_c75c4a41-b19c-4a98-b653-152b488401aa/Gau-43552.chk"
 -----
 titel
 -----
 Charge =  0 Multiplicity = 1

                         Standard orientation:
 ---------------------------------------------------------------------
 Center     Atomic      Atomic             Coordinates (Angstroms)
 Number     Number       Type             X           Y           Z
 ---------------------------------------------------------------------
      1          8           0        0.532286   -1.427434    1.133866
      2          6           0        0.615274   -1.193114   -0.257915
      3          6           0        1.823251   -0.287633   -0.563372
      4          6           0        1.762515    1.095806    0.131365
      5          6           0        0.364651    1.646994    0.290783
      6          6           0       -0.664938    0.959219   -0.173952
      7          6           0       -2.116763    0.701347    0.142596
      8          8           0       -1.886741   -0.722514   -0.120085
      9          6           0       -0.605424   -0.422361   -0.755025
     10          1           0       -0.407878   -1.544491    1.326122
     11          1           0        0.725290   -2.145506   -0.800103
     12          1           0        2.741499   -0.802374   -0.265540
     13          1           0        1.874505   -0.160904   -1.651989
     14          1           0        2.184123    1.010725    1.141348
     15          1           0        2.413833    1.800756   -0.400785
     16          1           0        0.235478    2.539708    0.897959
     17          1           0       -2.453609    0.887304    1.168076
     18          1           0       -2.851819    1.108339   -0.564578
     19          1           0       -0.697176   -0.495515   -1.847643
 ---------------------------------------------------------------------

 SCF Done:  E(RB3LYP) =  -423.171411312     A.U. after    1 cycles

 The electronic state is 1-A.
 Alpha  occ. eigenvalues --  -19.14650 -19.12621 -10.24078 -10.23140 -10.22942
 Alpha  occ. eigenvalues --  -10.18903 -10.18647 -10.18550 -10.18536  -1.04669
 Alpha  occ. eigenvalues --   -1.00783  -0.82179  -0.75203  -0.72404  -0.68596
 Alpha  occ. eigenvalues --   -0.61224  -0.58672  -0.53482  -0.50744  -0.48770
 Alpha  occ. eigenvalues --   -0.46191  -0.45615  -0.43404  -0.42822  -0.40139
 Alpha  occ. eigenvalues --   -0.38436  -0.36687  -0.35198  -0.33827  -0.32137
 Alpha  occ. eigenvalues --   -0.30744  -0.26874  -0.25947  -0.24073
 Alpha virt. eigenvalues --    0.01378   0.07206   0.09053   0.11748   0.12282
 Alpha virt. eigenvalues --    0.13920   0.14521   0.15005   0.15795   0.17058
 Alpha virt. eigenvalues --    0.17589   0.17872   0.20597   0.21320   0.22336

 Mulliken charges:
               1
     1  O   -0.446684
     2  C    0.093051
     3  C   -0.235281
     4  C   -0.232373
     5  C   -0.183144
     6  C    0.228468
     7  C   -0.161298
     8  O   -0.322855
     9  C    0.059325
    10  H    0.287243
    11  H    0.063664
    12  H    0.111374
    13  H    0.102693
    14  H    0.126839
    15  H    0.105787
    16  H    0.090358
    17  H    0.121145
    18  H    0.110895
    19  H    0.080794
 Sum of Mulliken charges =   0.00000

 Dipole moment (field-independent basis, Debye):
    X=              0.0623    Y=              1.5291    Z=             -0.7788  Tot=              1.7171
 Quadrupole moment (field-independent basis, Debye-Ang):
   XX=            -52.2446   YY=            -53.7001   ZZ=            -52.6054
   XY=             -1.1395   XZ=             -2.5692   YZ=              2.5354

  Exact polarizability:  91.656   1.883  73.929   0.065   6.575  65.345
 Approx polarizability: 130.345   9.661 108.722   4.740   9.458 103.079

                      1                      2                      3
                      A                      A                      A
 Frequencies --    138.7996               169.6575               219.2455
 Red. masses --      2.5263                 4.7127                 3.3443
 Frc consts  --      0.0287                 0.0799                 0.0947
 IR Inten    --      1.1005                 6.2428                 0.2224

                      4                      5                      6
                      A                      A                      A
 Frequencies --    267.2912               324.1081               356.0705
 Red. masses --      2.4028                 2.4822                 2.7507
 Frc consts  --      0.1011                 0.1536                 0.2055
 IR Inten    --     12.2398                12.8592                 2.7806

                      7                      8                      9
                      A                      A                      A
 Frequencies --    432.1966               435.4833               542.0747
 Red. masses --      1.1696                 4.3180                 4.8256
 Frc consts  --      0.1287                 0.4825                 0.8354
 IR Inten    --     88.9533                 8.3417                 1.0815

                     10                     11                     12
                      A                      A                      A
 Frequencies --    594.8423               716.5068               765.0087
 Red. masses --      3.9882                 1.6869                 3.9649
 Frc consts  --      0.8314                 0.5102                 1.3672
 IR Inten    --      5.5676                 0.2467                 9.8294

                     13                     14                     15
                      A                      A                      A
 Frequencies --    799.7856               843.6067               862.0915
 Red. masses --      2.7259                 2.3460                 2.7193
 Frc consts  --      1.0273                 0.9837                 1.1907
 IR Inten    --     16.6747                 6.0472                11.2815

                     16                     17                     18
                      A                      A                      A
 Frequencies --    890.4350               940.0170               949.9651
 Red. masses --      2.1173                 2.5432                 4.8764
 Frc consts  --      0.9891                 1.3240                 2.5928
 IR Inten    --     25.7357                19.5559                38.4585

                     19                     20                     21
                      A                      A                      A
 Frequencies --    976.4220               992.5871              1032.3127
 Red. masses --      3.0313                 1.9593                 1.7900
 Frc consts  --      1.7027                 1.1374                 1.1239
 IR Inten    --     31.0021                24.3550                11.7420

                     22                     23                     24
                      A                      A                      A
 Frequencies --   1062.0947              1083.6776              1107.5597
 Red. masses --      2.3112                 2.1698                 2.1557
 Frc consts  --      1.5361                 1.5013                 1.5580
 IR Inten    --      7.4801                 5.0495                 4.4516

                     25                     26                     27
                      A                      A                      A
 Frequencies --   1134.0913              1143.3695              1185.8057
 Red. masses --      2.0024                 1.2564                 1.3503
 Frc consts  --      1.5174                 0.9677                 1.1187
 IR Inten    --     37.9208                 2.0336                16.7876

                     28                     29                     30
                      A                      A                      A
 Frequencies --   1222.4216              1279.7650              1281.4963
 Red. masses --      1.2857                 1.2007                 1.3842
 Frc consts  --      1.1320                 1.1587                 1.3393
 IR Inten    --      0.7044                24.1583                 0.7577

                     31                     32                     33
                      A                      A                      A
 Frequencies --   1305.6235              1333.7015              1343.5767
 Red. masses --      1.3520                 1.3904                 1.5130
 Frc consts  --      1.3578                 1.4571                 1.6092
 IR Inten    --      1.5314                 8.4352                 1.1496

                     34                     35                     36
                      A                      A                      A
 Frequencies --   1370.7850              1381.2821              1404.2209
 Red. masses --      1.5210                 1.4654                 1.4315
 Frc consts  --      1.6839                 1.6473                 1.6631
 IR Inten    --      4.5243                12.2178                18.7118

                     37                     38                     39
                      A                      A                      A
 Frequencies --   1423.9761              1467.5185              1481.8216
 Red. masses --      1.5298                 1.0773                 1.0928
 Frc consts  --      1.8277                 1.3669                 1.4138
 IR Inten    --     30.0633                 3.1214                 4.3991

                     40                     41                     42
                      A                      A                      A
 Frequencies --   1511.8057              1794.2898              2970.2759
 Red. masses --      1.1105                 8.7538                 1.0827
 Frc consts  --      1.4954                16.6047                 5.6282
 IR Inten    --      0.6323                 2.1444                48.9251

                     43                     44                     45
                      A                      A                      A
 Frequencies --   3003.9495              3012.2029              3020.6976
 Red. masses --      1.0775                 1.0665                 1.0598
 Frc consts  --      5.7286                 5.7015                 5.6978
 IR Inten    --     63.2762                71.3878                34.8416

                     46                     47                     48
                      A                      A                      A
 Frequencies --   3034.4507              3049.4815              3070.8269
 Red. masses --      1.0760                 1.0898                 1.1041
 Frc consts  --      5.8373                 5.9708                 6.1341
 IR Inten    --     17.7230                41.6753                28.9314

                     49                     50                     51
                      A                      A                      A
 Frequencies --   3087.7309              3156.8516              3753.0664
 Red. masses --      1.0992                 1.0910                 1.0654
 Frc consts  --      6.1746                 6.4057                 8.8418
 IR Inten    --     24.4227                18.1954                41.6343

 - Thermochemistry -
 -------------------
 Temperature   298.150 Kelvin.  Pressure   1.00000 Atm.
 Atom     1 has atomic number  8 and mass  15.99491

 Molecular mass:   126.06808 amu.
 Principal axes and moments of inertia in atomic units:
                           1         2         3
     Eigenvalues --   687.365431042.782201398.01947
           X            0.99981  -0.01062  -0.01620
           Y            0.01129   0.99907   0.04172
           Z            0.01574  -0.04190   0.99900
 This molecule is an asymmetric top.
 Rotational symmetry number  1.
 Warning -- assumption of classical behavior for rotation
           may cause significant error
 Rotational temperatures (Kelvin)      0.12601     0.08306     0.06195
 Rotational constants (GHZ):           2.62559     1.73070     1.29093
 Zero-point vibrational energy     423040.9 (Joules/Mol)
                                  101.10921 (Kcal/Mol)
 Warning -- explicit consideration of  10 degrees of freedom as
           vibrations may cause significant error
 Vibrational temperatures:    199.70   244.10   315.44   384.57   466.32
          (Kelvin)            512.31   621.83   626.56   779.92   855.84
                             1030.89  1100.68  1150.71  1213.76  1240.36
                             1281.14  1352.47  1366.79  1404.85  1428.11
                             1485.27  1528.12  1559.17  1593.53  1631.70
                             1645.05  1706.11  1758.79  1841.29  1843.79
                             1878.50  1918.90  1933.10  1972.25  1987.35
                             2020.36  2048.78  2111.43  2132.01  2175.15
                             2581.58  4273.56  4322.01  4333.88  4346.10
                             4365.89  4387.52  4418.23  4442.55  4542.00
                             5399.82

 Zero-point correction=                           0.161128 (Hartree/Particle)
 Thermal correction to Energy=                    0.168804
 Thermal correction to Enthalpy=                  0.169748
 Thermal correction to Gibbs Free Energy=         0.129292
 Sum of electronic and zero-point Energies=           -423.010284
 Sum of electronic and thermal Energies=              -423.002607
 Sum of electronic and thermal Enthalpies=            -423.001663
 Sum of electronic and thermal Free Energies=         -423.042119

                     E (Thermal)             CV                S
                      KCal/Mol        Cal/Mol-Kelvin    Cal/Mol-Kelvin
 Total                  105.926             30.506             85.147
 Electronic               0.000              0.000              0.000
 Translational            0.889              2.981             40.409
 Rotational               0.889              2.981             28.396
 Vibrational            104.149             24.545             16.343
 Vibration     1          0.614              1.915              2.820
 Vibration     2          0.625              1.880              2.439
 Vibration     3          0.647              1.812              1.965
 Vibration     4          0.672              1.733              1.614
 Vibration     5          0.709              1.627              1.289
 Vibration     6          0.732              1.563              1.139
 Vibration     7          0.793              1.400              0.852
 Vibration     8          0.796              1.393              0.841
 Vibration     9          0.897              1.157              0.561
 Vibration    10          0.953              1.043              0.459

 Normal termination of Gaussian 09 at Tue Jan 28 09:02:09 2020.
