 Gaussian 09, Revision D.01,
 Gaussian 09:  ES64L-G09RevD.01 24-Apr-2013

 -----------------------------
 # b3lyp 6-31G(2df,p) opt Freq
 -----------------------------

 -----
 titel
 -----
 Symbolic Z-matrix:
 Charge =  0 Multiplicity = 1

 SCF Done:  E(RB3LYP) =  -423.192057300     A.U. after   14 cycles
 Optimization completed.
    -- Stationary point found.
 Normal termination of Gaussian 09 at Tue Jan 28 02:26:51 2020.

 ----------------------------------------------------------------------
 #N Geom=AllCheck Guess=TCheck SCRF=Check GenChk RB3LYP/6-31G(2df,p) Fr
 eq
 ----------------------------------------------------------------------

 Structure from the checkpoint file:  "/scratch/puck/g09_c9dcef5f-51cb-432b-8842-e893a341b2aa/Gau-76410.chk"
 -----
 titel
 -----
 Charge =  0 Multiplicity = 1

                         Standard orientation:
 ---------------------------------------------------------------------
 Center     Atomic      Atomic             Coordinates (Angstroms)
 Number     Number       Type             X           Y           Z
 ---------------------------------------------------------------------
      1          6           0        2.423276   -0.795796    0.026760
      2          6           0        1.281048    0.065522   -0.491484
      3          8           0        0.168486   -0.758597   -0.873166
      4          6           0       -0.921131   -0.338905   -0.002999
      5          6           0       -1.930308   -1.440871    0.145517
      6          8           0       -0.247957   -0.017329    1.201655
      7          6           0        0.617675    0.965313    0.610463
      8          6           0       -0.367999    1.864256   -0.123177
      9          6           0       -1.343397    1.044156   -0.512860
     10          1           0        2.709352   -1.537352   -0.724308
     11          1           0        3.300403   -0.178697    0.251003
     12          1           0        2.115274   -1.321574    0.934095
     13          1           0        1.600650    0.663707   -1.353469
     14          1           0       -2.737813   -1.123604    0.809747
     15          1           0       -2.352526   -1.691193   -0.830849
     16          1           0       -1.449557   -2.329839    0.559191
     17          1           0        1.289152    1.403454    1.346428
     18          1           0       -0.204762    2.902857   -0.375379
     19          1           0       -2.189394    1.237604   -1.157686
 ---------------------------------------------------------------------

 SCF Done:  E(RB3LYP) =  -423.192057300     A.U. after    1 cycles

 The electronic state is 1-A.
 Alpha  occ. eigenvalues --  -19.14304 -19.13367 -10.28061 -10.23917 -10.23175
 Alpha  occ. eigenvalues --  -10.18725 -10.18437 -10.17956 -10.17225  -1.09083
 Alpha  occ. eigenvalues --   -0.98210  -0.79412  -0.78956  -0.72745  -0.66989
 Alpha  occ. eigenvalues --   -0.59208  -0.58447  -0.55551  -0.51492  -0.49589
 Alpha  occ. eigenvalues --   -0.46222  -0.43185  -0.42282  -0.40666  -0.39223
 Alpha  occ. eigenvalues --   -0.38372  -0.37527  -0.36959  -0.36093  -0.33825
 Alpha  occ. eigenvalues --   -0.31859  -0.27804  -0.26256  -0.24133
 Alpha virt. eigenvalues --    0.00402   0.10248   0.11799   0.12380   0.12636
 Alpha virt. eigenvalues --    0.14122   0.15310   0.15601   0.16256   0.16481
 Alpha virt. eigenvalues --    0.16952   0.18925   0.20145   0.21622   0.22905

 Mulliken charges:
               1
     1  C   -0.408192
     2  C    0.150019
     3  O   -0.325009
     4  C    0.454981
     5  C   -0.492936
     6  O   -0.263744
     7  C   -0.047105
     8  C   -0.104596
     9  C   -0.115219
    10  H    0.125156
    11  H    0.106994
    12  H    0.132479
    13  H    0.076250
    14  H    0.132435
    15  H    0.132878
    16  H    0.137903
    17  H    0.087347
    18  H    0.109513
    19  H    0.110846
 Sum of Mulliken charges =   0.00000

 Dipole moment (field-independent basis, Debye):
    X=              0.1417    Y=              1.1884    Z=             -0.4218  Tot=              1.2690
 Quadrupole moment (field-independent basis, Debye-Ang):
   XX=            -48.2802   YY=            -50.8806   ZZ=            -56.1827
   XY=              2.2295   XZ=              1.7774   YZ=             -1.1712

  Exact polarizability:  87.257   3.264  77.668   4.246  -0.630  60.078
 Approx polarizability: 121.418  10.801 114.450   7.598   3.730  97.367

                      1                      2                      3
                      A                      A                      A
 Frequencies --    151.6012               185.5264               234.5524
 Red. masses --      3.0291                 1.0446                 1.0357
 Frc consts  --      0.0410                 0.0212                 0.0336
 IR Inten    --      1.0530                 0.0644                 0.1361

                      4                      5                      6
                      A                      A                      A
 Frequencies --    254.6681               304.5582               337.7054
 Red. masses --      2.7145                 2.5926                 2.5738
 Frc consts  --      0.1037                 0.1417                 0.1729
 IR Inten    --      2.6844                 2.7842                 2.8954

                      7                      8                      9
                      A                      A                      A
 Frequencies --    416.6404               426.2466               562.0494
 Red. masses --      2.8590                 3.7863                 3.1040
 Frc consts  --      0.2924                 0.4053                 0.5777
 IR Inten    --      2.5484                 3.2253                 5.4752

                     10                     11                     12
                      A                      A                      A
 Frequencies --    638.2220               658.7256               709.8587
 Red. masses --      3.8760                 5.8985                 1.9420
 Frc consts  --      0.9302                 1.5080                 0.5765
 IR Inten    --      4.2851                 4.3605                 4.6738

                     13                     14                     15
                      A                      A                      A
 Frequencies --    730.0205               790.0081               826.4644
 Red. masses --      3.1181                 3.8535                 2.8604
 Frc consts  --      0.9791                 1.4170                 1.1511
 IR Inten    --      6.3563                54.6278                32.2467

                     16                     17                     18
                      A                      A                      A
 Frequencies --    846.6562               865.3308               894.0340
 Red. masses --      3.5139                 4.3177                 1.9911
 Frc consts  --      1.4841                 1.9049                 0.9377
 IR Inten    --      5.9844                10.5541                15.7782

                     19                     20                     21
                      A                      A                      A
 Frequencies --    904.7868               917.6500               941.2815
 Red. masses --      2.7159                 1.5937                 2.0365
 Frc consts  --      1.3100                 0.7907                 1.0631
 IR Inten    --     33.1064                16.2145                 3.6393

                     22                     23                     24
                      A                      A                      A
 Frequencies --   1007.2278              1056.3234              1070.8830
 Red. masses --      2.6857                 1.9563                 1.5251
 Frc consts  --      1.6053                 1.2861                 1.0304
 IR Inten    --     31.0689                49.4763                 8.9895

                     25                     26                     27
                      A                      A                      A
 Frequencies --   1095.2004              1121.7250              1134.8635
 Red. masses --      1.5828                 1.9741                 2.0557
 Frc consts  --      1.1186                 1.4635                 1.5599
 IR Inten    --     13.2146                16.1685                14.3891

                     28                     29                     30
                      A                      A                      A
 Frequencies --   1175.1191              1240.9600              1268.4570
 Red. masses --      2.0066                 1.4049                 1.6905
 Frc consts  --      1.6326                 1.2747                 1.6026
 IR Inten    --     19.0950                 0.4078                17.5464

                     31                     32                     33
                      A                      A                      A
 Frequencies --   1313.2679              1326.5751              1348.6398
 Red. masses --      1.8198                 1.4890                 2.0087
 Frc consts  --      1.8492                 1.5438                 2.1526
 IR Inten    --      1.2697                10.3856                38.0291

                     34                     35                     36
                      A                      A                      A
 Frequencies --   1379.5980              1400.7188              1423.8875
 Red. masses --      1.3069                 1.3214                 1.8048
 Frc consts  --      1.4655                 1.5275                 2.1559
 IR Inten    --      6.1405                 8.3285                40.7217

                     37                     38                     39
                      A                      A                      A
 Frequencies --   1480.8809              1484.6598              1485.6767
 Red. masses --      1.0511                 1.0452                 1.0529
 Frc consts  --      1.3581                 1.3573                 1.3693
 IR Inten    --      2.0128                 0.6660                 6.0656

                     40                     41                     42
                      A                      A                      A
 Frequencies --   1498.4212              1640.2008              3030.1231
 Red. masses --      1.0469                 6.4371                 1.0800
 Frc consts  --      1.3849                10.2032                 5.8426
 IR Inten    --      2.5541                 5.3963                33.3965

                     43                     44                     45
                      A                      A                      A
 Frequencies --   3038.0088              3057.8344              3108.8129
 Red. masses --      1.0407                 1.0348                 1.0995
 Frc consts  --      5.6591                 5.7008                 6.2608
 IR Inten    --     27.2628                 9.0355                17.8173

                     46                     47                     48
                      A                      A                      A
 Frequencies --   3129.1380              3135.1057              3141.7317
 Red. masses --      1.1025                 1.1018                 1.1025
 Frc consts  --      6.3605                 6.3806                 6.4115
 IR Inten    --     17.9630                10.1153                 9.1935

                     49                     50                     51
                      A                      A                      A
 Frequencies --   3143.9158              3218.8159              3244.5854
 Red. masses --      1.0908                 1.0863                 1.1093
 Frc consts  --      6.3524                 6.6312                 6.8807
 IR Inten    --     26.2512                 3.1328                 6.6606

 - Thermochemistry -
 -------------------
 Temperature   298.150 Kelvin.  Pressure   1.00000 Atm.
 Atom     1 has atomic number  6 and mass  12.00000

 Molecular mass:   126.06808 amu.
 Principal axes and moments of inertia in atomic units:
                           1         2         3
     Eigenvalues --   677.91854 986.142271275.00203
           X            0.99953   0.02845   0.01107
           Y           -0.02810   0.99915  -0.03023
           Z           -0.01192   0.02991   0.99948
 This molecule is an asymmetric top.
 Rotational symmetry number  1.
 Warning -- assumption of classical behavior for rotation
           may cause significant error
 Rotational temperatures (Kelvin)      0.12776     0.08783     0.06793
 Rotational constants (GHZ):           2.66218     1.83010     1.41548
 Zero-point vibrational energy     417484.4 (Joules/Mol)
                                   99.78117 (Kcal/Mol)
 Warning -- explicit consideration of   9 degrees of freedom as
           vibrations may cause significant error
 Vibrational temperatures:    218.12   266.93   337.47   366.41   438.19
          (Kelvin)            485.88   599.45   613.27   808.66   918.26
                              947.76  1021.33  1050.34  1136.64  1189.10
                             1218.15  1245.02  1286.31  1301.78  1320.29
                             1354.29  1449.17  1519.81  1540.76  1575.75
                             1613.91  1632.81  1690.73  1785.46  1825.02
                             1889.50  1908.64  1940.39  1984.93  2015.32
                             2048.65  2130.65  2136.09  2137.55  2155.89
                             2359.88  4359.67  4371.01  4399.54  4472.88
                             4502.13  4510.71  4520.25  4523.39  4631.15
                             4668.23

 Zero-point correction=                           0.159011 (Hartree/Particle)
 Thermal correction to Energy=                    0.166856
 Thermal correction to Enthalpy=                  0.167801
 Thermal correction to Gibbs Free Energy=         0.127271
 Sum of electronic and zero-point Energies=           -423.033046
 Sum of electronic and thermal Energies=              -423.025201
 Sum of electronic and thermal Enthalpies=            -423.024257
 Sum of electronic and thermal Free Energies=         -423.064786

                     E (Thermal)             CV                S
                      KCal/Mol        Cal/Mol-Kelvin    Cal/Mol-Kelvin
 Total                  104.704             31.699             85.301
 Electronic               0.000              0.000              0.000
 Translational            0.889              2.981             40.409
 Rotational               0.889              2.981             28.235
 Vibrational            102.926             25.738             16.658
 Vibration     1          0.619              1.901              2.652
 Vibration     2          0.632              1.860              2.272
 Vibration     3          0.654              1.788              1.844
 Vibration     4          0.665              1.755              1.698
 Vibration     5          0.695              1.665              1.392
 Vibration     6          0.718              1.600              1.223
 Vibration     7          0.780              1.434              0.903
 Vibration     8          0.788              1.413              0.871
 Vibration     9          0.918              1.113              0.520

 Optimization completed.
    -- Stationary point found.
 Normal termination of Gaussian 09 at Tue Jan 28 03:11:57 2020.
