 Gaussian 09, Revision D.01,
 Gaussian 09:  ES64L-G09RevD.01 24-Apr-2013

 -----------------------------
 # b3lyp 6-31G(2df,p) opt Freq
 -----------------------------

 -----
 titel
 -----
 Symbolic Z-matrix:
 Charge =  0 Multiplicity = 1

 SCF Done:  E(RB3LYP) =  -423.198477494     A.U. after   12 cycles
 Optimization completed.
    -- Stationary point found.
 Normal termination of Gaussian 09 at Mon Jan 27 18:10:02 2020.

 ----------------------------------------------------------------------
 #N Geom=AllCheck Guess=TCheck SCRF=Check GenChk RB3LYP/6-31G(2df,p) Fr
 eq
 ----------------------------------------------------------------------

 Structure from the checkpoint file:  "/scratch/puck/g09_e0dabfa8-3004-4e21-9ebf-11ea596ed711/Gau-65359.chk"
 -----
 titel
 -----
 Charge =  0 Multiplicity = 1

                         Standard orientation:
 ---------------------------------------------------------------------
 Center     Atomic      Atomic             Coordinates (Angstroms)
 Number     Number       Type             X           Y           Z
 ---------------------------------------------------------------------
      1          6           0        2.397710   -0.474749   -0.000011
      2          6           0        0.957836   -0.039930   -0.000006
      3          6           0        0.573333    1.451141    0.000022
      4          6           0       -0.908430    1.125219    0.000020
      5          6           0       -1.055951   -0.035219    1.051551
      6          6           0       -1.828788   -0.863298   -0.000017
      7          6           0       -1.055961   -0.035175   -1.051551
      8          8           0        0.286209   -0.534678   -1.162141
      9          8           0        0.286210   -0.534712    1.162132
     10          1           0        2.902933   -0.094694    0.890735
     11          1           0        2.455833   -1.565557   -0.000247
     12          1           0        2.903065   -0.094304   -0.890516
     13          1           0        0.915223    1.970170    0.898067
     14          1           0        0.915221    1.970197   -0.898008
     15          1           0       -1.656379    1.913701    0.000039
     16          1           0       -1.461733    0.127787    2.051006
     17          1           0       -1.673241   -1.943614   -0.000043
     18          1           0       -2.897039   -0.624369   -0.000005
     19          1           0       -1.461728    0.127865   -2.051005
 ---------------------------------------------------------------------

 SCF Done:  E(RB3LYP) =  -423.198477494     A.U. after    1 cycles

 The electronic state is 1-A.
 Alpha  occ. eigenvalues --  -19.13659 -19.13658 -10.27619 -10.23288 -10.23288
 Alpha  occ. eigenvalues --  -10.19261 -10.18151 -10.17738 -10.17594  -1.08042
 Alpha  occ. eigenvalues --   -0.99227  -0.83409  -0.77491  -0.72038  -0.64063
 Alpha  occ. eigenvalues --   -0.62639  -0.59322  -0.53431  -0.50712  -0.49237
 Alpha  occ. eigenvalues --   -0.46441  -0.43653  -0.42333  -0.41908  -0.38563
 Alpha  occ. eigenvalues --   -0.38165  -0.37262  -0.36259  -0.35099  -0.33531
 Alpha  occ. eigenvalues --   -0.31748  -0.29285  -0.25859  -0.24444
 Alpha virt. eigenvalues --    0.08937   0.11126   0.11205   0.13587   0.13736
 Alpha virt. eigenvalues --    0.13942   0.14539   0.16372   0.17315   0.17867
 Alpha virt. eigenvalues --    0.18532   0.18659   0.20671   0.21210   0.21351

 Mulliken charges:
               1
     1  C   -0.474394
     2  C    0.471577
     3  C   -0.267500
     4  C   -0.109089
     5  C    0.096733
     6  C   -0.243486
     7  C    0.096731
     8  O   -0.306433
     9  O   -0.306435
    10  H    0.128299
    11  H    0.137990
    12  H    0.128293
    13  H    0.106488
    14  H    0.106487
    15  H    0.079355
    16  H    0.075339
    17  H    0.108738
    18  H    0.095967
    19  H    0.075339
 Sum of Mulliken charges =   0.00000

 Dipole moment (field-independent basis, Debye):
    X=             -0.8093    Y=              1.6020    Z=              0.0000  Tot=              1.7948
 Quadrupole moment (field-independent basis, Debye-Ang):
   XX=            -48.4384   YY=            -53.0261   ZZ=            -55.1578
   XY=              0.1933   XZ=              0.0000   YZ=              0.0000

  Exact polarizability:  84.299   1.756  69.085   0.000   0.000  67.237
 Approx polarizability: 112.488   0.155 102.490   0.000   0.000 105.754

                      1                      2                      3
                      A                      A                      A
 Frequencies --    183.8268               257.0083               300.5438
 Red. masses --      1.0222                 2.5976                 2.8420
 Frc consts  --      0.0204                 0.1011                 0.1512
 IR Inten    --      0.0001                 2.9398                 4.1371

                      4                      5                      6
                      A                      A                      A
 Frequencies --    363.6155               413.1249               477.5078
 Red. masses --      2.9325                 1.9485                 2.1713
 Frc consts  --      0.2284                 0.1959                 0.2917
 IR Inten    --      0.7762                 1.0672                 0.0019

                      7                      8                      9
                      A                      A                      A
 Frequencies --    575.6303               598.7690               615.2577
 Red. masses --      4.9372                 4.8539                 4.2568
 Frc consts  --      0.9639                 1.0253                 0.9494
 IR Inten    --      7.0154                 0.2861                 3.6085

                     10                     11                     12
                      A                      A                      A
 Frequencies --    667.6459               798.1881               824.2873
 Red. masses --      4.4391                 2.2224                 2.8657
 Frc consts  --      1.1658                 0.8342                 1.1472
 IR Inten    --      2.2930                 6.3640                28.2608

                     13                     14                     15
                      A                      A                      A
 Frequencies --    828.9206               845.8794               883.0775
 Red. masses --      5.1317                 2.0789                 2.2435
 Frc consts  --      2.0775                 0.8764                 1.0308
 IR Inten    --      3.9028                17.4044                12.4229

                     16                     17                     18
                      A                      A                      A
 Frequencies --    883.1089               917.8974               941.0326
 Red. masses --      2.8543                 3.3331                 2.1834
 Frc consts  --      1.3115                 1.6546                 1.1392
 IR Inten    --      8.6513                31.9377                 0.4875

                     19                     20                     21
                      A                      A                      A
 Frequencies --    969.7956               982.7979              1002.3644
 Red. masses --      2.5814                 1.4517                 1.6494
 Frc consts  --      1.4304                 0.8262                 0.9764
 IR Inten    --      5.0367                 1.1730                 0.1196

                     22                     23                     24
                      A                      A                      A
 Frequencies --   1041.4970              1066.9905              1072.6900
 Red. masses --      3.1881                 1.1481                 3.2875
 Frc consts  --      2.0375                 0.7701                 2.2288
 IR Inten    --     45.2625                 9.3604                61.1058

                     25                     26                     27
                      A                      A                      A
 Frequencies --   1135.2138              1141.6115              1164.6018
 Red. masses --      1.4892                 1.6646                 3.0660
 Frc consts  --      1.1307                 1.2782                 2.4501
 IR Inten    --     17.2006                 0.0846                70.8307

                     28                     29                     30
                      A                      A                      A
 Frequencies --   1197.6657              1210.0434              1221.3392
 Red. masses --      1.4906                 1.8306                 1.4243
 Frc consts  --      1.2598                 1.5793                 1.2517
 IR Inten    --      2.7866                10.0908                 2.2410

                     31                     32                     33
                      A                      A                      A
 Frequencies --   1263.3935              1270.6826              1294.6259
 Red. masses --      1.7047                 1.7693                 1.8197
 Frc consts  --      1.6031                 1.6832                 1.7969
 IR Inten    --     20.8423                12.0081                 0.3384

                     34                     35                     36
                      A                      A                      A
 Frequencies --   1338.9326              1345.3461              1355.3168
 Red. masses --      1.3554                 2.2573                 1.4415
 Frc consts  --      1.4316                 2.4072                 1.5601
 IR Inten    --     17.7608                25.4142                17.0121

                     37                     38                     39
                      A                      A                      A
 Frequencies --   1425.9881              1462.6086              1476.9485
 Red. masses --      1.7216                 1.1269                 1.1450
 Frc consts  --      2.0626                 1.4203                 1.4716
 IR Inten    --     38.2038                 3.7003                 4.7168

                     40                     41                     42
                      A                      A                      A
 Frequencies --   1480.2333              1490.3755              3055.1219
 Red. masses --      1.0557                 1.0469                 1.0594
 Frc consts  --      1.3628                 1.3701                 5.8258
 IR Inten    --      1.7404                 2.2087                23.3519

                     43                     44                     45
                      A                      A                      A
 Frequencies --   3059.5613              3073.0101              3098.7021
 Red. masses --      1.0351                 1.0573                 1.0893
 Frc consts  --      5.7091                 5.8825                 6.1626
 IR Inten    --      8.6872                21.9527                88.2140

                     46                     47                     48
                      A                      A                      A
 Frequencies --   3100.6788              3128.1047              3131.3734
 Red. masses --      1.0917                 1.1064                 1.1085
 Frc consts  --      6.1840                 6.3783                 6.4041
 IR Inten    --     19.2967                16.4813                 8.2578

                     49                     50                     51
                      A                      A                      A
 Frequencies --   3138.7297              3140.6789              3157.4878
 Red. masses --      1.1021                 1.1026                 1.0909
 Frc consts  --      6.3970                 6.4079                 6.4081
 IR Inten    --     10.8015                16.5399                21.1391

 - Thermochemistry -
 -------------------
 Temperature   298.150 Kelvin.  Pressure   1.00000 Atm.
 Atom     1 has atomic number  6 and mass  12.00000

 Molecular mass:   126.06808 amu.
 Principal axes and moments of inertia in atomic units:
                           1         2         3
     Eigenvalues --   574.794441021.237621028.14056
           X            0.99998   0.00000   0.00580
           Y           -0.00580  -0.00006   0.99998
           Z            0.00000   1.00000   0.00006
 This molecule is an asymmetric top.
 Rotational symmetry number  1.
 Warning -- assumption of classical behavior for rotation
           may cause significant error
 Rotational temperatures (Kelvin)      0.15069     0.08481     0.08424
 Rotational constants (GHZ):           3.13980     1.76721     1.75534
 Zero-point vibrational energy     423895.7 (Joules/Mol)
                                  101.31351 (Kcal/Mol)
 Warning -- explicit consideration of   9 degrees of freedom as
           vibrations may cause significant error
 Vibrational temperatures:    264.49   369.78   432.41   523.16   594.39
          (Kelvin)            687.03   828.20   861.49   885.22   960.59
                             1148.41  1185.96  1192.63  1217.03  1270.55
                             1270.60  1320.65  1353.93  1395.32  1414.03
                             1442.18  1498.48  1535.16  1543.36  1633.32
                             1642.52  1675.60  1723.17  1740.98  1757.23
                             1817.74  1828.23  1862.68  1926.42  1935.65
                             1950.00  2051.68  2104.36  2125.00  2129.72
                             2144.32  4395.63  4402.02  4421.37  4458.34
                             4461.18  4500.64  4505.34  4515.93  4518.73
                             4542.92

 Zero-point correction=                           0.161453 (Hartree/Particle)
 Thermal correction to Energy=                    0.168173
 Thermal correction to Enthalpy=                  0.169117
 Thermal correction to Gibbs Free Energy=         0.130887
 Sum of electronic and zero-point Energies=           -423.037024
 Sum of electronic and thermal Energies=              -423.030304
 Sum of electronic and thermal Enthalpies=            -423.029360
 Sum of electronic and thermal Free Energies=         -423.067590

                     E (Thermal)             CV                S
                      KCal/Mol        Cal/Mol-Kelvin    Cal/Mol-Kelvin
 Total                  105.530             28.700             80.462
 Electronic               0.000              0.000              0.000
 Translational            0.889              2.981             40.409
 Rotational               0.889              2.981             27.892
 Vibrational            103.753             22.738             12.161
 Vibration     1          0.631              1.862              2.289
 Vibration     2          0.667              1.751              1.682
 Vibration     3          0.693              1.673              1.414
 Vibration     4          0.737              1.547              1.107
 Vibration     5          0.777              1.442              0.916
 Vibration     6          0.834              1.300              0.717
 Vibration     7          0.932              1.084              0.494
 Vibration     8          0.957              1.034              0.452
 Vibration     9          0.975              1.000              0.424

 Optimization completed.
    -- Stationary point found.
 Normal termination of Gaussian 09 at Mon Jan 27 18:55:20 2020.
