 Gaussian 09, Revision D.01,
 Gaussian 09:  ES64L-G09RevD.01 24-Apr-2013

 -----------------------------
 # b3lyp 6-31G(2df,p) opt Freq
 -----------------------------

 -----
 titel
 -----
 Symbolic Z-matrix:
 Charge =  0 Multiplicity = 1

 SCF Done:  E(RB3LYP) =  -423.160125264     A.U. after   14 cycles
 Optimization completed.
    -- Stationary point found.
 Normal termination of Gaussian 09 at Tue Jan 28 12:10:25 2020.

 ----------------------------------------------------------------------
 #N Geom=AllCheck Guess=TCheck SCRF=Check GenChk RB3LYP/6-31G(2df,p) Fr
 eq
 ----------------------------------------------------------------------

 Structure from the checkpoint file:  "/scratch/puck/g09_3743536d-ba34-4600-ad02-d8e5ff0e0cde/Gau-25497.chk"
 -----
 titel
 -----
 Charge =  0 Multiplicity = 1

                         Standard orientation:
 ---------------------------------------------------------------------
 Center     Atomic      Atomic             Coordinates (Angstroms)
 Number     Number       Type             X           Y           Z
 ---------------------------------------------------------------------
      1          8           0       -1.715543    1.594663   -0.083150
      2          6           0       -0.318898    1.736976   -0.030619
      3          6           0        0.506856    0.479326    0.140703
      4          6           0        2.013862    0.575961    0.450217
      5          6           0        2.264938   -0.681067   -0.445376
      6          6           0        0.761192   -0.755619   -0.695906
      7          6           0        0.025892   -0.888276    0.640567
      8          6           0       -1.392470   -1.295678    0.522935
      9          8           0       -2.097347   -1.129052   -0.451750
     10          1           0       -1.932982    0.859832   -0.671581
     11          1           0        0.072454    2.267493   -0.917479
     12          1           0       -0.113946    2.388356    0.829868
     13          1           0        2.461732    1.481901    0.033675
     14          1           0        2.291584    0.504693    1.506228
     15          1           0        2.835717   -0.440113   -1.344937
     16          1           0        2.719812   -1.553089    0.034391
     17          1           0        0.247939   -1.096867   -1.587190
     18          1           0        0.539480   -1.324853    1.495432
     19          1           0       -1.786900   -1.841977    1.405667
 ---------------------------------------------------------------------

 SCF Done:  E(RB3LYP) =  -423.160125264     A.U. after    1 cycles

 The electronic state is 1-A.
 Alpha  occ. eigenvalues --  -19.14097 -19.12440 -10.27777 -10.23225 -10.21747
 Alpha  occ. eigenvalues --  -10.20858 -10.20824 -10.19882 -10.19830  -1.04920
 Alpha  occ. eigenvalues --   -1.00946  -0.91277  -0.75551  -0.71628  -0.66276
 Alpha  occ. eigenvalues --   -0.64131  -0.55507  -0.53924  -0.52736  -0.49187
 Alpha  occ. eigenvalues --   -0.46608  -0.45742  -0.44149  -0.41893  -0.41752
 Alpha  occ. eigenvalues --   -0.40174  -0.38253  -0.36434  -0.34806  -0.32265
 Alpha  occ. eigenvalues --   -0.29151  -0.27983  -0.25914  -0.25499
 Alpha virt. eigenvalues --   -0.03471   0.08663   0.09140   0.10183   0.10854
 Alpha virt. eigenvalues --    0.12724   0.13071   0.14880   0.15899   0.16502
 Alpha virt. eigenvalues --    0.17673   0.17879   0.19606   0.21723   0.22037

 Mulliken charges:
               1
     1  O   -0.416913
     2  C   -0.159027
     3  C    0.295044
     4  C   -0.282997
     5  C   -0.248077
     6  C   -0.084174
     7  C   -0.162885
     8  C    0.132518
     9  O   -0.296061
    10  H    0.297675
    11  H    0.089963
    12  H    0.109431
    13  H    0.114262
    14  H    0.105085
    15  H    0.113828
    16  H    0.104339
    17  H    0.110598
    18  H    0.085844
    19  H    0.091548
 Sum of Mulliken charges =   0.00000

 Dipole moment (field-independent basis, Debye):
    X=              3.2669    Y=             -0.8010    Z=              0.7086  Tot=              3.4375
 Quadrupole moment (field-independent basis, Debye-Ang):
   XX=            -58.6668   YY=            -54.3283   ZZ=            -51.0290
   XY=              2.2062   XZ=             -1.5680   YZ=             -2.4737

  Exact polarizability:  88.111   5.526  76.159  -1.075  -2.655  68.002
 Approx polarizability: 123.228   8.447 109.663   3.260  -2.256 110.805

                      1                      2                      3
                      A                      A                      A
 Frequencies --     69.7012                97.4219               197.0541
 Red. masses --      3.2461                 2.6301                 3.1796
 Frc consts  --      0.0093                 0.0147                 0.0727
 IR Inten    --      3.9597                29.1680                 8.4468

                      4                      5                      6
                      A                      A                      A
 Frequencies --    216.6858               223.6193               247.2035
 Red. masses --      3.6153                 2.8339                 3.6736
 Frc consts  --      0.1000                 0.0835                 0.1323
 IR Inten    --      2.0588                 2.3344                 1.9053

                      7                      8                      9
                      A                      A                      A
 Frequencies --    321.1919               360.8671               443.2637
 Red. masses --      3.7942                 2.0567                 4.4421
 Frc consts  --      0.2306                 0.1578                 0.5142
 IR Inten    --      0.5502                 2.0943                 2.7502

                     10                     11                     12
                      A                      A                      A
 Frequencies --    529.7611               651.8913               696.2581
 Red. masses --      1.0892                 3.9048                 3.9542
 Frc consts  --      0.1801                 0.9777                 1.1294
 IR Inten    --    167.5929                 1.5022                 1.9368

                     13                     14                     15
                      A                      A                      A
 Frequencies --    710.0195               779.8253               831.8440
 Red. masses --      3.8880                 1.2521                 3.2281
 Frc consts  --      1.1548                 0.4486                 1.3161
 IR Inten    --      3.2346                 1.0653                22.2109

                     16                     17                     18
                      A                      A                      A
 Frequencies --    928.7142               940.7773               951.1856
 Red. masses --      2.0919                 2.0135                 2.1327
 Frc consts  --      1.0630                 1.0500                 1.1369
 IR Inten    --      2.8184                 0.9463                11.1502

                     19                     20                     21
                      A                      A                      A
 Frequencies --    975.1351              1019.5875              1036.5564
 Red. masses --      1.7037                 1.7194                 2.4516
 Frc consts  --      0.9545                 1.0531                 1.5520
 IR Inten    --      2.2757                 3.3423                91.0644

                     22                     23                     24
                      A                      A                      A
 Frequencies --   1048.5917              1080.4089              1088.1612
 Red. masses --      1.4572                 2.1586                 2.1914
 Frc consts  --      0.9440                 1.4846                 1.5288
 IR Inten    --     26.8191                 2.6589                45.9065

                     25                     26                     27
                      A                      A                      A
 Frequencies --   1115.4748              1131.7278              1153.4997
 Red. masses --      2.9714                 1.3408                 2.1536
 Frc consts  --      2.1783                 1.0118                 1.6883
 IR Inten    --     26.5644                 1.7614                 7.3484

                     28                     29                     30
                      A                      A                      A
 Frequencies --   1212.8913              1232.5326              1253.4545
 Red. masses --      1.2089                 1.4267                 1.5671
 Frc consts  --      1.0478                 1.2769                 1.4506
 IR Inten    --      0.6528                 2.7217                 4.0506

                     31                     32                     33
                      A                      A                      A
 Frequencies --   1257.8689              1281.7519              1343.7071
 Red. masses --      1.2187                 1.5916                 1.5944
 Frc consts  --      1.1361                 1.5406                 1.6962
 IR Inten    --      2.5022                 4.6549                20.1685

                     34                     35                     36
                      A                      A                      A
 Frequencies --   1381.0841              1415.3834              1434.2792
 Red. masses --      1.3443                 2.7852                 1.2915
 Frc consts  --      1.5107                 3.2874                 1.5653
 IR Inten    --      1.1787                51.9035                 3.7447

                     37                     38                     39
                      A                      A                      A
 Frequencies --   1447.7254              1477.5501              1497.8540
 Red. masses --      1.3012                 1.0846                 1.1216
 Frc consts  --      1.6068                 1.3951                 1.4826
 IR Inten    --     60.2548                 0.1631                 0.1582

                     40                     41                     42
                      A                      A                      A
 Frequencies --   1506.2726              1780.2761              2908.0624
 Red. masses --      1.1038                 9.0345                 1.0837
 Frc consts  --      1.4755                16.8706                 5.3998
 IR Inten    --      0.8574               165.4039               130.3503

                     43                     44                     45
                      A                      A                      A
 Frequencies --   2939.3675              3027.6288              3049.5433
 Red. masses --      1.0721                 1.0876                 1.0583
 Frc consts  --      5.4574                 5.8740                 5.7985
 IR Inten    --     63.0912                31.4866                40.7761

                     46                     47                     48
                      A                      A                      A
 Frequencies --   3056.6167              3097.4231              3115.2589
 Red. masses --      1.0616                 1.1067                 1.1049
 Frc consts  --      5.8437                 6.2555                 6.3177
 IR Inten    --     48.8813                 0.4201                24.2535

                     49                     50                     51
                      A                      A                      A
 Frequencies --   3119.3656              3188.5220              3752.4637
 Red. masses --      1.0894                 1.0919                 1.0665
 Frc consts  --      6.2453                 6.5406                 8.8484
 IR Inten    --     28.1532                 5.8445                76.0677

 - Thermochemistry -
 -------------------
 Temperature   298.150 Kelvin.  Pressure   1.00000 Atm.
 Atom     1 has atomic number  8 and mass  15.99491

 Molecular mass:   126.06808 amu.
 Principal axes and moments of inertia in atomic units:
                           1         2         3
     Eigenvalues --   730.409791183.447591661.72013
           X            0.99999  -0.00063  -0.00417
           Y            0.00056   0.99987  -0.01591
           Z            0.00418   0.01590   0.99986
 This molecule is an asymmetric top.
 Rotational symmetry number  1.
 Warning -- assumption of classical behavior for rotation
           may cause significant error
 Rotational temperatures (Kelvin)      0.11858     0.07319     0.05212
 Rotational constants (GHZ):           2.47086     1.52499     1.08607
 Zero-point vibrational energy     416439.9 (Joules/Mol)
                                   99.53152 (Kcal/Mol)
 Warning -- explicit consideration of  10 degrees of freedom as
           vibrations may cause significant error
 Vibrational temperatures:    100.28   140.17   283.52   311.76   321.74
          (Kelvin)            355.67   462.12   519.21   637.76   762.21
                              937.92  1001.76  1021.56  1121.99  1196.84
                             1336.21  1353.57  1368.54  1403.00  1466.96
                             1491.37  1508.69  1554.47  1565.62  1604.92
                             1628.30  1659.63  1745.08  1773.34  1803.44
                             1809.79  1844.15  1933.29  1987.07  2036.42
                             2063.61  2082.95  2125.86  2155.08  2167.19
                             2561.42  4184.05  4229.09  4356.08  4387.61
                             4397.78  4456.50  4482.16  4488.07  4587.57
                             5398.95

 Zero-point correction=                           0.158614 (Hartree/Particle)
 Thermal correction to Energy=                    0.167340
 Thermal correction to Enthalpy=                  0.168285
 Thermal correction to Gibbs Free Energy=         0.124970
 Sum of electronic and zero-point Energies=           -423.001512
 Sum of electronic and thermal Energies=              -422.992785
 Sum of electronic and thermal Enthalpies=            -422.991841
 Sum of electronic and thermal Free Energies=         -423.035156

                     E (Thermal)             CV                S
                      KCal/Mol        Cal/Mol-Kelvin    Cal/Mol-Kelvin
 Total                  105.008             32.494             91.164
 Electronic               0.000              0.000              0.000
 Translational            0.889              2.981             40.409
 Rotational               0.889              2.981             28.753
 Vibrational            103.230             26.532             22.002
 Vibration     1          0.598              1.969              4.162
 Vibration     2          0.603              1.951              3.505
 Vibration     3          0.636              1.844              2.160
 Vibration     4          0.646              1.816              1.987
 Vibration     5          0.649              1.805              1.930
 Vibration     6          0.661              1.767              1.750
 Vibration     7          0.707              1.633              1.304
 Vibration     8          0.735              1.553              1.118
 Vibration     9          0.803              1.376              0.816
 Vibration    10          0.885              1.184              0.588

 Normal termination of Gaussian 09 at Tue Jan 28 12:57:20 2020.
