 Gaussian 09, Revision D.01,
 Gaussian 09:  ES64L-G09RevD.01 24-Apr-2013

 -----------------------------
 # b3lyp 6-31G(2df,p) opt Freq
 -----------------------------

 -----
 titel
 -----
 Symbolic Z-matrix:
 Charge =  0 Multiplicity = 1

 SCF Done:  E(RB3LYP) =  -423.177056468     A.U. after   14 cycles
 Optimization completed.
    -- Stationary point found.
 Normal termination of Gaussian 09 at Mon Jan 27 13:24:13 2020.

 ----------------------------------------------------------------------
 #N Geom=AllCheck Guess=TCheck SCRF=Check GenChk RB3LYP/6-31G(2df,p) Fr
 eq
 ----------------------------------------------------------------------

 Structure from the checkpoint file:  "/scratch/puck/g09_c8377754-035d-4572-aae6-72fa249ef46b/Gau-155428.chk"
 -----
 titel
 -----
 Charge =  0 Multiplicity = 1

                         Standard orientation:
 ---------------------------------------------------------------------
 Center     Atomic      Atomic             Coordinates (Angstroms)
 Number     Number       Type             X           Y           Z
 ---------------------------------------------------------------------
      1          8           0       -3.166070   -0.184229   -0.172406
      2          6           0       -2.077433   -0.118995    0.336809
      3          6           0       -0.775567    0.061112   -0.413571
      4          6           0       -0.108544    1.396071    0.018460
      5          8           0        1.309419    1.392473   -0.086411
      6          6           0        1.905121    0.122629    0.148527
      7          6           0        1.482640   -0.871619   -0.963728
      8          6           0        0.204428   -1.098267   -0.106873
      9          6           0        1.077587   -0.744444    1.136933
     10          1           0       -1.958332   -0.198559    1.444052
     11          1           0       -1.012386    0.065453   -1.481843
     12          1           0       -0.467217    2.223832   -0.598345
     13          1           0       -0.396226    1.619065    1.058021
     14          1           0        2.962992    0.309834    0.339212
     15          1           0        1.366459   -0.463742   -1.970719
     16          1           0        2.119503   -1.759743   -0.987115
     17          1           0       -0.289392   -2.071741   -0.147941
     18          1           0        0.621589   -0.261512    2.003975
     19          1           0        1.656824   -1.607759    1.471885
 ---------------------------------------------------------------------

 SCF Done:  E(RB3LYP) =  -423.177056468     A.U. after    1 cycles

 The electronic state is 1-A.
 Alpha  occ. eigenvalues --  -19.14546 -19.14351 -10.27337 -10.24211 -10.24175
 Alpha  occ. eigenvalues --  -10.20986 -10.20315 -10.19406 -10.18838  -1.05052
 Alpha  occ. eigenvalues --   -1.04154  -0.85824  -0.79146  -0.67663  -0.66693
 Alpha  occ. eigenvalues --   -0.63684  -0.58432  -0.53765  -0.52190  -0.49569
 Alpha  occ. eigenvalues --   -0.46893  -0.45140  -0.44381  -0.42174  -0.40983
 Alpha  occ. eigenvalues --   -0.39371  -0.38878  -0.38261  -0.35428  -0.33071
 Alpha  occ. eigenvalues --   -0.32673  -0.29749  -0.25537  -0.24568
 Alpha virt. eigenvalues --   -0.02805   0.08059   0.08542   0.10394   0.11325
 Alpha virt. eigenvalues --    0.13064   0.13369   0.14157   0.15398   0.17547
 Alpha virt. eigenvalues --    0.18056   0.18775   0.19340   0.20213   0.21191

 Mulliken charges:
               1
     1  O   -0.244254
     2  C    0.139709
     3  C   -0.088474
     4  C   -0.094695
     5  O   -0.275132
     6  C    0.138153
     7  C   -0.238790
     8  C   -0.043505
     9  C   -0.263734
    10  H    0.074852
    11  H    0.098314
    12  H    0.124737
    13  H    0.097160
    14  H    0.080289
    15  H    0.102523
    16  H    0.101956
    17  H    0.077294
    18  H    0.104220
    19  H    0.109378
 Sum of Mulliken charges =   0.00000

 Dipole moment (field-independent basis, Debye):
    X=              2.0735    Y=             -0.9959    Z=              0.8009  Tot=              2.4357
 Quadrupole moment (field-independent basis, Debye-Ang):
   XX=            -63.9386   YY=            -53.2815   ZZ=            -51.9203
   XY=             -4.4125   XZ=             -1.2443   YZ=             -0.1253

  Exact polarizability:  87.784  -3.225  68.265   0.958  -0.278  69.689
 Approx polarizability: 124.341  -1.158 101.278   4.846  -0.613 107.063

                      1                      2                      3
                      A                      A                      A
 Frequencies --     61.3004               119.2574               235.7427
 Red. masses --      4.8044                 3.5361                 2.5265
 Frc consts  --      0.0106                 0.0296                 0.0827
 IR Inten    --      6.1185                 4.1187                 2.0331

                      4                      5                      6
                      A                      A                      A
 Frequencies --    305.8866               366.4402               385.9413
 Red. masses --      2.2489                 6.0829                 3.3822
 Frc consts  --      0.1240                 0.4812                 0.2968
 IR Inten    --      1.4998                 0.0141                11.4429

                      7                      8                      9
                      A                      A                      A
 Frequencies --    433.2388               461.4343               518.1296
 Red. masses --      2.0519                 2.3446                 4.8179
 Frc consts  --      0.2269                 0.2941                 0.7621
 IR Inten    --      0.1351                 4.0446                 0.4681

                     10                     11                     12
                      A                      A                      A
 Frequencies --    628.5934               804.7748               828.9678
 Red. masses --      2.7461                 1.8603                 2.5280
 Frc consts  --      0.6393                 0.7099                 1.0235
 IR Inten    --      9.0240                 3.2378                 9.9216

                     13                     14                     15
                      A                      A                      A
 Frequencies --    835.5959               879.1705               894.5345
 Red. masses --      2.5670                 3.0763                 2.4729
 Frc consts  --      1.0560                 1.4010                 1.1659
 IR Inten    --      7.1800                 8.7862                 4.7632

                     16                     17                     18
                      A                      A                      A
 Frequencies --    926.3974               939.3498               969.4462
 Red. masses --      2.4137                 2.3771                 1.6414
 Frc consts  --      1.2205                 1.2358                 0.9089
 IR Inten    --      5.3812                 8.2874                 2.5287

                     19                     20                     21
                      A                      A                      A
 Frequencies --    996.0976              1036.3270              1057.6311
 Red. masses --      2.4927                 2.4751                 1.7560
 Frc consts  --      1.4572                 1.5662                 1.1573
 IR Inten    --      7.9192                18.3029                28.5164

                     22                     23                     24
                      A                      A                      A
 Frequencies --   1064.6440              1112.6783              1132.4387
 Red. masses --      1.3318                 1.8759                 2.1897
 Frc consts  --      0.8894                 1.3684                 1.6545
 IR Inten    --      8.3151                13.5233                24.0329

                     25                     26                     27
                      A                      A                      A
 Frequencies --   1142.5823              1154.1786              1195.9447
 Red. masses --      2.3399                 1.9995                 1.7171
 Frc consts  --      1.7998                 1.5693                 1.4470
 IR Inten    --     16.7366                10.3123                65.4204

                     28                     29                     30
                      A                      A                      A
 Frequencies --   1243.5525              1254.4623              1266.2926
 Red. masses --      1.3466                 1.5175                 1.3445
 Frc consts  --      1.2270                 1.4070                 1.2703
 IR Inten    --      0.1922                 2.5822                 0.7721

                     31                     32                     33
                      A                      A                      A
 Frequencies --   1274.6184              1299.5101              1327.4622
 Red. masses --      1.5511                 1.3545                 1.3986
 Frc consts  --      1.4848                 1.3477                 1.4521
 IR Inten    --      8.8698                 2.5718                 1.2489

                     34                     35                     36
                      A                      A                      A
 Frequencies --   1337.4895              1373.7451              1420.4777
 Red. masses --      1.3512                 1.2867                 1.2987
 Frc consts  --      1.4241                 1.4306                 1.5440
 IR Inten    --      7.1180                 8.2139                 9.9890

                     37                     38                     39
                      A                      A                      A
 Frequencies --   1430.5165              1471.9088              1499.0426
 Red. masses --      1.1925                 1.0947                 1.1112
 Frc consts  --      1.4377                 1.3974                 1.4713
 IR Inten    --      2.8656                 3.5453                 2.8551

                     40                     41                     42
                      A                      A                      A
 Frequencies --   1520.2363              1833.1083              2846.3855
 Red. masses --      1.0887                10.3399                 1.0806
 Frc consts  --      1.4825                20.4711                 5.1584
 IR Inten    --      2.1623               198.2882                83.3813

                     43                     44                     45
                      A                      A                      A
 Frequencies --   2974.8503              3058.3620              3065.7120
 Red. masses --      1.0721                 1.0577                 1.0846
 Frc consts  --      5.5899                 5.8288                 6.0058
 IR Inten    --     46.6311                26.1786                 6.6965

                     46                     47                     48
                      A                      A                      A
 Frequencies --   3068.4160              3081.7679              3093.2305
 Red. masses --      1.0612                 1.0848                 1.0910
 Frc consts  --      5.8867                 6.0701                 6.1506
 IR Inten    --     25.6258                40.5655                32.5436

                     49                     50                     51
                      A                      A                      A
 Frequencies --   3101.3920              3120.8213              3124.1482
 Red. masses --      1.0907                 1.1094                 1.1075
 Frc consts  --      6.1814                 6.3660                 6.3689
 IR Inten    --     44.8279                19.4431                33.8988

 - Thermochemistry -
 -------------------
 Temperature   298.150 Kelvin.  Pressure   1.00000 Atm.
 Atom     1 has atomic number  8 and mass  15.99491

 Molecular mass:   126.06808 amu.
 Principal axes and moments of inertia in atomic units:
                           1         2         3
     Eigenvalues --   541.286051439.886351637.47793
           X            0.99960  -0.02797  -0.00485
           Y            0.02798   0.99960   0.00332
           Z            0.00476  -0.00345   0.99998
 This molecule is an asymmetric top.
 Rotational symmetry number  1.
 Warning -- assumption of classical behavior for rotation
           may cause significant error
 Rotational temperatures (Kelvin)      0.16001     0.06015     0.05289
 Rotational constants (GHZ):           3.33417     1.25339     1.10215
 Zero-point vibrational energy     422127.7 (Joules/Mol)
                                  100.89093 (Kcal/Mol)
 Warning -- explicit consideration of   9 degrees of freedom as
           vibrations may cause significant error
 Vibrational temperatures:     88.20   171.58   339.18   440.10   527.23
          (Kelvin)            555.28   623.33   663.90   745.47   904.40
                             1157.89  1192.70  1202.23  1264.93  1287.03
                             1332.88  1351.51  1394.82  1433.16  1491.04
                             1521.69  1531.78  1600.89  1629.32  1643.92
                             1660.60  1720.70  1789.19  1804.89  1821.91
                             1833.89  1869.70  1909.92  1924.35  1976.51
                             2043.75  2058.19  2117.75  2156.79  2187.28
                             2637.43  4095.31  4280.14  4400.30  4410.87
                             4414.76  4433.97  4450.46  4462.21  4490.16
                             4494.95

 Zero-point correction=                           0.160780 (Hartree/Particle)
 Thermal correction to Energy=                    0.168417
 Thermal correction to Enthalpy=                  0.169361
 Thermal correction to Gibbs Free Energy=         0.128206
 Sum of electronic and zero-point Energies=           -423.016277
 Sum of electronic and thermal Energies=              -423.008640
 Sum of electronic and thermal Enthalpies=            -423.007696
 Sum of electronic and thermal Free Energies=         -423.048851

                     E (Thermal)             CV                S
                      KCal/Mol        Cal/Mol-Kelvin    Cal/Mol-Kelvin
 Total                  105.683             29.691             86.618
 Electronic               0.000              0.000              0.000
 Translational            0.889              2.981             40.409
 Rotational               0.889              2.981             28.636
 Vibrational            103.906             23.729             17.574
 Vibration     1          0.597              1.973              4.415
 Vibration     2          0.609              1.933              3.112
 Vibration     3          0.655              1.786              1.835
 Vibration     4          0.696              1.663              1.384
 Vibration     5          0.739              1.541              1.095
 Vibration     6          0.755              1.500              1.016
 Vibration     7          0.794              1.398              0.848
 Vibration     8          0.819              1.336              0.762
 Vibration     9          0.873              1.210              0.614

 Optimization completed.
    -- Stationary point found.
 Normal termination of Gaussian 09 at Mon Jan 27 14:12:39 2020.
