 Gaussian 09, Revision D.01,
 Gaussian 09:  ES64L-G09RevD.01 24-Apr-2013

 -----------------------------
 # b3lyp 6-31G(2df,p) opt Freq
 -----------------------------

 -----
 titel
 -----
 Symbolic Z-matrix:
 Charge =  0 Multiplicity = 1

 SCF Done:  E(RB3LYP) =  -423.204336368     A.U. after   14 cycles
 Optimization completed.
    -- Stationary point found.
 Normal termination of Gaussian 09 at Tue Jan 28 00:32:42 2020.

 ----------------------------------------------------------------------
 #N Geom=AllCheck Guess=TCheck SCRF=Check GenChk RB3LYP/6-31G(2df,p) Fr
 eq
 ----------------------------------------------------------------------

 Structure from the checkpoint file:  "/scratch/puck/g09_0189165b-ad99-4d05-8efb-3e493ee62cfe/Gau-70772.chk"
 -----
 titel
 -----
 Charge =  0 Multiplicity = 1

                         Standard orientation:
 ---------------------------------------------------------------------
 Center     Atomic      Atomic             Coordinates (Angstroms)
 Number     Number       Type             X           Y           Z
 ---------------------------------------------------------------------
      1          6           0       -0.763681    2.142697   -0.070105
      2          6           0       -0.551220    0.703597   -0.545137
      3          6           0       -1.798962   -0.152104   -0.620201
      4          6           0       -1.569793   -1.410150   -0.247019
      5          6           0       -0.124356   -1.616497    0.143846
      6          6           0        0.383256   -0.160162    0.368567
      7          8           0        0.292107    0.201210    1.739357
      8          6           0        1.853749   -0.000942    0.013870
      9          8           0        2.290386   -0.112009   -1.102771
     10          1           0       -1.437084    2.669170   -0.753893
     11          1           0       -1.200432    2.179658    0.931290
     12          1           0        0.180862    2.694286   -0.040761
     13          1           0       -0.083572    0.730893   -1.539610
     14          1           0       -2.744337    0.236524   -0.983728
     15          1           0       -2.292913   -2.217749   -0.263574
     16          1           0        0.023364   -2.212072    1.050854
     17          1           0        0.433033   -2.105479   -0.665405
     18          1           0       -0.616378    0.048879    2.022027
     19          1           0        2.503556    0.223640    0.887188
 ---------------------------------------------------------------------

 SCF Done:  E(RB3LYP) =  -423.204336368     A.U. after    1 cycles

 The electronic state is 1-A.
 Alpha  occ. eigenvalues --  -19.14904 -19.14355 -10.26904 -10.24711 -10.19671
 Alpha  occ. eigenvalues --  -10.19470 -10.19044 -10.18786 -10.17938  -1.05273
 Alpha  occ. eigenvalues --   -1.03255  -0.84758  -0.75464  -0.72882  -0.66790
 Alpha  occ. eigenvalues --   -0.62351  -0.55151  -0.53964  -0.50846  -0.50179
 Alpha  occ. eigenvalues --   -0.45853  -0.44407  -0.43018  -0.42256  -0.40432
 Alpha  occ. eigenvalues --   -0.39410  -0.37430  -0.36962  -0.35170  -0.34453
 Alpha  occ. eigenvalues --   -0.33761  -0.27615  -0.26101  -0.24704
 Alpha virt. eigenvalues --   -0.02981   0.01200   0.07401   0.11502   0.11670
 Alpha virt. eigenvalues --    0.13031   0.13767   0.15766   0.16559   0.16652
 Alpha virt. eigenvalues --    0.17157   0.18461   0.19176   0.20854   0.22612

 Mulliken charges:
               1
     1  C   -0.399937
     2  C   -0.060513
     3  C   -0.080790
     4  C   -0.099013
     5  C   -0.307302
     6  C    0.267182
     7  O   -0.477726
     8  C    0.136916
     9  O   -0.266200
    10  H    0.114643
    11  H    0.113107
    12  H    0.123791
    13  H    0.111300
    14  H    0.097285
    15  H    0.099600
    16  H    0.112833
    17  H    0.132555
    18  H    0.286203
    19  H    0.096066
 Sum of Mulliken charges =   0.00000

 Dipole moment (field-independent basis, Debye):
    X=             -2.4847    Y=             -0.3765    Z=              1.0612  Tot=              2.7279
 Quadrupole moment (field-independent basis, Debye-Ang):
   XX=            -55.2874   YY=            -50.8078   ZZ=            -56.1844
   XY=              0.2757   XZ=              2.3351   YZ=             -1.6752

  Exact polarizability:  81.223   0.306  81.634   2.566  -2.902  66.239
 Approx polarizability: 113.170  -1.884 120.532  -0.738  -6.311 109.809

                      1                      2                      3
                      A                      A                      A
 Frequencies --     51.8265                88.9968               193.7519
 Red. masses --      3.6009                 2.7555                 3.4699
 Frc consts  --      0.0057                 0.0129                 0.0767
 IR Inten    --      8.9326                 1.8629                 2.9247

                      4                      5                      6
                      A                      A                      A
 Frequencies --    207.4830               252.4369               273.4129
 Red. masses --      1.0895                 2.6749                 3.7195
 Frc consts  --      0.0276                 0.1004                 0.1638
 IR Inten    --      1.1952                 1.5839                 4.3369

                      7                      8                      9
                      A                      A                      A
 Frequencies --    300.2069               357.4707               388.1759
 Red. masses --      3.0596                 1.0966                 2.3329
 Frc consts  --      0.1625                 0.0826                 0.2071
 IR Inten    --      2.5415                78.3049                 0.6954

                     10                     11                     12
                      A                      A                      A
 Frequencies --    437.7859               523.5244               549.6283
 Red. masses --      3.0882                 4.1683                 3.5396
 Frc consts  --      0.3487                 0.6731                 0.6300
 IR Inten    --     13.5417                 5.8802                 1.5433

                     13                     14                     15
                      A                      A                      A
 Frequencies --    688.2229               699.6424               766.8530
 Red. masses --      3.9118                 2.1350                 1.6591
 Frc consts  --      1.0917                 0.6157                 0.5748
 IR Inten    --     23.6049                19.3018                14.3187

                     16                     17                     18
                      A                      A                      A
 Frequencies --    775.8704               856.5731               916.9699
 Red. masses --      4.4251                 2.6061                 1.9810
 Frc consts  --      1.5695                 1.1266                 0.9814
 IR Inten    --      1.2308                 6.4711                 8.9532

                     19                     20                     21
                      A                      A                      A
 Frequencies --    949.0912               964.9917               969.9342
 Red. masses --      2.2647                 1.8078                 1.4411
 Frc consts  --      1.2019                 0.9919                 0.7988
 IR Inten    --     19.4885                10.6026                 3.1913

                     22                     23                     24
                      A                      A                      A
 Frequencies --   1012.4334              1048.7621              1085.1628
 Red. masses --      1.5352                 2.0215                 2.1403
 Frc consts  --      0.9271                 1.3100                 1.4850
 IR Inten    --     10.9673                49.1731                 5.4688

                     25                     26                     27
                      A                      A                      A
 Frequencies --   1105.8321              1125.9225              1143.0383
 Red. masses --      1.8679                 1.5555                 1.3265
 Frc consts  --      1.3458                 1.1618                 1.0211
 IR Inten    --      3.9379                 5.6201                 8.7414

                     28                     29                     30
                      A                      A                      A
 Frequencies --   1150.3395              1224.5621              1276.5509
 Red. masses --      2.4482                 1.8235                 1.4753
 Frc consts  --      1.9088                 1.6111                 1.4165
 IR Inten    --      2.4579                48.5633                25.4232

                     31                     32                     33
                      A                      A                      A
 Frequencies --   1292.4087              1335.1715              1364.6478
 Red. masses --      1.4593                 1.3900                 1.7130
 Frc consts  --      1.4361                 1.4599                 1.8795
 IR Inten    --      4.7105                 1.0633                 7.0634

                     34                     35                     36
                      A                      A                      A
 Frequencies --   1374.4837              1408.5320              1417.3379
 Red. masses --      1.4751                 1.3398                 1.3169
 Frc consts  --      1.6419                 1.5662                 1.5586
 IR Inten    --     41.6105                 2.0335                 2.8531

                     37                     38                     39
                      A                      A                      A
 Frequencies --   1472.2019              1492.4584              1496.1750
 Red. masses --      1.0946                 1.0519                 1.0444
 Frc consts  --      1.3978                 1.3805                 1.3775
 IR Inten    --      3.2420                 3.8398                 5.4472

                     40                     41                     42
                      A                      A                      A
 Frequencies --   1678.2778              1832.5527              2906.5715
 Red. masses --      6.4219                10.7457                 1.0850
 Frc consts  --     10.6572                21.2618                 5.4006
 IR Inten    --      3.7809               117.5515                95.4119

                     43                     44                     45
                      A                      A                      A
 Frequencies --   3010.7699              3028.6232              3041.1428
 Red. masses --      1.0817                 1.0617                 1.0354
 Frc consts  --      5.7769                 5.7378                 5.6421
 IR Inten    --      6.3747                17.9245                23.8503

                     46                     47                     48
                      A                      A                      A
 Frequencies --   3075.8052              3107.1222              3117.8943
 Red. masses --      1.1004                 1.1015                 1.1011
 Frc consts  --      6.1335                 6.2655                 6.3068
 IR Inten    --     15.1900                20.3151                22.6479

                     49                     50                     51
                      A                      A                      A
 Frequencies --   3181.1296              3207.2263              3808.5262
 Red. masses --      1.0848                 1.1040                 1.0660
 Frc consts  --      6.4678                 6.6908                 9.1098
 IR Inten    --      4.6995                19.8423                19.6370

 - Thermochemistry -
 -------------------
 Temperature   298.150 Kelvin.  Pressure   1.00000 Atm.
 Atom     1 has atomic number  6 and mass  12.00000

 Molecular mass:   126.06808 amu.
 Principal axes and moments of inertia in atomic units:
                           1         2         3
     Eigenvalues --   863.535551145.279731366.77311
           X            0.99926  -0.02537   0.02900
           Y            0.02608   0.99936  -0.02460
           Z           -0.02836   0.02534   0.99928
 This molecule is an asymmetric top.
 Rotational symmetry number  1.
 Warning -- assumption of classical behavior for rotation
           may cause significant error
 Rotational temperatures (Kelvin)      0.10030     0.07563     0.06337
 Rotational constants (GHZ):           2.08994     1.57581     1.32044
 Zero-point vibrational energy     412918.1 (Joules/Mol)
                                   98.68979 (Kcal/Mol)
 Warning -- explicit consideration of  12 degrees of freedom as
           vibrations may cause significant error
 Vibrational temperatures:     74.57   128.05   278.77   298.52   363.20
          (Kelvin)            393.38   431.93   514.32   558.50   629.88
                              753.23   790.79   990.20  1006.63  1103.33
                             1116.30  1232.42  1319.31  1365.53  1388.41
                             1395.52  1456.66  1508.93  1561.31  1591.04
                             1619.95  1644.58  1655.08  1761.87  1836.67
                             1859.49  1921.01  1963.42  1977.57  2026.56
                             2039.23  2118.17  2147.31  2152.66  2414.66
                             2636.63  4181.90  4331.82  4357.51  4375.52
                             4425.39  4470.45  4485.95  4576.93  4614.48
                             5479.61

 Zero-point correction=                           0.157272 (Hartree/Particle)
 Thermal correction to Energy=                    0.166441
 Thermal correction to Enthalpy=                  0.167385
 Thermal correction to Gibbs Free Energy=         0.123189
 Sum of electronic and zero-point Energies=           -423.047064
 Sum of electronic and thermal Energies=              -423.037896
 Sum of electronic and thermal Enthalpies=            -423.036951
 Sum of electronic and thermal Free Energies=         -423.081148

                     E (Thermal)             CV                S
                      KCal/Mol        Cal/Mol-Kelvin    Cal/Mol-Kelvin
 Total                  104.443             34.264             93.019
 Electronic               0.000              0.000              0.000
 Translational            0.889              2.981             40.409
 Rotational               0.889              2.981             28.693
 Vibrational            102.666             28.303             23.917
 Vibration     1          0.596              1.977              4.746
 Vibration     2          0.602              1.957              3.682
 Vibration     3          0.635              1.849              2.192
 Vibration     4          0.641              1.829              2.066
 Vibration     5          0.664              1.759              1.714
 Vibration     6          0.676              1.722              1.575
 Vibration     7          0.693              1.673              1.416
 Vibration     8          0.733              1.560              1.133
 Vibration     9          0.756              1.495              1.007
 Vibration    10          0.798              1.388              0.834
 Vibration    11          0.878              1.198              0.602
 Vibration    12          0.905              1.140              0.545

 Normal termination of Gaussian 09 at Tue Jan 28 01:15:18 2020.
