 Gaussian 09, Revision D.01,
 Gaussian 09:  ES64L-G09RevD.01 24-Apr-2013

 -----------------------------
 # b3lyp 6-31G(2df,p) opt Freq
 -----------------------------

 -----
 titel
 -----
 Symbolic Z-matrix:
 Charge =  0 Multiplicity = 1

 SCF Done:  E(RB3LYP) =  -423.164186188     A.U. after   14 cycles
 Optimization completed.
    -- Stationary point found.
 Normal termination of Gaussian 09 at Mon Jan 27 12:13:32 2020.

 ----------------------------------------------------------------------
 #N Geom=AllCheck Guess=TCheck SCRF=Check GenChk RB3LYP/6-31G(2df,p) Fr
 eq
 ----------------------------------------------------------------------

 Structure from the checkpoint file:  "/scratch/puck/g09_d658f347-c169-45cb-ae3a-d65d3d782ac9/Gau-153128.chk"
 -----
 titel
 -----
 Charge =  0 Multiplicity = 1

                         Standard orientation:
 ---------------------------------------------------------------------
 Center     Atomic      Atomic             Coordinates (Angstroms)
 Number     Number       Type             X           Y           Z
 ---------------------------------------------------------------------
      1          6           0        2.780352   -0.634106    0.019646
      2          8           0        2.592407    0.781233   -0.089452
      3          6           0        1.539997   -0.000475    0.473108
      4          6           0        0.267370   -0.064444   -0.350350
      5          8           0       -0.470664   -1.168160    0.146801
      6          6           0       -1.830916   -1.166908   -0.259665
      7          6           0       -2.579303    0.038923    0.310415
      8          6           0       -1.778394    1.290271    0.064764
      9          6           0       -0.490977    1.236001   -0.266581
     10          1           0        2.788247   -1.177886   -0.923851
     11          1           0        3.524478   -0.950228    0.748468
     12          1           0        1.379204    0.142230    1.541833
     13          1           0        0.562481   -0.243199   -1.401378
     14          1           0       -1.897221   -1.157541   -1.359681
     15          1           0       -2.252901   -2.110609    0.096572
     16          1           0       -3.568147    0.116191   -0.159293
     17          1           0       -2.759083   -0.097822    1.385545
     18          1           0       -2.285215    2.247999    0.148240
     19          1           0        0.085441    2.130718   -0.483268
 ---------------------------------------------------------------------

 SCF Done:  E(RB3LYP) =  -423.164186188     A.U. after    1 cycles

 The electronic state is 1-A.
 Alpha  occ. eigenvalues --  -19.15170 -19.14120 -10.23828 -10.23618 -10.23276
 Alpha  occ. eigenvalues --  -10.22979 -10.18845 -10.18626 -10.18070  -1.07210
 Alpha  occ. eigenvalues --   -1.03605  -0.80119  -0.77734  -0.68488  -0.65627
 Alpha  occ. eigenvalues --   -0.63517  -0.59713  -0.53301  -0.51302  -0.49231
 Alpha  occ. eigenvalues --   -0.47724  -0.47019  -0.44056  -0.41030  -0.39813
 Alpha  occ. eigenvalues --   -0.39243  -0.38336  -0.37665  -0.35314  -0.31268
 Alpha  occ. eigenvalues --   -0.30133  -0.27152  -0.25537  -0.24772
 Alpha virt. eigenvalues --    0.01652   0.08722   0.10883   0.11166   0.11672
 Alpha virt. eigenvalues --    0.12442   0.13709   0.14365   0.15492   0.16899
 Alpha virt. eigenvalues --    0.17591   0.18706   0.19375   0.19921   0.21631

 Mulliken charges:
               1
     1  C   -0.177342
     2  O   -0.240015
     3  C    0.073363
     4  C    0.065288
     5  O   -0.273702
     6  C   -0.072848
     7  C   -0.255160
     8  C   -0.079341
     9  C   -0.073422
    10  H    0.116361
    11  H    0.117489
    12  H    0.099481
    13  H    0.076094
    14  H    0.092525
    15  H    0.106585
    16  H    0.104854
    17  H    0.116496
    18  H    0.092977
    19  H    0.110320
 Sum of Mulliken charges =   0.00000

 Dipole moment (field-independent basis, Debye):
    X=             -1.4460    Y=             -0.6889    Z=             -0.0740  Tot=              1.6035
 Quadrupole moment (field-independent basis, Debye-Ang):
   XX=            -50.2802   YY=            -54.2622   ZZ=            -52.3981
   XY=             -3.9702   XZ=              0.7363   YZ=              1.0041

  Exact polarizability: 103.274  -3.363  71.005  -4.957   1.031  60.229
 Approx polarizability: 138.093  -2.404 104.532 -11.215  -1.040  93.957

                      1                      2                      3
                      A                      A                      A
 Frequencies --     69.8064                85.0886               171.0697
 Red. masses --      3.9594                 3.2492                 3.4110
 Frc consts  --      0.0114                 0.0139                 0.0588
 IR Inten    --      2.2744                 1.5428                 4.0412

                      4                      5                      6
                      A                      A                      A
 Frequencies --    261.6384               306.1480               323.0587
 Red. masses --      1.9960                 3.4002                 3.9173
 Frc consts  --      0.0805                 0.1878                 0.2409
 IR Inten    --      1.9734                 6.0029                 0.5863

                      7                      8                      9
                      A                      A                      A
 Frequencies --    419.5023               485.9558               501.3346
 Red. masses --      3.1001                 4.6352                 3.0584
 Frc consts  --      0.3214                 0.6449                 0.4529
 IR Inten    --      0.9542                 3.6600                 1.9064

                     10                     11                     12
                      A                      A                      A
 Frequencies --    587.8586               687.8867               784.2844
 Red. masses --      3.9339                 1.4094                 1.9808
 Frc consts  --      0.8010                 0.3929                 0.7179
 IR Inten    --      0.8177                21.7472                10.3849

                     13                     14                     15
                      A                      A                      A
 Frequencies --    853.7196               863.1960               882.0605
 Red. masses --      2.7236                 2.4189                 3.6563
 Frc consts  --      1.1696                 1.0619                 1.6761
 IR Inten    --      4.7421                12.2612                11.9833

                     16                     17                     18
                      A                      A                      A
 Frequencies --    915.6231               925.3403               992.7147
 Red. masses --      2.5826                 3.5727                 1.8213
 Frc consts  --      1.2757                 1.8024                 1.0575
 IR Inten    --     11.5247                42.9298                 8.0127

                     19                     20                     21
                      A                      A                      A
 Frequencies --   1002.4908              1013.9731              1064.4240
 Red. masses --      1.6816                 1.6888                 1.8714
 Frc consts  --      0.9957                 1.0230                 1.2492
 IR Inten    --      1.7383                 5.7161                 5.3827

                     22                     23                     24
                      A                      A                      A
 Frequencies --   1082.5998              1099.6693              1117.0885
 Red. masses --      1.8758                 1.4794                 2.4101
 Frc consts  --      1.2953                 1.0540                 1.7720
 IR Inten    --      5.8167                 6.9338                82.6085

                     25                     26                     27
                      A                      A                      A
 Frequencies --   1146.6969              1161.6903              1175.6903
 Red. masses --      1.6519                 1.5559                 1.5329
 Frc consts  --      1.2798                 1.2372                 1.2484
 IR Inten    --      0.3175                 1.7824                 0.8411

                     28                     29                     30
                      A                      A                      A
 Frequencies --   1209.6706              1233.5143              1276.0891
 Red. masses --      1.3857                 1.2571                 1.2512
 Frc consts  --      1.1947                 1.1270                 1.2004
 IR Inten    --     36.4690                 3.9350                17.0703

                     31                     32                     33
                      A                      A                      A
 Frequencies --   1283.1169              1304.3463              1335.6409
 Red. masses --      1.5886                 1.3538                 1.2430
 Frc consts  --      1.5410                 1.3570                 1.3065
 IR Inten    --     21.7476                 9.7937                 2.7688

                     34                     35                     36
                      A                      A                      A
 Frequencies --   1363.8575              1395.3403              1422.6787
 Red. masses --      1.5051                 1.5147                 1.3917
 Frc consts  --      1.6495                 1.7376                 1.6596
 IR Inten    --      5.0986                 9.9766                 2.3061

                     37                     38                     39
                      A                      A                      A
 Frequencies --   1445.4244              1470.1622              1499.8860
 Red. masses --      1.8530                 1.0925                 1.0927
 Frc consts  --      2.2809                 1.3912                 1.4483
 IR Inten    --      4.1664                 2.6997                 1.2537

                     40                     41                     42
                      A                      A                      A
 Frequencies --   1528.0524              1723.9985              2926.0053
 Red. masses --      1.3767                 6.8558                 1.0804
 Frc consts  --      1.8940                12.0056                 5.4501
 IR Inten    --      2.4843                 3.0507                46.8899

                     43                     44                     45
                      A                      A                      A
 Frequencies --   2977.0326              3014.6808              3049.6456
 Red. masses --      1.0707                 1.0615                 1.0982
 Frc consts  --      5.5911                 5.6841                 6.0178
 IR Inten    --     52.2471                29.3134                31.7921

                     46                     47                     48
                      A                      A                      A
 Frequencies --   3087.1403              3089.1659              3114.8841
 Red. masses --      1.0504                 1.0938                 1.0889
 Frc consts  --      5.8980                 6.1499                 6.2248
 IR Inten    --     25.4879                40.8101                17.2723

                     49                     50                     51
                      A                      A                      A
 Frequencies --   3155.7249              3176.1900              3181.9648
 Red. masses --      1.0848                 1.1196                 1.0970
 Frc consts  --      6.3652                 6.6547                 6.5438
 IR Inten    --     10.4464                25.8510                14.3135

 - Thermochemistry -
 -------------------
 Temperature   298.150 Kelvin.  Pressure   1.00000 Atm.
 Atom     1 has atomic number  6 and mass  12.00000

 Molecular mass:   126.06808 amu.
 Principal axes and moments of inertia in atomic units:
                           1         2         3
     Eigenvalues --   451.287101672.736081999.95813
           X            0.99991  -0.01356   0.00015
           Y            0.01355   0.99978   0.01578
           Z           -0.00037  -0.01578   0.99988
 This molecule is an asymmetric top.
 Rotational symmetry number  1.
 Warning -- assumption of classical behavior for rotation
           may cause significant error
 Rotational temperatures (Kelvin)      0.19193     0.05178     0.04331
 Rotational constants (GHZ):           3.99910     1.07892     0.90239
 Zero-point vibrational energy     420157.3 (Joules/Mol)
                                  100.42001 (Kcal/Mol)
 Warning -- explicit consideration of  10 degrees of freedom as
           vibrations may cause significant error
 Vibrational temperatures:    100.44   122.42   246.13   376.44   440.48
          (Kelvin)            464.81   603.57   699.18   721.31   845.80
                              989.71  1128.41  1228.31  1241.94  1269.09
                             1317.38  1331.36  1428.29  1442.36  1458.88
                             1531.47  1557.62  1582.18  1607.24  1649.84
                             1671.41  1691.55  1740.44  1774.75  1836.01
                             1846.12  1876.66  1921.69  1962.28  2007.58
                             2046.91  2079.64  2115.23  2158.00  2198.52
                             2480.45  4209.86  4283.28  4337.45  4387.75
                             4441.70  4444.62  4481.62  4540.38  4569.82
                             4578.13

 Zero-point correction=                           0.160029 (Hartree/Particle)
 Thermal correction to Energy=                    0.168096
 Thermal correction to Enthalpy=                  0.169040
 Thermal correction to Gibbs Free Energy=         0.126818
 Sum of electronic and zero-point Energies=           -423.004157
 Sum of electronic and thermal Energies=              -422.996091
 Sum of electronic and thermal Enthalpies=            -422.995146
 Sum of electronic and thermal Free Energies=         -423.037368

                     E (Thermal)             CV                S
                      KCal/Mol        Cal/Mol-Kelvin    Cal/Mol-Kelvin
 Total                  105.482             30.558             88.863
 Electronic               0.000              0.000              0.000
 Translational            0.889              2.981             40.409
 Rotational               0.889              2.981             28.803
 Vibrational            103.704             24.596             19.651
 Vibration     1          0.598              1.969              4.159
 Vibration     2          0.601              1.960              3.770
 Vibration     3          0.626              1.878              2.424
 Vibration     4          0.669              1.743              1.651
 Vibration     5          0.697              1.662              1.383
 Vibration     6          0.708              1.629              1.295
 Vibration     7          0.782              1.428              0.894
 Vibration     8          0.842              1.281              0.694
 Vibration     9          0.857              1.247              0.655
 Vibration    10          0.945              1.058              0.471

 Normal termination of Gaussian 09 at Mon Jan 27 12:53:35 2020.
