 Gaussian 09, Revision D.01,
 Gaussian 09:  ES64L-G09RevD.01 24-Apr-2013

 -----------------------------
 # b3lyp 6-31G(2df,p) opt Freq
 -----------------------------

 -----
 titel
 -----
 Symbolic Z-matrix:
 Charge =  0 Multiplicity = 1

 SCF Done:  E(RB3LYP) =  -423.126070953     A.U. after   13 cycles
 Optimization completed.
    -- Stationary point found.
 Normal termination of Gaussian 09 at Tue Jan 28 13:24:44 2020.

 ----------------------------------------------------------------------
 #N Geom=AllCheck Guess=TCheck SCRF=Check GenChk RB3LYP/6-31G(2df,p) Fr
 eq
 ----------------------------------------------------------------------

 Structure from the checkpoint file:  "/scratch/puck/g09_40387f23-676e-4dc5-bdb1-569feeb1ac70/Gau-144744.chk"
 -----
 titel
 -----
 Charge =  0 Multiplicity = 1

                         Standard orientation:
 ---------------------------------------------------------------------
 Center     Atomic      Atomic             Coordinates (Angstroms)
 Number     Number       Type             X           Y           Z
 ---------------------------------------------------------------------
      1          8           0       -2.910418   -0.891851   -0.478330
      2          6           0       -2.309928    0.113905    0.323534
      3          6           0       -1.090191    0.704554   -0.346968
      4          8           0       -0.247377    1.531941    0.471066
      5          6           0        0.271833    0.292887    0.003087
      6          6           0        0.733718   -0.874540    0.903889
      7          6           0        1.949960   -1.028218   -0.024644
      8          6           0        2.735322    0.247493   -0.053029
      9          6           0        1.481230    0.157251   -0.886623
     10          1           0       -2.269627   -1.601786   -0.588847
     11          1           0       -3.071893    0.889340    0.454292
     12          1           0       -2.038882   -0.252438    1.324366
     13          1           0       -1.269837    1.092652   -1.351784
     14          1           0        0.952671   -0.622720    1.946017
     15          1           0        0.048404   -1.727128    0.883589
     16          1           0        2.359336   -1.971606   -0.360822
     17          1           0        2.766025    0.895599    0.819136
     18          1           0        3.659870    0.218783   -0.620510
     19          1           0        1.494623    0.278595   -1.962801
 ---------------------------------------------------------------------

 SCF Done:  E(RB3LYP) =  -423.126070953     A.U. after    1 cycles

 The electronic state is 1-A.
 Alpha  occ. eigenvalues --  -19.14810 -19.14193 -10.24457 -10.23301 -10.23120
 Alpha  occ. eigenvalues --  -10.20361 -10.19806 -10.19522 -10.19407  -1.07028
 Alpha  occ. eigenvalues --   -1.02137  -0.90010  -0.73230  -0.72017  -0.65469
 Alpha  occ. eigenvalues --   -0.60689  -0.58832  -0.53397  -0.52637  -0.51659
 Alpha  occ. eigenvalues --   -0.46652  -0.45291  -0.44081  -0.43154  -0.41795
 Alpha  occ. eigenvalues --   -0.39274  -0.36216  -0.34520  -0.33316  -0.32872
 Alpha  occ. eigenvalues --   -0.28218  -0.27935  -0.27033  -0.25848
 Alpha virt. eigenvalues --    0.04895   0.08709   0.10152   0.11265   0.11720
 Alpha virt. eigenvalues --    0.13039   0.13843   0.14092   0.15085   0.16341
 Alpha virt. eigenvalues --    0.17410   0.18227   0.18689   0.21602   0.22224

 Mulliken charges:
               1
     1  O   -0.412886
     2  C   -0.099352
     3  C   -0.095120
     4  O   -0.295316
     5  C    0.463734
     6  C   -0.335057
     7  C   -0.043130
     8  C   -0.278515
     9  C   -0.141003
    10  H    0.285659
    11  H    0.121609
    12  H    0.098169
    13  H    0.095742
    14  H    0.113703
    15  H    0.099126
    16  H    0.093236
    17  H    0.120953
    18  H    0.116144
    19  H    0.092300
 Sum of Mulliken charges =   0.00000

 Dipole moment (field-independent basis, Debye):
    X=              1.5624    Y=             -1.7761    Z=             -0.5005  Tot=              2.4179
 Quadrupole moment (field-independent basis, Debye-Ang):
   XX=            -56.6736   YY=            -53.9365   ZZ=            -52.1451
   XY=             -1.8685   XZ=             -2.3284   YZ=             -1.0361

  Exact polarizability:  91.929  -2.748  68.184  -0.413  -1.679  66.466
 Approx polarizability: 117.241  -3.568 107.935   3.335   0.119 102.212

                      1                      2                      3
                      A                      A                      A
 Frequencies --     67.6089               114.3601               158.5542
 Red. masses --      4.2807                 3.1134                 3.5486
 Frc consts  --      0.0115                 0.0240                 0.0526
 IR Inten    --      1.7861                 0.9170                 2.5332

                      4                      5                      6
                      A                      A                      A
 Frequencies --    189.4768               317.6594               345.0073
 Red. masses --      2.1242                 1.1925                 3.5196
 Frc consts  --      0.0449                 0.0709                 0.2468
 IR Inten    --      3.0791                92.0960                 9.5118

                      7                      8                      9
                      A                      A                      A
 Frequencies --    390.3112               414.4347               464.9384
 Red. masses --      2.6009                 2.4502                 5.6237
 Frc consts  --      0.2334                 0.2480                 0.7162
 IR Inten    --      5.0338                 3.2433                 2.5673

                     10                     11                     12
                      A                      A                      A
 Frequencies --    545.6652               564.3157               753.3102
 Red. masses --      2.8937                 4.4150                 2.1822
 Frc consts  --      0.5076                 0.8284                 0.7296
 IR Inten    --      1.2784                 7.4698                 4.2724

                     13                     14                     15
                      A                      A                      A
 Frequencies --    783.1178               810.4845               850.9027
 Red. masses --      1.9659                 2.6655                 2.5653
 Frc consts  --      0.7104                 1.0316                 1.0943
 IR Inten    --     17.2194                12.3187                28.3895

                     16                     17                     18
                      A                      A                      A
 Frequencies --    899.8212               937.7936               950.2416
 Red. masses --      2.0053                 1.6151                 2.2848
 Frc consts  --      0.9566                 0.8369                 1.2156
 IR Inten    --      6.7793                14.5349                 9.0364

                     19                     20                     21
                      A                      A                      A
 Frequencies --    978.8346               985.9130              1025.9633
 Red. masses --      1.4083                 2.1823                 1.7646
 Frc consts  --      0.7950                 1.2498                 1.0944
 IR Inten    --      2.8484                12.9864                 6.0305

                     22                     23                     24
                      A                      A                      A
 Frequencies --   1055.0880              1063.6617              1083.6530
 Red. masses --      1.5839                 2.1734                 1.6485
 Frc consts  --      1.0389                 1.4488                 1.1406
 IR Inten    --     41.8270                63.4917                 2.0782

                     25                     26                     27
                      A                      A                      A
 Frequencies --   1089.6092              1104.6473              1106.4704
 Red. masses --      1.6221                 2.4044                 2.3709
 Frc consts  --      1.1347                 1.7286                 1.7102
 IR Inten    --      2.7473                 6.8292                10.6674

                     28                     29                     30
                      A                      A                      A
 Frequencies --   1144.2611              1186.4997              1198.6041
 Red. masses --      1.4747                 1.7588                 1.3693
 Frc consts  --      1.1376                 1.4588                 1.1591
 IR Inten    --      6.7033                 1.1039                 6.1101

                     31                     32                     33
                      A                      A                      A
 Frequencies --   1219.9037              1242.4859              1287.5810
 Red. masses --      1.4354                 1.6112                 1.8128
 Frc consts  --      1.2586                 1.4655                 1.7707
 IR Inten    --     11.2623                 5.1320                 3.1269

                     34                     35                     36
                      A                      A                      A
 Frequencies --   1312.7822              1349.7665              1375.0424
 Red. masses --      1.6788                 1.5863                 1.4007
 Frc consts  --      1.7046                 1.7028                 1.5604
 IR Inten    --     12.4748                 0.9416                12.3976

                     37                     38                     39
                      A                      A                      A
 Frequencies --   1415.9540              1476.2103              1492.7102
 Red. masses --      1.2799                 1.1416                 1.3010
 Frc consts  --      1.5119                 1.4658                 1.7080
 IR Inten    --     49.9342                 1.3511                 3.5632

                     40                     41                     42
                      A                      A                      A
 Frequencies --   1504.6454              1518.0003              3003.3553
 Red. masses --      1.1050                 3.2613                 1.0673
 Frc consts  --      1.4739                 4.4278                 5.6720
 IR Inten    --      2.6992                16.2399                34.0158

                     43                     44                     45
                      A                      A                      A
 Frequencies --   3048.4329              3075.9347              3095.7893
 Red. masses --      1.0578                 1.0928                 1.0902
 Frc consts  --      5.7918                 6.0918                 6.1561
 IR Inten    --     32.9439                20.5855                37.8258

                     46                     47                     48
                      A                      A                      A
 Frequencies --   3097.1723              3114.9110              3186.2675
 Red. masses --      1.1077                 1.0557                 1.0921
 Frc consts  --      6.2602                 6.0352                 6.5327
 IR Inten    --     18.6489                17.6774                10.8477

                     49                     50                     51
                      A                      A                      A
 Frequencies --   3197.9224              3209.2924              3814.1729
 Red. masses --      1.1035                 1.1053                 1.0662
 Frc consts  --      6.6492                 6.7072                 9.1387
 IR Inten    --      4.1781                19.4836                10.9787

 - Thermochemistry -
 -------------------
 Temperature   298.150 Kelvin.  Pressure   1.00000 Atm.
 Atom     1 has atomic number  8 and mass  15.99491

 Molecular mass:   126.06808 amu.
 Principal axes and moments of inertia in atomic units:
                           1         2         3
     Eigenvalues --   486.171471704.187571883.98395
           X            0.99996  -0.00520  -0.00719
           Y            0.00485   0.99884  -0.04801
           Z            0.00743   0.04797   0.99882
 This molecule is an asymmetric top.
 Rotational symmetry number  1.
 Warning -- assumption of classical behavior for rotation
           may cause significant error
 Rotational temperatures (Kelvin)      0.17815     0.05082     0.04597
 Rotational constants (GHZ):           3.71215     1.05900     0.95794
 Zero-point vibrational energy     416417.3 (Joules/Mol)
                                   99.52613 (Kcal/Mol)
 Warning -- explicit consideration of  11 degrees of freedom as
           vibrations may cause significant error
 Vibrational temperatures:     97.27   164.54   228.12   272.61   457.04
          (Kelvin)            496.39   561.57   596.28   668.94   785.09
                              811.92  1083.84  1126.73  1166.10  1224.26
                             1294.64  1349.27  1367.18  1408.32  1418.51
                             1476.13  1518.03  1530.37  1559.13  1567.70
                             1589.34  1591.96  1646.33  1707.11  1724.52
                             1755.17  1787.66  1852.54  1888.80  1942.01
                             1978.38  2037.24  2123.93  2147.67  2164.85
                             2184.06  4321.15  4386.01  4425.58  4454.14
                             4456.13  4481.66  4584.32  4601.09  4617.45
                             5487.74

 Zero-point correction=                           0.158605 (Hartree/Particle)
 Thermal correction to Energy=                    0.167040
 Thermal correction to Enthalpy=                  0.167984
 Thermal correction to Gibbs Free Energy=         0.125236
 Sum of electronic and zero-point Energies=           -422.967466
 Sum of electronic and thermal Energies=              -422.959031
 Sum of electronic and thermal Enthalpies=            -422.958087
 Sum of electronic and thermal Free Energies=         -423.000835

                     E (Thermal)             CV                S
                      KCal/Mol        Cal/Mol-Kelvin    Cal/Mol-Kelvin
 Total                  104.819             32.242             89.971
 Electronic               0.000              0.000              0.000
 Translational            0.889              2.981             40.409
 Rotational               0.889              2.981             28.836
 Vibrational            103.042             26.280             20.727
 Vibration     1          0.598              1.970              4.222
 Vibration     2          0.607              1.938              3.194
 Vibration     3          0.621              1.893              2.567
 Vibration     4          0.633              1.854              2.233
 Vibration     5          0.704              1.640              1.322
 Vibration     6          0.723              1.585              1.189
 Vibration     7          0.758              1.491              0.999
 Vibration     8          0.778              1.439              0.911
 Vibration     9          0.822              1.328              0.752
 Vibration    10          0.901              1.149              0.553
 Vibration    11          0.920              1.108              0.515

 Optimization completed.
    -- Stationary point found.
 Normal termination of Gaussian 09 at Tue Jan 28 14:05:31 2020.
