 Gaussian 09, Revision D.01,
 Gaussian 09:  ES64L-G09RevD.01 24-Apr-2013

 -----------------------------
 # b3lyp 6-31G(2df,p) opt Freq
 -----------------------------

 -----
 titel
 -----
 Symbolic Z-matrix:
 Charge =  0 Multiplicity = 1

 SCF Done:  E(RB3LYP) =  -423.133157709     A.U. after   13 cycles
 Optimization completed.
    -- Stationary point found.
 Normal termination of Gaussian 09 at Tue Jan 28 14:08:59 2020.

 ----------------------------------------------------------------------
 #N Geom=AllCheck Guess=TCheck SCRF=Check GenChk RB3LYP/6-31G(2df,p) Fr
 eq
 ----------------------------------------------------------------------

 Structure from the checkpoint file:  "/scratch/puck/g09_da84d018-12f5-430b-b944-d86f12108f92/Gau-10953.chk"
 -----
 titel
 -----
 Charge =  0 Multiplicity = 1

                         Standard orientation:
 ---------------------------------------------------------------------
 Center     Atomic      Atomic             Coordinates (Angstroms)
 Number     Number       Type             X           Y           Z
 ---------------------------------------------------------------------
      1          8           0       -2.920264   -0.385982   -0.474984
      2          6           0       -2.055436    0.243173    0.461565
      3          6           0       -0.745909    0.537045   -0.247696
      4          6           0        0.443400    0.928730    0.676785
      5          6           0        1.552131    1.190994   -0.363763
      6          6           0        1.584985   -0.278317   -0.833495
      7          8           0        2.046027   -0.942653    0.382398
      8          6           0        0.737208   -0.643381    0.871146
      9          6           0        0.096151   -0.720174   -0.532484
     10          1           0       -3.760133   -0.560889   -0.040484
     11          1           0       -2.488812    1.186036    0.832639
     12          1           0       -1.884291   -0.402836    1.337689
     13          1           0       -0.939277    1.210887   -1.089067
     14          1           0        0.326005    1.620095    1.510335
     15          1           0        1.252685    1.914473   -1.126445
     16          1           0        2.517468    1.474386    0.059917
     17          1           0        2.136375   -0.563609   -1.728006
     18          1           0        0.444418   -1.166702    1.778993
     19          1           0       -0.285730   -1.631181   -0.987230
 ---------------------------------------------------------------------

 SCF Done:  E(RB3LYP) =  -423.133157709     A.U. after    1 cycles

 The electronic state is 1-A.
 Alpha  occ. eigenvalues --  -19.13570 -19.12973 -10.23566 -10.23307 -10.22943
 Alpha  occ. eigenvalues --  -10.19139 -10.18706 -10.18684 -10.18085  -1.05035
 Alpha  occ. eigenvalues --   -1.01625  -0.85651  -0.73830  -0.69474  -0.67916
 Alpha  occ. eigenvalues --   -0.60202  -0.56360  -0.52415  -0.51604  -0.50848
 Alpha  occ. eigenvalues --   -0.48602  -0.44996  -0.43110  -0.41601  -0.39133
 Alpha  occ. eigenvalues --   -0.37297  -0.35088  -0.33770  -0.32999  -0.31530
 Alpha  occ. eigenvalues --   -0.29782  -0.28774  -0.26869  -0.23825
 Alpha virt. eigenvalues --    0.07200   0.08806   0.10631   0.11877   0.12203
 Alpha virt. eigenvalues --    0.13335   0.14305   0.15151   0.16706   0.16958
 Alpha virt. eigenvalues --    0.18086   0.18672   0.20137   0.21029   0.21922

 Mulliken charges:
               1
     1  O   -0.422915
     2  C   -0.111333
     3  C    0.008597
     4  C   -0.112828
     5  C   -0.216829
     6  C    0.056553
     7  O   -0.294229
     8  C    0.102189
     9  C   -0.058527
    10  H    0.287112
    11  H    0.086334
    12  H    0.085898
    13  H    0.071986
    14  H    0.065436
    15  H    0.096863
    16  H    0.105992
    17  H    0.080342
    18  H    0.084641
    19  H    0.084719
 Sum of Mulliken charges =   0.00000

 Dipole moment (field-independent basis, Debye):
    X=             -1.8080    Y=              0.9716    Z=              0.6667  Tot=              2.1581
 Quadrupole moment (field-independent basis, Debye-Ang):
   XX=            -51.9778   YY=            -53.5472   ZZ=            -51.7895
   XY=              3.0275   XZ=             -6.3291   YZ=             -0.1109

  Exact polarizability:  84.304   1.553  69.399  -3.428   0.290  68.311
 Approx polarizability: 112.932  -1.077 105.697  -1.675  -0.615 108.185

                      1                      2                      3
                      A                      A                      A
 Frequencies --     96.2286               169.1898               224.1519
 Red. masses --      4.4900                 4.0073                 1.9137
 Frc consts  --      0.0245                 0.0676                 0.0567
 IR Inten    --      2.6454                 3.2489                28.3858

                      4                      5                      6
                      A                      A                      A
 Frequencies --    277.4541               383.3455               434.2535
 Red. masses --      1.2487                 4.4733                 2.3019
 Frc consts  --      0.0566                 0.3873                 0.2558
 IR Inten    --     76.9502                 5.0684                 0.1879

                      7                      8                      9
                      A                      A                      A
 Frequencies --    524.0242               536.6390               677.0076
 Red. masses --      2.7785                 4.2738                 4.4206
 Frc consts  --      0.4495                 0.7252                 1.1938
 IR Inten    --      8.8011                 2.7332                 2.9443

                     10                     11                     12
                      A                      A                      A
 Frequencies --    742.7699               791.9570               842.4583
 Red. masses --      3.5965                 2.4599                 2.0121
 Frc consts  --      1.1691                 0.9090                 0.8414
 IR Inten    --      3.1725                 1.6242                21.9160

                     13                     14                     15
                      A                      A                      A
 Frequencies --    849.8151               860.3222               911.4039
 Red. masses --      2.1170                 3.2638                 2.3081
 Frc consts  --      0.9008                 1.4233                 1.1296
 IR Inten    --      9.4643                 2.6788                16.1438

                     16                     17                     18
                      A                      A                      A
 Frequencies --    928.0937               948.4894               961.4829
 Red. masses --      2.2951                 4.0148                 2.0495
 Frc consts  --      1.1648                 2.1280                 1.1163
 IR Inten    --      9.0680                 7.9608                 8.2036

                     19                     20                     21
                      A                      A                      A
 Frequencies --    979.7819              1012.8682              1029.8767
 Red. masses --      2.2022                 1.8332                 2.1695
 Frc consts  --      1.2456                 1.1081                 1.3557
 IR Inten    --     11.0175                 9.7194                27.6001

                     22                     23                     24
                      A                      A                      A
 Frequencies --   1056.7945              1064.4032              1081.8694
 Red. masses --      1.4690                 3.2319                 2.2972
 Frc consts  --      0.9666                 2.1574                 1.5842
 IR Inten    --      7.3288                29.3683                17.7676

                     25                     26                     27
                      A                      A                      A
 Frequencies --   1100.0384              1140.3407              1159.4360
 Red. masses --      2.2612                 1.2492                 1.7558
 Frc consts  --      1.6122                 0.9571                 1.3906
 IR Inten    --     35.8887                 5.0759                 4.0771

                     28                     29                     30
                      A                      A                      A
 Frequencies --   1180.0322              1214.6276              1217.4479
 Red. masses --      1.5068                 1.6753                 1.2684
 Frc consts  --      1.2362                 1.4562                 1.1076
 IR Inten    --      1.7838                 2.2924                 5.8871

                     31                     32                     33
                      A                      A                      A
 Frequencies --   1230.6298              1250.6936              1260.9537
 Red. masses --      1.2919                 1.4412                 1.3287
 Frc consts  --      1.1528                 1.3282                 1.2447
 IR Inten    --      1.4023                16.6279                 6.0214

                     34                     35                     36
                      A                      A                      A
 Frequencies --   1275.5066              1293.6209              1306.5318
 Red. masses --      1.5713                 1.4714                 1.6045
 Frc consts  --      1.5061                 1.4507                 1.6137
 IR Inten    --     19.7250                10.9879                11.9803

                     37                     38                     39
                      A                      A                      A
 Frequencies --   1336.2279              1383.3670              1463.3430
 Red. masses --      1.5927                 1.5041                 1.4766
 Frc consts  --      1.6755                 1.6959                 1.8629
 IR Inten    --     13.4949                 2.4825                 9.0297

                     40                     41                     42
                      A                      A                      A
 Frequencies --   1488.7930              1520.9527              2964.4253
 Red. masses --      1.1082                 1.0849                 1.0549
 Frc consts  --      1.4473                 1.4787                 5.4616
 IR Inten    --      2.2508                 3.4910                52.2173

                     43                     44                     45
                      A                      A                      A
 Frequencies --   2989.9367              3052.2657              3068.2629
 Red. masses --      1.1048                 1.0851                 1.0593
 Frc consts  --      5.8190                 5.9563                 5.8756
 IR Inten    --     45.2598                36.6403                34.3315

                     46                     47                     48
                      A                      A                      A
 Frequencies --   3121.8223              3126.7015              3133.7855
 Red. masses --      1.0947                 1.1019                 1.0910
 Frc consts  --      6.2857                 6.3472                 6.3124
 IR Inten    --     25.4624                24.4753                36.9292

                     49                     50                     51
                      A                      A                      A
 Frequencies --   3139.8996              3154.1144              3829.0779
 Red. masses --      1.0895                 1.0947                 1.0664
 Frc consts  --      6.3284                 6.4164                 9.2118
 IR Inten    --     44.5865                18.4473                20.6837

 - Thermochemistry -
 -------------------
 Temperature   298.150 Kelvin.  Pressure   1.00000 Atm.
 Atom     1 has atomic number  8 and mass  15.99491

 Molecular mass:   126.06808 amu.
 Principal axes and moments of inertia in atomic units:
                           1         2         3
     Eigenvalues --   456.715351493.884481582.88688
           X            0.99967   0.01395  -0.02144
           Y           -0.01398   0.99990  -0.00140
           Z            0.02141   0.00170   0.99977
 This molecule is an asymmetric top.
 Rotational symmetry number  1.
 Warning -- assumption of classical behavior for rotation
           may cause significant error
 Rotational temperatures (Kelvin)      0.18965     0.05798     0.05472
 Rotational constants (GHZ):           3.95157     1.20809     1.14016
 Zero-point vibrational energy     423403.4 (Joules/Mol)
                                  101.19583 (Kcal/Mol)
 Warning -- explicit consideration of   8 degrees of freedom as
           vibrations may cause significant error
 Vibrational temperatures:    138.45   243.43   322.50   399.19   551.55
          (Kelvin)            624.79   753.95   772.10   974.06  1068.68
                             1139.45  1212.11  1222.69  1237.81  1311.31
                             1335.32  1364.66  1383.36  1409.69  1457.29
                             1481.76  1520.49  1531.44  1556.57  1582.71
                             1640.69  1668.17  1697.80  1747.58  1751.63
                             1770.60  1799.47  1814.23  1835.17  1861.23
                             1879.81  1922.53  1990.35  2105.42  2142.04
                             2188.31  4265.14  4301.85  4391.52  4414.54
                             4491.60  4498.62  4508.81  4517.61  4538.06
                             5509.18

 Zero-point correction=                           0.161266 (Hartree/Particle)
 Thermal correction to Energy=                    0.168532
 Thermal correction to Enthalpy=                  0.169477
 Thermal correction to Gibbs Free Energy=         0.129466
 Sum of electronic and zero-point Energies=           -422.971892
 Sum of electronic and thermal Energies=              -422.964625
 Sum of electronic and thermal Enthalpies=            -422.963681
 Sum of electronic and thermal Free Energies=         -423.003692

                     E (Thermal)             CV                S
                      KCal/Mol        Cal/Mol-Kelvin    Cal/Mol-Kelvin
 Total                  105.756             29.251             84.210
 Electronic               0.000              0.000              0.000
 Translational            0.889              2.981             40.409
 Rotational               0.889              2.981             28.470
 Vibrational            103.978             23.289             15.332
 Vibration     1          0.603              1.952              3.529
 Vibration     2          0.625              1.880              2.444
 Vibration     3          0.649              1.804              1.925
 Vibration     4          0.678              1.715              1.549
 Vibration     5          0.753              1.506              1.026
 Vibration     6          0.795              1.396              0.845
 Vibration     7          0.879              1.197              0.601
 Vibration     8          0.892              1.169              0.573

 Optimization completed.
    -- Stationary point found.
 Normal termination of Gaussian 09 at Tue Jan 28 14:58:26 2020.
 Normal termination of Gaussian 09 at Tue Jan 28 13:57:14 2020.
