 Gaussian 09, Revision D.01,
 Gaussian 09:  ES64L-G09RevD.01 24-Apr-2013

 -----------------------------
 # b3lyp 6-31G(2df,p) opt Freq
 -----------------------------

 -----
 titel
 -----
 Symbolic Z-matrix:
 Charge =  0 Multiplicity = 1

 SCF Done:  E(RB3LYP) =  -423.160186229     A.U. after   15 cycles
 Optimization completed.
    -- Stationary point found.
 Normal termination of Gaussian 09 at Tue Jan 28 12:07:09 2020.

 ----------------------------------------------------------------------
 #N Geom=AllCheck Guess=TCheck SCRF=Check GenChk RB3LYP/6-31G(2df,p) Fr
 eq
 ----------------------------------------------------------------------

 Structure from the checkpoint file:  "/scratch/puck/g09_97609092-2560-4465-811a-0300249dd153/Gau-1503.chk"
 -----
 titel
 -----
 Charge =  0 Multiplicity = 1

                         Standard orientation:
 ---------------------------------------------------------------------
 Center     Atomic      Atomic             Coordinates (Angstroms)
 Number     Number       Type             X           Y           Z
 ---------------------------------------------------------------------
      1          8           0        4.729205   -0.351358   -0.155196
      2          6           0        3.369077   -0.226747   -0.523183
      3          6           0        2.481765    0.182655    0.670426
      4          6           0        1.084916    0.356117    0.292914
      5          6           0       -0.054898    0.494357   -0.071351
      6          6           0       -1.447769    0.645176   -0.472975
      7          6           0       -2.415134   -0.178691    0.409656
      8          6           0       -3.860920    0.079241    0.049406
      9          8           0       -4.678024   -0.773293   -0.180759
     10          1           0        4.814966   -1.121325    0.415897
     11          1           0        3.329392    0.552928   -1.289207
     12          1           0        2.976885   -1.150016   -0.973468
     13          1           0        2.563902   -0.583479    1.454403
     14          1           0        2.885316    1.107645    1.099608
     15          1           0       -1.733874    1.704941   -0.431570
     16          1           0       -1.566593    0.340282   -1.520659
     17          1           0       -2.211284   -1.249183    0.334063
     18          1           0       -2.273843    0.122007    1.456663
     19          1           0       -4.136530    1.160751    0.012554
 ---------------------------------------------------------------------

 SCF Done:  E(RB3LYP) =  -423.160186229     A.U. after    1 cycles

 The electronic state is 1-A.
 Alpha  occ. eigenvalues --  -19.14489 -19.14242 -10.27685 -10.23636 -10.22368
 Alpha  occ. eigenvalues --  -10.20922 -10.20464 -10.18021 -10.17774  -1.05170
 Alpha  occ. eigenvalues --   -1.02419  -0.81924  -0.79007  -0.72695  -0.67311
 Alpha  occ. eigenvalues --   -0.63469  -0.58245  -0.51482  -0.50154  -0.48726
 Alpha  occ. eigenvalues --   -0.46730  -0.46028  -0.45229  -0.42440  -0.41533
 Alpha  occ. eigenvalues --   -0.40715  -0.39509  -0.38227  -0.36393  -0.33513
 Alpha  occ. eigenvalues --   -0.28588  -0.26676  -0.25389  -0.24806
 Alpha virt. eigenvalues --   -0.02798   0.04628   0.05199   0.07026   0.10198
 Alpha virt. eigenvalues --    0.12099   0.12301   0.13155   0.13864   0.14981
 Alpha virt. eigenvalues --    0.15183   0.17935   0.19809   0.21054   0.21903

 Mulliken charges:
               1
     1  O   -0.407906
     2  C   -0.054689
     3  C   -0.357389
     4  C    0.095177
     5  C    0.045142
     6  C   -0.364692
     7  C   -0.260135
     8  C    0.156329
     9  O   -0.232072
    10  H    0.284460
    11  H    0.125199
    12  H    0.100915
    13  H    0.117338
    14  H    0.137958
    15  H    0.133597
    16  H    0.141949
    17  H    0.133458
    18  H    0.133817
    19  H    0.071541
 Sum of Mulliken charges =   0.00000

 Dipole moment (field-independent basis, Debye):
    X=              1.2607    Y=              0.4164    Z=              1.0113  Tot=              1.6689
 Quadrupole moment (field-independent basis, Debye-Ang):
   XX=            -72.0165   YY=            -51.5795   ZZ=            -51.4607
   XY=            -12.1324   XZ=              2.3582   YZ=             -1.5448

  Exact polarizability: 123.041  -2.242  65.852   8.894  -1.357  61.198
 Approx polarizability: 157.688   0.705 100.973  19.359  -1.622  91.899

                      1                      2                      3
                      A                      A                      A
 Frequencies --     19.4074                55.1771                57.9304
 Red. masses --      3.5049                 2.7545                 3.4765
 Frc consts  --      0.0008                 0.0049                 0.0069
 IR Inten    --      2.7610                 1.9789                 5.9404

                      4                      5                      6
                      A                      A                      A
 Frequencies --     79.1420               103.3582               130.7934
 Red. masses --      3.5444                 3.1130                 4.0317
 Frc consts  --      0.0131                 0.0196                 0.0406
 IR Inten    --      3.1693                 1.7396                 1.5834

                      7                      8                      9
                      A                      A                      A
 Frequencies --    252.0487               273.4741               302.9799
 Red. masses --      3.1212                 2.8641                 1.2255
 Frc consts  --      0.1168                 0.1262                 0.0663
 IR Inten    --     11.4483                 1.3624                74.1776

                     10                     11                     12
                      A                      A                      A
 Frequencies --    336.8133               394.4043               463.8775
 Red. masses --      3.1100                 4.4296                 5.2291
 Frc consts  --      0.2079                 0.4060                 0.6630
 IR Inten    --     49.9881                 3.5287                 5.1705

                     13                     14                     15
                      A                      A                      A
 Frequencies --    499.9901               543.5192               754.4563
 Red. masses --      6.5539                 2.9956                 1.3075
 Frc consts  --      0.9653                 0.5214                 0.4385
 IR Inten    --      0.9601                14.8830                 1.2176

                     16                     17                     18
                      A                      A                      A
 Frequencies --    780.9118               803.2379               851.3604
 Red. masses --      1.1562                 3.3452                 1.6122
 Frc consts  --      0.4154                 1.2716                 0.6885
 IR Inten    --      1.6837                 0.6561                 3.4713

                     19                     20                     21
                      A                      A                      A
 Frequencies --    990.1368              1009.2842              1051.1123
 Red. masses --      3.1725                 3.2380                 1.8819
 Frc consts  --      1.8325                 1.9434                 1.2250
 IR Inten    --      8.5535                 4.9763                93.3573

                     22                     23                     24
                      A                      A                      A
 Frequencies --   1075.7731              1083.6933              1094.0192
 Red. masses --      2.6810                 3.9479                 2.0569
 Frc consts  --      1.8280                 2.7317                 1.4505
 IR Inten    --     12.2534                77.7343                22.1906

                     25                     26                     27
                      A                      A                      A
 Frequencies --   1166.1030              1170.3331              1197.9948
 Red. masses --      2.3727                 1.2331                 1.2796
 Frc consts  --      1.9010                 0.9951                 1.0821
 IR Inten    --      1.6742                 8.7385                11.8940

                     28                     29                     30
                      A                      A                      A
 Frequencies --   1263.3389              1295.0815              1303.7084
 Red. masses --      1.3666                 1.3484                 1.1124
 Frc consts  --      1.2851                 1.3325                 1.1139
 IR Inten    --      1.0200                 0.4115                 2.3684

                     31                     32                     33
                      A                      A                      A
 Frequencies --   1312.4675              1364.0118              1396.2099
 Red. masses --      1.1911                 1.5260                 1.2774
 Frc consts  --      1.2088                 1.6727                 1.4672
 IR Inten    --     15.1295                30.3517                15.8486

                     34                     35                     36
                      A                      A                      A
 Frequencies --   1413.5519              1430.7880              1461.6655
 Red. masses --      1.2442                 1.1940                 1.0819
 Frc consts  --      1.4648                 1.4401                 1.3619
 IR Inten    --     42.5748                 6.2844                 3.9094

                     37                     38                     39
                      A                      A                      A
 Frequencies --   1474.0424              1481.6163              1510.0940
 Red. masses --      1.0878                 1.0948                 1.0891
 Frc consts  --      1.3926                 1.4160                 1.4633
 IR Inten    --      2.6745                 3.2349                 0.5391

                     40                     41                     42
                      A                      A                      A
 Frequencies --   1839.3347              2368.7170              2845.1926
 Red. masses --     10.2371                11.8534                 1.0813
 Frc consts  --     20.4055                39.1851                 5.1573
 IR Inten    --    198.6198                 0.4315               117.5073

                     43                     44                     45
                      A                      A                      A
 Frequencies --   3003.4836              3009.2982              3013.6721
 Red. masses --      1.0680                 1.0656                 1.0588
 Frc consts  --      5.6765                 5.6854                 5.6656
 IR Inten    --     32.1401                36.5215                20.3773

                     46                     47                     48
                      A                      A                      A
 Frequencies --   3029.2385              3047.0242              3055.9449
 Red. masses --      1.0696                 1.0957                 1.0926
 Frc consts  --      5.7826                 5.9939                 6.0115
 IR Inten    --      7.2159                12.2698                12.4017

                     49                     50                     51
                      A                      A                      A
 Frequencies --   3095.7061              3117.3129              3817.5309
 Red. masses --      1.0978                 1.0972                 1.0662
 Frc consts  --      6.1986                 6.2818                 9.1550
 IR Inten    --     29.6214                11.0200                22.5003

 - Thermochemistry -
 -------------------
 Temperature   298.150 Kelvin.  Pressure   1.00000 Atm.
 Atom     1 has atomic number  8 and mass  15.99491

 Molecular mass:   126.06808 amu.
 Principal axes and moments of inertia in atomic units:
                           1         2         3
     Eigenvalues --   211.296414726.274314750.98213
           X            0.99996  -0.00844   0.00205
           Y            0.00867   0.98535  -0.17030
           Z           -0.00059   0.17031   0.98539
 This molecule is an asymmetric top.
 Rotational symmetry number  1.
 Rotational temperatures (Kelvin)      0.40992     0.01833     0.01823
 Rotational constants (GHZ):           8.54128     0.38185     0.37987
 Zero-point vibrational energy     409663.3 (Joules/Mol)
                                   97.91189 (Kcal/Mol)
 Warning -- explicit consideration of  14 degrees of freedom as
           vibrations may cause significant error
 Vibrational temperatures:     27.92    79.39    83.35   113.87   148.71
          (Kelvin)            188.18   362.64   393.47   435.92   484.60
                              567.46   667.42   719.37   782.00  1085.49
                             1123.56  1155.68  1224.92  1424.58  1452.13
                             1512.31  1547.80  1559.19  1574.05  1677.76
                             1683.85  1723.65  1817.66  1863.33  1875.74
                             1888.35  1962.51  2008.83  2033.78  2058.58
                             2103.01  2120.82  2131.71  2172.69  2646.39
                             3408.05  4093.59  4321.34  4329.70  4336.00
                             4358.39  4383.98  4396.82  4454.03  4485.11
                             5492.57

 Zero-point correction=                           0.156033 (Hartree/Particle)
 Thermal correction to Energy=                    0.166961
 Thermal correction to Enthalpy=                  0.167905
 Thermal correction to Gibbs Free Energy=         0.117073
 Sum of electronic and zero-point Energies=           -423.004154
 Sum of electronic and thermal Energies=              -422.993226
 Sum of electronic and thermal Enthalpies=            -422.992281
 Sum of electronic and thermal Free Energies=         -423.043113

                     E (Thermal)             CV                S
                      KCal/Mol        Cal/Mol-Kelvin    Cal/Mol-Kelvin
 Total                  104.769             36.319            106.983
 Electronic               0.000              0.000              0.000
 Translational            0.889              2.981             40.409
 Rotational               0.889              2.981             29.941
 Vibrational            102.992             30.357             36.634
 Vibration     1          0.593              1.986              6.694
 Vibration     2          0.596              1.976              4.623
 Vibration     3          0.596              1.974              4.526
 Vibration     4          0.600              1.963              3.912
 Vibration     5          0.605              1.947              3.390
 Vibration     6          0.612              1.923              2.934
 Vibration     7          0.664              1.759              1.716
 Vibration     8          0.676              1.722              1.574
 Vibration     9          0.694              1.668              1.400
 Vibration    10          0.718              1.602              1.227
 Vibration    11          0.761              1.482              0.983
 Vibration    12          0.821              1.330              0.755
 Vibration    13          0.855              1.250              0.658
 Vibration    14          0.899              1.154              0.558

 Optimization completed.
    -- Stationary point found.
 Normal termination of Gaussian 09 at Tue Jan 28 12:40:30 2020.
