 Gaussian 09, Revision D.01,
 Gaussian 09:  ES64L-G09RevD.01 24-Apr-2013

 -----------------------------
 # b3lyp 6-31G(2df,p) opt Freq
 -----------------------------

 -----
 titel
 -----
 Symbolic Z-matrix:
 Charge =  0 Multiplicity = 1

 SCF Done:  E(RB3LYP) =  -423.127612894     A.U. after   14 cycles
 Optimization completed.
    -- Stationary point found.
 Normal termination of Gaussian 09 at Tue Jan 28 09:15:18 2020.

 ----------------------------------------------------------------------
 #N Geom=AllCheck Guess=TCheck SCRF=Check GenChk RB3LYP/6-31G(2df,p) Fr
 eq
 ----------------------------------------------------------------------

 Structure from the checkpoint file:  "/scratch/puck/g09_3ed36313-902d-48ed-ac5b-ba895e43fde0/Gau-11110.chk"
 -----
 titel
 -----
 Charge =  0 Multiplicity = 1

                         Standard orientation:
 ---------------------------------------------------------------------
 Center     Atomic      Atomic             Coordinates (Angstroms)
 Number     Number       Type             X           Y           Z
 ---------------------------------------------------------------------
      1          6           0        2.431283   -1.124263   -0.412522
      2          6           0        1.561756   -0.606910    0.738096
      3          6           0        0.441454    0.275890    0.278804
      4          6           0       -0.565256    1.119101    1.110216
      5          6           0       -0.689544    1.513924   -0.372813
      6          8           0        0.776195    1.527256   -0.479969
      7          6           0       -0.659564    0.001654   -0.792155
      8          6           0       -1.820504   -0.914754   -0.537939
      9          8           0       -2.014343   -1.531103    0.482608
     10          1           0        1.853006   -1.757108   -1.093528
     11          1           0        2.839615   -0.291852   -0.992063
     12          1           0        3.264939   -1.720158   -0.031010
     13          1           0        1.115998   -1.439831    1.294727
     14          1           0        2.171551   -0.037005    1.449493
     15          1           0       -1.389994    0.596313    1.593532
     16          1           0       -0.102021    1.881456    1.737588
     17          1           0       -1.238201    2.328915   -0.844382
     18          1           0       -0.279360   -0.115570   -1.811094
     19          1           0       -2.528100   -1.002234   -1.394496
 ---------------------------------------------------------------------

 SCF Done:  E(RB3LYP) =  -423.127612894     A.U. after    1 cycles

 The electronic state is 1-A.
 Alpha  occ. eigenvalues --  -19.14820 -19.13604 -10.27851 -10.26220 -10.25801
 Alpha  occ. eigenvalues --  -10.20728 -10.19228 -10.19120 -10.17922  -1.06320
 Alpha  occ. eigenvalues --   -1.05133  -0.80576  -0.77895  -0.71489  -0.66557
 Alpha  occ. eigenvalues --   -0.61440  -0.60496  -0.52796  -0.49506  -0.48551
 Alpha  occ. eigenvalues --   -0.46138  -0.45771  -0.44169  -0.40993  -0.39900
 Alpha  occ. eigenvalues --   -0.39287  -0.37573  -0.35758  -0.35479  -0.33769
 Alpha  occ. eigenvalues --   -0.32503  -0.31067  -0.26591  -0.23883
 Alpha virt. eigenvalues --   -0.03686   0.08748   0.09119   0.10995   0.12270
 Alpha virt. eigenvalues --    0.13114   0.13439   0.14161   0.15463   0.15793
 Alpha virt. eigenvalues --    0.16779   0.17946   0.18088   0.18534   0.19199

 Mulliken charges:
               1
     1  C   -0.385234
     2  C   -0.325244
     3  C    0.435663
     4  C   -0.286596
     5  C    0.027723
     6  O   -0.345315
     7  C   -0.120210
     8  C    0.118757
     9  O   -0.253083
    10  H    0.117136
    11  H    0.138906
    12  H    0.116960
    13  H    0.126902
    14  H    0.114244
    15  H    0.126258
    16  H    0.108489
    17  H    0.101648
    18  H    0.099724
    19  H    0.083270
 Sum of Mulliken charges =   0.00000

 Dipole moment (field-independent basis, Debye):
    X=             -0.1189    Y=              0.3346    Z=             -0.8179  Tot=              0.8917
 Quadrupole moment (field-independent basis, Debye-Ang):
   XX=            -54.2740   YY=            -56.5084   ZZ=            -51.8821
   XY=             -6.5704   XZ=              4.8382   YZ=              2.9215

  Exact polarizability:  80.105  -0.240  75.279   2.844  -0.070  72.877
 Approx polarizability: 109.886   5.925 114.193   0.108  -8.479 115.226

                      1                      2                      3
                      A                      A                      A
 Frequencies --     64.5487                87.0719               145.2752
 Red. masses --      4.3428                 2.3451                 2.3523
 Frc consts  --      0.0107                 0.0105                 0.0293
 IR Inten    --      3.2127                 5.5858                 5.0860

                      4                      5                      6
                      A                      A                      A
 Frequencies --    181.8226               209.4031               261.1887
 Red. masses --      2.7122                 1.5493                 2.4150
 Frc consts  --      0.0528                 0.0400                 0.0971
 IR Inten    --      1.1577                 3.5434                 2.0140

                      7                      8                      9
                      A                      A                      A
 Frequencies --    348.9685               390.9392               450.3637
 Red. masses --      2.5579                 3.3923                 3.7675
 Frc consts  --      0.1835                 0.3055                 0.4502
 IR Inten    --      2.7200                 1.3869                 0.3340

                     10                     11                     12
                      A                      A                      A
 Frequencies --    577.0084               621.3228               666.2923
 Red. masses --      2.6996                 3.3818                 3.8574
 Frc consts  --      0.5296                 0.7692                 1.0090
 IR Inten    --      4.6713                 8.9520                19.4815

                     13                     14                     15
                      A                      A                      A
 Frequencies --    740.8292               773.0279               807.1663
 Red. masses --      3.3844                 2.1410                 1.6994
 Frc consts  --      1.0944                 0.7538                 0.6523
 IR Inten    --     11.5308                11.1534                 4.1807

                     16                     17                     18
                      A                      A                      A
 Frequencies --    880.1907               902.9154               925.9548
 Red. masses --      2.6262                 4.4485                 2.2785
 Frc consts  --      1.1988                 2.1368                 1.1510
 IR Inten    --     21.7285                 7.3116                20.7059

                     19                     20                     21
                      A                      A                      A
 Frequencies --    957.4744               993.2034              1019.9106
 Red. masses --      2.1677                 1.4718                 2.3524
 Frc consts  --      1.1709                 0.8554                 1.4417
 IR Inten    --     26.9914                 1.3266                 5.8514

                     22                     23                     24
                      A                      A                      A
 Frequencies --   1047.0717              1062.7263              1080.9055
 Red. masses --      1.2085                 1.8706                 1.9426
 Frc consts  --      0.7806                 1.2447                 1.3372
 IR Inten    --      1.7911                10.5223                 5.8031

                     25                     26                     27
                      A                      A                      A
 Frequencies --   1104.8676              1144.6519              1159.7808
 Red. masses --      1.9516                 1.6092                 1.7305
 Frc consts  --      1.4037                 1.2422                 1.3714
 IR Inten    --      7.0270                 4.5841                 2.7842

                     28                     29                     30
                      A                      A                      A
 Frequencies --   1201.3456              1222.9899              1240.6724
 Red. masses --      1.6100                 1.5070                 1.7198
 Frc consts  --      1.3691                 1.3280                 1.5597
 IR Inten    --     20.2772                13.7428                 4.5172

                     31                     32                     33
                      A                      A                      A
 Frequencies --   1283.4756              1304.6006              1353.4647
 Red. masses --      1.7684                 1.2908                 1.6090
 Frc consts  --      1.7164                 1.2944                 1.7366
 IR Inten    --     18.3680                 5.6517                15.5065

                     34                     35                     36
                      A                      A                      A
 Frequencies --   1405.7308              1412.9182              1426.3865
 Red. masses --      2.0474                 1.3450                 1.2127
 Frc consts  --      2.3837                 1.5820                 1.4537
 IR Inten    --      9.5805                 6.0317                 4.7846

                     37                     38                     39
                      A                      A                      A
 Frequencies --   1469.2749              1495.6506              1497.3055
 Red. masses --      1.0784                 1.2110                 1.0427
 Frc consts  --      1.3717                 1.5960                 1.3772
 IR Inten    --      4.2253                 5.8367                 5.6481

                     40                     41                     42
                      A                      A                      A
 Frequencies --   1507.6148              1810.4459              2865.8059
 Red. masses --      1.0960                10.1336                 1.0823
 Frc consts  --      1.4677                19.5697                 5.2370
 IR Inten    --      6.6803               118.0931               143.4275

                     43                     44                     45
                      A                      A                      A
 Frequencies --   3034.5987              3042.8781              3073.1439
 Red. masses --      1.0597                 1.0358                 1.1009
 Frc consts  --      5.7495                 5.6507                 6.1258
 IR Inten    --     12.4612                21.8558                 5.0504

                     46                     47                     48
                      A                      A                      A
 Frequencies --   3081.1939              3087.2449              3110.7728
 Red. masses --      1.0843                 1.0545                 1.1011
 Frc consts  --      6.0654                 5.9218                 6.2779
 IR Inten    --     13.8672                22.2736                33.0919

                     49                     50                     51
                      A                      A                      A
 Frequencies --   3123.4047              3123.7824              3167.9639
 Red. masses --      1.0937                 1.1018                 1.1126
 Frc consts  --      6.2867                 6.3343                 6.5788
 IR Inten    --     60.6779                 8.1947                11.8253

 - Thermochemistry -
 -------------------
 Temperature   298.150 Kelvin.  Pressure   1.00000 Atm.
 Atom     1 has atomic number  6 and mass  12.00000

 Molecular mass:   126.06808 amu.
 Principal axes and moments of inertia in atomic units:
                           1         2         3
     Eigenvalues --   810.461501189.454991558.57911
           X            0.99261  -0.12107   0.00871
           Y            0.12065   0.99194   0.03869
           Z           -0.01333  -0.03736   0.99921
 This molecule is an asymmetric top.
 Rotational symmetry number  1.
 Warning -- assumption of classical behavior for rotation
           may cause significant error
 Rotational temperatures (Kelvin)      0.10687     0.07282     0.05557
 Rotational constants (GHZ):           2.22681     1.51728     1.15794
 Zero-point vibrational energy     412397.9 (Joules/Mol)
                                   98.56547 (Kcal/Mol)
 Warning -- explicit consideration of  10 degrees of freedom as
           vibrations may cause significant error
 Vibrational temperatures:     92.87   125.28   209.02   261.60   301.28
          (Kelvin)            375.79   502.09   562.47   647.97   830.19
                              893.94   958.64  1065.89  1112.21  1161.33
                             1266.40  1299.09  1332.24  1377.59  1429.00
                             1467.42  1506.50  1529.02  1555.18  1589.66
                             1646.90  1668.66  1728.47  1759.61  1785.05
                             1846.63  1877.03  1947.33  2022.53  2032.87
                             2052.25  2113.96  2151.90  2154.29  2169.12
                             2604.82  4123.25  4366.11  4378.02  4421.56
                             4433.15  4441.85  4475.70  4493.88  4494.42
                             4557.99

 Zero-point correction=                           0.157074 (Hartree/Particle)
 Thermal correction to Energy=                    0.165931
 Thermal correction to Enthalpy=                  0.166875
 Thermal correction to Gibbs Free Energy=         0.123029
 Sum of electronic and zero-point Energies=           -422.970539
 Sum of electronic and thermal Energies=              -422.961682
 Sum of electronic and thermal Enthalpies=            -422.960738
 Sum of electronic and thermal Free Energies=         -423.004584

                     E (Thermal)             CV                S
                      KCal/Mol        Cal/Mol-Kelvin    Cal/Mol-Kelvin
 Total                  104.123             32.695             92.281
 Electronic               0.000              0.000              0.000
 Translational            0.889              2.981             40.409
 Rotational               0.889              2.981             28.798
 Vibrational            102.346             26.733             23.074
 Vibration     1          0.597              1.971              4.313
 Vibration     2          0.601              1.958              3.725
 Vibration     3          0.617              1.908              2.733
 Vibration     4          0.630              1.864              2.310
 Vibration     5          0.642              1.826              2.049
 Vibration     6          0.669              1.744              1.654
 Vibration     7          0.726              1.577              1.171
 Vibration     8          0.759              1.490              0.997
 Vibration     9          0.809              1.360              0.795
 Vibration    10          0.933              1.081              0.491

 Normal termination of Gaussian 09 at Tue Jan 28 10:01:16 2020.
