 Gaussian 09, Revision D.01,
 Gaussian 09:  ES64L-G09RevD.01 24-Apr-2013

 -----------------------------
 # b3lyp 6-31G(2df,p) opt Freq
 -----------------------------

 -----
 titel
 -----
 Symbolic Z-matrix:
 Charge =  0 Multiplicity = 1

 SCF Done:  E(RB3LYP) =  -423.188841111     A.U. after   14 cycles
 Optimization completed.
    -- Stationary point found.
 Normal termination of Gaussian 09 at Mon Jan 27 14:06:49 2020.

 ----------------------------------------------------------------------
 #N Geom=AllCheck Guess=TCheck SCRF=Check GenChk RB3LYP/6-31G(2df,p) Fr
 eq
 ----------------------------------------------------------------------

 Structure from the checkpoint file:  "/scratch/puck/g09_f94f6e2e-2b07-490e-b2d6-e07df672616f/Gau-50993.chk"
 -----
 titel
 -----
 Charge =  0 Multiplicity = 1

                         Standard orientation:
 ---------------------------------------------------------------------
 Center     Atomic      Atomic             Coordinates (Angstroms)
 Number     Number       Type             X           Y           Z
 ---------------------------------------------------------------------
      1          6           0        2.331070   -0.965818   -0.453788
      2          6           0        1.544019    0.225609    0.039768
      3          8           0        2.052840    1.258254    0.415955
      4          6           0        0.042407    0.089900    0.058018
      5          6           0       -0.768648   -0.028864    1.375342
      6          6           0       -1.701226   -0.732728    0.368116
      7          6           0       -2.191391    0.412387   -0.542982
      8          6           0       -0.801305    1.080658   -0.786590
      9          8           0       -0.512499   -1.203967   -0.346431
     10          1           0        3.397510   -0.739076   -0.437717
     11          1           0        2.113514   -1.839360    0.169624
     12          1           0        2.010093   -1.232272   -1.466912
     13          1           0       -0.310288   -0.728856    2.074494
     14          1           0       -1.097994    0.885220    1.873502
     15          1           0       -2.392891   -1.527107    0.646922
     16          1           0       -2.639204    0.026860   -1.460818
     17          1           0       -2.912304    1.069324   -0.049566
     18          1           0       -0.499431    1.059750   -1.835602
     19          1           0       -0.721283    2.104357   -0.417425
 ---------------------------------------------------------------------

 SCF Done:  E(RB3LYP) =  -423.188841111     A.U. after    1 cycles

 The electronic state is 1-A.
 Alpha  occ. eigenvalues --  -19.14019 -19.12960 -10.27056 -10.24699 -10.24498
 Alpha  occ. eigenvalues --  -10.19702 -10.19133 -10.19020 -10.18522  -1.05796
 Alpha  occ. eigenvalues --   -1.03790  -0.80215  -0.75848  -0.72164  -0.70991
 Alpha  occ. eigenvalues --   -0.60238  -0.56982  -0.54449  -0.48568  -0.47472
 Alpha  occ. eigenvalues --   -0.46518  -0.45374  -0.43347  -0.41700  -0.40918
 Alpha  occ. eigenvalues --   -0.37957  -0.37056  -0.36614  -0.35448  -0.34653
 Alpha  occ. eigenvalues --   -0.32925  -0.31685  -0.25905  -0.24310
 Alpha virt. eigenvalues --   -0.01833   0.08200   0.10214   0.10861   0.11843
 Alpha virt. eigenvalues --    0.13468   0.14808   0.15331   0.15958   0.16150
 Alpha virt. eigenvalues --    0.16725   0.17851   0.18309   0.20667   0.21423

 Mulliken charges:
               1
     1  C   -0.480078
     2  C    0.256652
     3  O   -0.313679
     4  C    0.344945
     5  C   -0.257035
     6  C    0.066849
     7  C   -0.222958
     8  C   -0.250877
     9  O   -0.334015
    10  H    0.136366
    11  H    0.150953
    12  H    0.150253
    13  H    0.113586
    14  H    0.107921
    15  H    0.083029
    16  H    0.111623
    17  H    0.104171
    18  H    0.110192
    19  H    0.122100
 Sum of Mulliken charges =   0.00000

 Dipole moment (field-independent basis, Debye):
    X=             -1.8831    Y=             -0.9148    Z=              0.0194  Tot=              2.0937
 Quadrupole moment (field-independent basis, Debye-Ang):
   XX=            -52.7285   YY=            -56.5138   ZZ=            -51.4854
   XY=             -5.2814   XZ=             -2.6866   YZ=             -2.2148

  Exact polarizability:  86.466   0.312  72.065  -0.378   0.518  66.535
 Approx polarizability: 113.509   6.065 116.550   0.074   6.145 100.123

                      1                      2                      3
                      A                      A                      A
 Frequencies --     26.5063               131.3399               167.2524
 Red. masses --      3.8376                 1.0676                 3.0474
 Frc consts  --      0.0016                 0.0109                 0.0502
 IR Inten    --      5.2378                 0.4734                 6.7369

                      4                      5                      6
                      A                      A                      A
 Frequencies --    179.7702               290.2777               342.3698
 Red. masses --      3.8675                 1.9016                 3.3922
 Frc consts  --      0.0736                 0.0944                 0.2343
 IR Inten    --      1.4478                 1.2425                 1.5141

                      7                      8                      9
                      A                      A                      A
 Frequencies --    414.6542               487.0932               544.0379
 Red. masses --      2.4370                 3.7557                 3.2541
 Frc consts  --      0.2469                 0.5250                 0.5675
 IR Inten    --      0.0274                 1.7168                10.7856

                     10                     11                     12
                      A                      A                      A
 Frequencies --    594.1283               606.7071               706.0070
 Red. masses --      2.4373                 3.4534                 3.7752
 Frc consts  --      0.5069                 0.7489                 1.1087
 IR Inten    --      1.0097                16.0260                 5.3018

                     13                     14                     15
                      A                      A                      A
 Frequencies --    826.2316               831.9369               845.5602
 Red. masses --      1.4351                 3.5417                 2.7975
 Frc consts  --      0.5772                 1.4443                 1.1784
 IR Inten    --      2.2460                26.2081                 2.8207

                     16                     17                     18
                      A                      A                      A
 Frequencies --    875.3834               910.3343               938.8575
 Red. masses --      2.2622                 2.7164                 2.5468
 Frc consts  --      1.0213                 1.3263                 1.3227
 IR Inten    --      2.3954                39.8825                 3.4193

                     19                     20                     21
                      A                      A                      A
 Frequencies --    958.5558               969.8842              1000.8162
 Red. masses --      2.5274                 2.4381                 2.4526
 Frc consts  --      1.3683                 1.3512                 1.4474
 IR Inten    --      9.7672                32.0060                10.9078

                     22                     23                     24
                      A                      A                      A
 Frequencies --   1022.2501              1032.1138              1096.1623
 Red. masses --      1.7175                 1.5537                 1.8231
 Frc consts  --      1.0575                 0.9752                 1.2906
 IR Inten    --      2.3642                10.6825                 5.7021

                     25                     26                     27
                      A                      A                      A
 Frequencies --   1104.3174              1147.1052              1156.0975
 Red. masses --      2.1569                 2.0156                 1.3988
 Frc consts  --      1.5498                 1.5627                 1.1016
 IR Inten    --     10.7096                 8.2606                 0.8268

                     28                     29                     30
                      A                      A                      A
 Frequencies --   1211.1870              1227.1928              1233.0439
 Red. masses --      1.6109                 1.3201                 1.3344
 Frc consts  --      1.3923                 1.1714                 1.1953
 IR Inten    --     28.5450                 7.3376                11.0694

                     31                     32                     33
                      A                      A                      A
 Frequencies --   1284.3791              1302.0554              1307.3390
 Red. masses --      1.5667                 1.6147                 1.5795
 Frc consts  --      1.5227                 1.6129                 1.5905
 IR Inten    --      3.6276                 5.9797                 2.5618

                     34                     35                     36
                      A                      A                      A
 Frequencies --   1346.9228              1384.9203              1453.2226
 Red. masses --      2.5647                 1.5218                 1.0578
 Frc consts  --      2.7414                 1.7197                 1.3162
 IR Inten    --     14.3589                52.3813                15.0853

                     37                     38                     39
                      A                      A                      A
 Frequencies --   1462.8941              1481.5392              1482.9547
 Red. masses --      1.0505                 1.0859                 1.1287
 Frc consts  --      1.3245                 1.4044                 1.4625
 IR Inten    --      8.4292                 0.3973                 4.7843

                     40                     41                     42
                      A                      A                      A
 Frequencies --   1507.1545              1803.2935              3042.5761
 Red. masses --      1.1301                11.2277                 1.0356
 Frc consts  --      1.5124                21.5116                 5.6483
 IR Inten    --      1.2164               141.2006                 0.5020

                     43                     44                     45
                      A                      A                      A
 Frequencies --   3069.0506              3076.3015              3081.8099
 Red. masses --      1.0590                 1.0575                 1.0603
 Frc consts  --      5.8772                 5.8964                 5.9330
 IR Inten    --     25.4474                25.1430                17.4835

                     46                     47                     48
                      A                      A                      A
 Frequencies --   3103.2236              3117.2230              3128.8875
 Red. masses --      1.0968                 1.1065                 1.0921
 Frc consts  --      6.2229                 6.3348                 6.2993
 IR Inten    --      3.5811                 5.3229                46.7378

                     49                     50                     51
                      A                      A                      A
 Frequencies --   3136.6044              3149.8413              3157.4545
 Red. masses --      1.1069                 1.1099                 1.1042
 Frc consts  --      6.4162                 6.4881                 6.4860
 IR Inten    --     21.8321                21.6414                10.9430

 - Thermochemistry -
 -------------------
 Temperature   298.150 Kelvin.  Pressure   1.00000 Atm.
 Atom     1 has atomic number  6 and mass  12.00000

 Molecular mass:   126.06808 amu.
 Principal axes and moments of inertia in atomic units:
                           1         2         3
     Eigenvalues --   561.134721341.113881482.33412
           X            0.99863  -0.05134  -0.00993
           Y            0.05085   0.99769  -0.04496
           Z            0.01222   0.04439   0.99894
 This molecule is an asymmetric top.
 Rotational symmetry number  1.
 Warning -- assumption of classical behavior for rotation
           may cause significant error
 Rotational temperatures (Kelvin)      0.15435     0.06458     0.05843
 Rotational constants (GHZ):           3.21624     1.34570     1.21750
 Zero-point vibrational energy     417238.4 (Joules/Mol)
                                   99.72238 (Kcal/Mol)
 Warning -- explicit consideration of  11 degrees of freedom as
           vibrations may cause significant error
 Vibrational temperatures:     38.14   188.97   240.64   258.65   417.64
          (Kelvin)            492.59   596.59   700.82   782.75   854.82
                              872.92  1015.79  1188.76  1196.97  1216.57
                             1259.48  1309.77  1350.80  1379.15  1395.45
                             1439.95  1470.79  1484.98  1577.13  1588.86
                             1650.43  1663.36  1742.63  1765.65  1774.07
                             1847.93  1873.36  1880.97  1937.92  1992.59
                             2090.86  2104.78  2131.60  2133.64  2168.46
                             2594.53  4377.58  4415.67  4426.11  4434.03
                             4464.84  4484.98  4501.77  4512.87  4531.91
                             4542.87

 Zero-point correction=                           0.158918 (Hartree/Particle)
 Thermal correction to Energy=                    0.167242
 Thermal correction to Enthalpy=                  0.168186
 Thermal correction to Gibbs Free Energy=         0.125093
 Sum of electronic and zero-point Energies=           -423.029923
 Sum of electronic and thermal Energies=              -423.021599
 Sum of electronic and thermal Enthalpies=            -423.020655
 Sum of electronic and thermal Free Energies=         -423.063748

                     E (Thermal)             CV                S
                      KCal/Mol        Cal/Mol-Kelvin    Cal/Mol-Kelvin
 Total                  104.946             31.540             90.696
 Electronic               0.000              0.000              0.000
 Translational            0.889              2.981             40.409
 Rotational               0.889              2.981             28.502
 Vibrational            103.168             25.578             21.785
 Vibration     1          0.593              1.984              6.075
 Vibration     2          0.612              1.922              2.926
 Vibration     3          0.624              1.883              2.466
 Vibration     4          0.629              1.867              2.331
 Vibration     5          0.686              1.692              1.472
 Vibration     6          0.722              1.591              1.201
 Vibration     7          0.778              1.438              0.910
 Vibration     8          0.843              1.279              0.691
 Vibration     9          0.899              1.153              0.557
 Vibration    10          0.952              1.044              0.460
 Vibration    11          0.965              1.018              0.438

 Optimization completed.
    -- Stationary point found.
 Normal termination of Gaussian 09 at Mon Jan 27 14:49:29 2020.
