 Gaussian 09, Revision D.01,
 Gaussian 09:  ES64L-G09RevD.01 24-Apr-2013

 -----------------------------
 # b3lyp 6-31G(2df,p) opt Freq
 -----------------------------

 -----
 titel
 -----
 Symbolic Z-matrix:
 Charge =  0 Multiplicity = 1

 SCF Done:  E(RB3LYP) =  -423.150670684     A.U. after   13 cycles
 Optimization completed.
    -- Stationary point found.
 Normal termination of Gaussian 09 at Mon Jan 27 11:30:23 2020.

 ----------------------------------------------------------------------
 #N Geom=AllCheck Guess=TCheck SCRF=Check GenChk RB3LYP/6-31G(2df,p) Fr
 eq
 ----------------------------------------------------------------------

 Structure from the checkpoint file:  "/scratch/puck/g09_aff01ec8-eb69-4602-94e8-4f9757e3d0a0/Gau-61415.chk"
 -----
 titel
 -----
 Charge =  0 Multiplicity = 1

                         Standard orientation:
 ---------------------------------------------------------------------
 Center     Atomic      Atomic             Coordinates (Angstroms)
 Number     Number       Type             X           Y           Z
 ---------------------------------------------------------------------
      1          6           0       -0.847611    1.049677    1.107115
      2          6           0       -0.559792    1.237237   -0.416463
      3          6           0        0.944406    1.163723   -0.727750
      4          8           0        1.685279    0.479663    0.275895
      5          6           0        1.444438   -0.907765    0.417174
      6          6           0       -0.008674   -1.346109    0.288241
      7          8           0       -0.459085   -1.187948   -1.091525
      8          6           0       -1.316341   -0.118238   -0.683510
      9          6           0       -1.168148   -0.431679    0.818062
     10          1           0       -0.040950    1.289730    1.799402
     11          1           0       -1.757778    1.572789    1.414288
     12          1           0       -0.995143    2.120157   -0.891438
     13          1           0        1.107406    0.711313   -1.715960
     14          1           0        1.365323    2.173539   -0.733832
     15          1           0        2.012669   -1.478121   -0.336349
     16          1           0        1.832209   -1.178779    1.406428
     17          1           0       -0.087876   -2.395421    0.596022
     18          1           0       -2.254450   -0.076593   -1.240147
     19          1           0       -1.920626   -0.953416    1.409401
 ---------------------------------------------------------------------

 SCF Done:  E(RB3LYP) =  -423.150670684     A.U. after    1 cycles

 The electronic state is 1-A.
 Alpha  occ. eigenvalues --  -19.13597 -19.13334 -10.23814 -10.23063 -10.22714
 Alpha  occ. eigenvalues --  -10.22371 -10.19154 -10.18585 -10.18234  -1.04939
 Alpha  occ. eigenvalues --   -1.02019  -0.83159  -0.76279  -0.68917  -0.66451
 Alpha  occ. eigenvalues --   -0.64123  -0.55608  -0.53043  -0.51787  -0.49561
 Alpha  occ. eigenvalues --   -0.46775  -0.45651  -0.43048  -0.41937  -0.41302
 Alpha  occ. eigenvalues --   -0.38762  -0.37443  -0.36290  -0.32061  -0.30442
 Alpha  occ. eigenvalues --   -0.29588  -0.28638  -0.25016  -0.24231
 Alpha virt. eigenvalues --    0.07561   0.08262   0.11514   0.11949   0.12709
 Alpha virt. eigenvalues --    0.13925   0.14806   0.15091   0.16616   0.16741
 Alpha virt. eigenvalues --    0.17504   0.19003   0.19207   0.20593   0.21038

 Mulliken charges:
               1
     1  C   -0.243073
     2  C   -0.085563
     3  C   -0.081803
     4  O   -0.251508
     5  C   -0.087258
     6  C    0.073674
     7  O   -0.298967
     8  C    0.123072
     9  C   -0.088921
    10  H    0.116753
    11  H    0.097955
    12  H    0.070589
    13  H    0.106563
    14  H    0.104892
    15  H    0.103013
    16  H    0.106680
    17  H    0.084884
    18  H    0.075399
    19  H    0.073619
 Sum of Mulliken charges =   0.00000

 Dipole moment (field-independent basis, Debye):
    X=             -1.1120    Y=              0.2376    Z=              0.7766  Tot=              1.3770
 Quadrupole moment (field-independent basis, Debye-Ang):
   XX=            -53.5256   YY=            -51.5952   ZZ=            -53.9458
   XY=             -2.4741   XZ=             -0.9213   YZ=             -4.1093

  Exact polarizability:  74.152  -3.373  77.289  -0.264  -3.729  68.504
 Approx polarizability: 104.027  -3.691 111.009   2.293  -2.568 106.260

                      1                      2                      3
                      A                      A                      A
 Frequencies --    205.9434               280.7291               310.8600
 Red. masses --      2.6034                 3.0368                 4.8772
 Frc consts  --      0.0651                 0.1410                 0.2777
 IR Inten    --      4.9705                 4.7045                 2.7209

                      4                      5                      6
                      A                      A                      A
 Frequencies --    356.0581               382.7452               484.9344
 Red. masses --      2.7179                 2.2267                 3.1814
 Frc consts  --      0.2030                 0.1922                 0.4408
 IR Inten    --      1.0596                 1.9480                 2.7976

                      7                      8                      9
                      A                      A                      A
 Frequencies --    569.9129               677.5086               722.5597
 Red. masses --      3.5991                 5.0073                 3.3045
 Frc consts  --      0.6888                 1.3542                 1.0165
 IR Inten    --      1.9021                 2.6163                17.5973

                     10                     11                     12
                      A                      A                      A
 Frequencies --    742.6567               791.4730               829.3123
 Red. masses --      2.8727                 2.9249                 1.9447
 Frc consts  --      0.9335                 1.0795                 0.7880
 IR Inten    --      3.6985                 1.4267                 4.0116

                     13                     14                     15
                      A                      A                      A
 Frequencies --    855.1102               873.2480               902.4623
 Red. masses --      2.8074                 2.4313                 2.7040
 Frc consts  --      1.2095                 1.0923                 1.2975
 IR Inten    --     10.1338                10.1190                11.5418

                     16                     17                     18
                      A                      A                      A
 Frequencies --    931.1600               972.2372              1013.3888
 Red. masses --      2.2948                 1.9830                 2.6037
 Frc consts  --      1.1723                 1.1044                 1.5754
 IR Inten    --     18.8110                12.5137                19.0366

                     19                     20                     21
                      A                      A                      A
 Frequencies --   1015.2916              1041.0298              1066.5606
 Red. masses --      3.2148                 1.9070                 2.2718
 Frc consts  --      1.9525                 1.2177                 1.5226
 IR Inten    --     26.5112                 4.6562                 3.8265

                     22                     23                     24
                      A                      A                      A
 Frequencies --   1074.9706              1088.9107              1127.6370
 Red. masses --      2.2445                 2.1137                 1.2345
 Frc consts  --      1.5281                 1.4767                 0.9249
 IR Inten    --      8.0667                20.9827                 3.5175

                     25                     26                     27
                      A                      A                      A
 Frequencies --   1154.3258              1171.5877              1212.3018
 Red. masses --      2.1326                 4.2292                 1.4136
 Frc consts  --      1.6743                 3.4203                 1.2241
 IR Inten    --      4.0331                99.8516                 0.5390

                     28                     29                     30
                      A                      A                      A
 Frequencies --   1238.5082              1250.2412              1276.8434
 Red. masses --      1.5442                 1.2882                 1.2194
 Frc consts  --      1.3956                 1.1863                 1.1713
 IR Inten    --      2.5880                 3.7293                 9.1845

                     31                     32                     33
                      A                      A                      A
 Frequencies --   1282.8698              1308.6221              1320.6399
 Red. masses --      1.5354                 1.5682                 1.3968
 Frc consts  --      1.4888                 1.5823                 1.4354
 IR Inten    --      2.6570                 1.8482                 2.0975

                     34                     35                     36
                      A                      A                      A
 Frequencies --   1328.7397              1346.6679              1358.7220
 Red. masses --      1.4014                 1.4305                 1.5964
 Frc consts  --      1.4578                 1.5285                 1.7364
 IR Inten    --      4.3496                 7.7978                 1.1311

                     37                     38                     39
                      A                      A                      A
 Frequencies --   1392.2753              1417.9534              1478.7444
 Red. masses --      1.2532                 1.2929                 1.0789
 Frc consts  --      1.4313                 1.5316                 1.3900
 IR Inten    --      4.4418                 3.6872                 0.8397

                     40                     41                     42
                      A                      A                      A
 Frequencies --   1482.7143              1490.9924              2971.8094
 Red. masses --      1.1069                 1.1084                 1.0684
 Frc consts  --      1.4338                 1.4517                 5.5592
 IR Inten    --      3.6582                 6.1996                52.0082

                     43                     44                     45
                      A                      A                      A
 Frequencies --   3011.7077              3036.4135              3059.7028
 Red. masses --      1.0641                 1.0880                 1.0923
 Frc consts  --      5.6865                 5.9103                 6.0252
 IR Inten    --     46.0977                43.8946                41.5267

                     46                     47                     48
                      A                      A                      A
 Frequencies --   3061.1417              3071.8193              3085.4375
 Red. masses --      1.0682                 1.0856                 1.0955
 Frc consts  --      5.8974                 6.0353                 6.1444
 IR Inten    --     23.7855                13.1421                42.9659

                     49                     50                     51
                      A                      A                      A
 Frequencies --   3093.7273              3110.3506              3134.8708
 Red. masses --      1.0888                 1.0915                 1.1022
 Frc consts  --      6.1399                 6.2212                 6.3818
 IR Inten    --     64.0575                46.1433                14.8618

 - Thermochemistry -
 -------------------
 Temperature   298.150 Kelvin.  Pressure   1.00000 Atm.
 Atom     1 has atomic number  6 and mass  12.00000

 Molecular mass:   126.06808 amu.
 Principal axes and moments of inertia in atomic units:
                           1         2         3
     Eigenvalues --   740.45429 834.836461036.85855
           X            0.98635  -0.16219  -0.02850
           Y            0.16002   0.98485  -0.06683
           Z            0.03891   0.06136   0.99736
 This molecule is an asymmetric top.
 Rotational symmetry number  1.
 Warning -- assumption of classical behavior for rotation
           may cause significant error
 Rotational temperatures (Kelvin)      0.11697     0.10375     0.08353
 Rotational constants (GHZ):           2.43734     2.16179     1.74059
 Zero-point vibrational energy     427464.2 (Joules/Mol)
                                  102.16639 (Kcal/Mol)
 Warning -- explicit consideration of   7 degrees of freedom as
           vibrations may cause significant error
 Vibrational temperatures:    296.31   403.91   447.26   512.29   550.68
          (Kelvin)            697.71   819.98   974.78  1039.60  1068.52
                             1138.75  1193.19  1230.31  1256.41  1298.44
                             1339.73  1398.83  1458.04  1460.78  1497.81
                             1534.54  1546.64  1566.70  1622.42  1660.82
                             1685.65  1744.23  1781.93  1798.82  1837.09
                             1845.76  1882.81  1900.10  1911.76  1937.55
                             1954.90  2003.17  2040.12  2127.58  2133.29
                             2145.20  4275.77  4333.17  4368.72  4402.22
                             4404.29  4419.66  4439.25  4451.18  4475.10
                             4510.37

 Zero-point correction=                           0.162813 (Hartree/Particle)
 Thermal correction to Energy=                    0.169274
 Thermal correction to Enthalpy=                  0.170218
 Thermal correction to Gibbs Free Energy=         0.132383
 Sum of electronic and zero-point Energies=           -422.987858
 Sum of electronic and thermal Energies=              -422.981397
 Sum of electronic and thermal Enthalpies=            -422.980452
 Sum of electronic and thermal Free Energies=         -423.018287

                     E (Thermal)             CV                S
                      KCal/Mol        Cal/Mol-Kelvin    Cal/Mol-Kelvin
 Total                  106.221             27.407             79.630
 Electronic               0.000              0.000              0.000
 Translational            0.889              2.981             40.409
 Rotational               0.889              2.981             27.952
 Vibrational            104.444             21.446             11.270
 Vibration     1          0.640              1.831              2.079
 Vibration     2          0.680              1.709              1.529
 Vibration     3          0.700              1.653              1.358
 Vibration     4          0.732              1.563              1.139
 Vibration     5          0.752              1.507              1.028
 Vibration     6          0.841              1.283              0.697
 Vibration     7          0.926              1.096              0.504

 Normal termination of Gaussian 09 at Mon Jan 27 13:48:33 2020.
