 Gaussian 09, Revision D.01,
 Gaussian 09:  ES64L-G09RevD.01 24-Apr-2013

 -----------------------------
 # b3lyp 6-31G(2df,p) opt Freq
 -----------------------------

 -----
 titel
 -----
 Symbolic Z-matrix:
 Charge =  0 Multiplicity = 1

 SCF Done:  E(RB3LYP) =  -423.160095068     A.U. after   14 cycles
 Optimization completed.
    -- Stationary point found.
 Normal termination of Gaussian 09 at Tue Jan 28 14:13:41 2020.

 ----------------------------------------------------------------------
 #N Geom=AllCheck Guess=TCheck SCRF=Check GenChk RB3LYP/6-31G(2df,p) Fr
 eq
 ----------------------------------------------------------------------

 Structure from the checkpoint file:  "/scratch/puck/g09_b30c5450-29b2-408a-89e1-c28eb139e53c/Gau-111732.chk"
 -----
 titel
 -----
 Charge =  0 Multiplicity = 1

                         Standard orientation:
 ---------------------------------------------------------------------
 Center     Atomic      Atomic             Coordinates (Angstroms)
 Number     Number       Type             X           Y           Z
 ---------------------------------------------------------------------
      1          6           0       -3.771452   -0.029560   -0.054848
      2          8           0       -2.444361    0.360226   -0.319948
      3          6           0       -1.498755   -0.598578    0.101190
      4          6           0       -0.127630   -0.124764   -0.311351
      5          6           0        0.601693    0.817346    0.576315
      6          6           0        1.900894    1.267262   -0.109572
      7          6           0        2.331748   -0.227218   -0.105302
      8          8           0        3.371775   -0.776478   -0.331943
      9          6           0        1.038662   -0.671413    0.511611
     10          1           0       -3.950523   -0.166532    1.023565
     11          1           0       -4.424475    0.765248   -0.422577
     12          1           0       -4.031377   -0.969853   -0.566508
     13          1           0       -1.542680   -0.734735    1.196093
     14          1           0       -1.716250   -1.579191   -0.355136
     15          1           0       -0.006399   -0.025247   -1.388233
     16          1           0        0.129647    1.313237    1.413789
     17          1           0        1.801637    1.771768   -1.075053
     18          1           0        2.573148    1.844943    0.531361
     19          1           0        0.896995   -1.488069    1.209566
 ---------------------------------------------------------------------

 SCF Done:  E(RB3LYP) =  -423.160095068     A.U. after    1 cycles

 The electronic state is 1-A.
 Alpha  occ. eigenvalues --  -19.14766 -19.12837 -10.26893 -10.24201 -10.23067
 Alpha  occ. eigenvalues --  -10.21347 -10.21312 -10.20649 -10.19583  -1.04164
 Alpha  occ. eigenvalues --   -1.03929  -0.91192  -0.76498  -0.70507  -0.65419
 Alpha  occ. eigenvalues --   -0.63395  -0.58553  -0.53425  -0.50111  -0.48754
 Alpha  occ. eigenvalues --   -0.48313  -0.45997  -0.45096  -0.43647  -0.40818
 Alpha  occ. eigenvalues --   -0.39795  -0.38470  -0.37351  -0.35881  -0.32781
 Alpha  occ. eigenvalues --   -0.30683  -0.28500  -0.26364  -0.24110
 Alpha virt. eigenvalues --   -0.00841   0.07872   0.09154   0.10295   0.11414
 Alpha virt. eigenvalues --    0.12338   0.12778   0.15026   0.15340   0.16294
 Alpha virt. eigenvalues --    0.16704   0.17744   0.18128   0.19445   0.21244

 Mulliken charges:
               1
     1  C   -0.227365
     2  O   -0.233408
     3  C   -0.093220
     4  C   -0.028295
     5  C   -0.045651
     6  C   -0.371421
     7  C    0.410030
     8  O   -0.313822
     9  C   -0.192049
    10  H    0.104522
    11  H    0.130708
    12  H    0.106251
    13  H    0.085347
    14  H    0.095616
    15  H    0.101600
    16  H    0.108564
    17  H    0.123283
    18  H    0.133075
    19  H    0.106237
 Sum of Mulliken charges =   0.00000

 Dipole moment (field-independent basis, Debye):
    X=             -3.2442    Y=              0.4746    Z=              1.1987  Tot=              3.4910
 Quadrupole moment (field-independent basis, Debye-Ang):
   XX=            -61.1829   YY=            -53.1222   ZZ=            -51.6837
   XY=              7.1408   XZ=              1.1132   YZ=             -0.2489

  Exact polarizability: 101.954   0.024  71.657  -1.674  -0.771  62.209
 Approx polarizability: 129.319  -7.521 111.733  -3.581  -0.446  97.007

                      1                      2                      3
                      A                      A                      A
 Frequencies --     59.5620                94.2284               108.9704
 Red. masses --      3.8026                 2.3647                 4.1934
 Frc consts  --      0.0079                 0.0124                 0.0293
 IR Inten    --      1.8242                 5.4733                 0.9243

                      4                      5                      6
                      A                      A                      A
 Frequencies --    149.2053               231.6554               271.1413
 Red. masses --      3.3332                 1.3571                 1.9563
 Frc consts  --      0.0437                 0.0429                 0.0847
 IR Inten    --      3.2824                 2.2902                 0.4789

                      7                      8                      9
                      A                      A                      A
 Frequencies --    319.1906               334.1951               483.7463
 Red. masses --      3.4967                 4.2092                 3.4090
 Frc consts  --      0.2099                 0.2770                 0.4700
 IR Inten    --      0.4354                 4.0673                 2.6053

                     10                     11                     12
                      A                      A                      A
 Frequencies --    508.4807               574.8626               652.9582
 Red. masses --      2.4118                 3.0661                 3.8034
 Frc consts  --      0.3674                 0.5970                 0.9554
 IR Inten    --      2.7616                 2.3581                 1.6173

                     13                     14                     15
                      A                      A                      A
 Frequencies --    769.5900               841.9088               853.4547
 Red. masses --      2.6437                 2.9976                 1.9321
 Frc consts  --      0.9225                 1.2518                 0.8292
 IR Inten    --     17.5743                 8.1879                 6.9529

                     16                     17                     18
                      A                      A                      A
 Frequencies --    918.3317               950.3245               986.0611
 Red. masses --      1.9879                 1.7100                 3.2881
 Frc consts  --      0.9878                 0.9099                 1.8837
 IR Inten    --      6.5143                17.4757                16.8264

                     19                     20                     21
                      A                      A                      A
 Frequencies --    995.0555              1011.8169              1031.6460
 Red. masses --      1.8473                 2.4188                 1.5522
 Frc consts  --      1.0776                 1.4590                 0.9733
 IR Inten    --     12.5197                30.2933                 8.9995

                     22                     23                     24
                      A                      A                      A
 Frequencies --   1056.1776              1107.7052              1122.9970
 Red. masses --      2.0217                 1.3541                 2.0597
 Frc consts  --      1.3287                 0.9789                 1.5304
 IR Inten    --      3.8476                 0.8892                24.8387

                     25                     26                     27
                      A                      A                      A
 Frequencies --   1141.9904              1158.9312              1178.1725
 Red. masses --      1.6287                 3.4698                 1.3876
 Frc consts  --      1.2515                 2.7458                 1.1348
 IR Inten    --     12.2664               175.5230                 9.2290

                     28                     29                     30
                      A                      A                      A
 Frequencies --   1198.6274              1213.8598              1228.3645
 Red. masses --      1.7033                 1.6186                 1.6826
 Frc consts  --      1.4418                 1.4052                 1.4958
 IR Inten    --      7.1480                21.5379                23.1134

                     31                     32                     33
                      A                      A                      A
 Frequencies --   1263.2495              1272.4305              1290.5292
 Red. masses --      1.6916                 1.3662                 1.4194
 Frc consts  --      1.5905                 1.3032                 1.3928
 IR Inten    --      8.5001                 3.1172                 6.0896

                     34                     35                     36
                      A                      A                      A
 Frequencies --   1399.0211              1443.5924              1460.1319
 Red. masses --      1.5437                 1.7624                 1.1566
 Frc consts  --      1.7802                 2.1640                 1.4528
 IR Inten    --     32.1265                17.8120                 3.2903

                     37                     38                     39
                      A                      A                      A
 Frequencies --   1481.3745              1486.3925              1503.2951
 Red. masses --      1.1663                 1.0610                 1.0680
 Frc consts  --      1.5080                 1.3812                 1.4221
 IR Inten    --      1.1330                 4.3202                 8.4436

                     40                     41                     42
                      A                      A                      A
 Frequencies --   1526.0511              1883.7812              2946.9269
 Red. masses --      1.0888                12.4139                 1.0544
 Frc consts  --      1.4940                25.9549                 5.3952
 IR Inten    --      1.1848               383.7618                31.3339

                     43                     44                     45
                      A                      A                      A
 Frequencies --   2970.8372              2977.6413              3013.6768
 Red. masses --      1.0409                 1.1006                 1.1032
 Frc consts  --      5.4130                 5.7493                 5.9032
 IR Inten    --     70.5307                63.6804                54.2091

                     46                     47                     48
                      A                      A                      A
 Frequencies --   3057.5853              3112.5197              3117.8679
 Red. masses --      1.0583                 1.1062                 1.0958
 Frc consts  --      5.8295                 6.3142                 6.2761
 IR Inten    --     19.2194                 9.1787                26.8453

                     49                     50                     51
                      A                      A                      A
 Frequencies --   3124.9358              3188.8479              3210.2938
 Red. masses --      1.0886                 1.0921                 1.0947
 Frc consts  --      6.2632                 6.5428                 6.6470
 IR Inten    --     16.3364                 6.0546                 4.3704

 - Thermochemistry -
 -------------------
 Temperature   298.150 Kelvin.  Pressure   1.00000 Atm.
 Atom     1 has atomic number  6 and mass  12.00000

 Molecular mass:   126.06808 amu.
 Principal axes and moments of inertia in atomic units:
                           1         2         3
     Eigenvalues --   309.283022466.211572617.74513
           X            0.99981   0.01923  -0.00130
           Y           -0.01926   0.99949  -0.02561
           Z            0.00081   0.02563   0.99967
 This molecule is an asymmetric top.
 Rotational symmetry number  1.
 Rotational temperatures (Kelvin)      0.28005     0.03512     0.03309
 Rotational constants (GHZ):           5.83524     0.73179     0.68943
 Zero-point vibrational energy     414411.5 (Joules/Mol)
                                   99.04672 (Kcal/Mol)
 Warning -- explicit consideration of  11 degrees of freedom as
           vibrations may cause significant error
 Vibrational temperatures:     85.70   135.57   156.78   214.67   333.30
          (Kelvin)            390.11   459.24   480.83   696.00   731.59
                              827.10   939.46  1107.27  1211.32  1227.93
                             1321.27  1367.30  1418.72  1431.66  1455.78
                             1484.31  1519.60  1593.74  1615.74  1643.07
                             1667.44  1695.13  1724.56  1746.47  1767.34
                             1817.53  1830.74  1856.78  2012.88  2077.00
                             2100.80  2131.36  2138.58  2162.90  2195.64
                             2710.34  4239.97  4274.37  4284.16  4336.00
                             4399.18  4478.22  4485.91  4496.08  4588.04
                             4618.89

 Zero-point correction=                           0.157841 (Hartree/Particle)
 Thermal correction to Energy=                    0.166823
 Thermal correction to Enthalpy=                  0.167768
 Thermal correction to Gibbs Free Energy=         0.123324
 Sum of electronic and zero-point Energies=           -423.002254
 Sum of electronic and thermal Energies=              -422.993272
 Sum of electronic and thermal Enthalpies=            -422.992327
 Sum of electronic and thermal Free Energies=         -423.036771

                     E (Thermal)             CV                S
                      KCal/Mol        Cal/Mol-Kelvin    Cal/Mol-Kelvin
 Total                  104.683             32.497             93.539
 Electronic               0.000              0.000              0.000
 Translational            0.889              2.981             40.409
 Rotational               0.889              2.981             29.081
 Vibrational            102.906             26.535             24.050
 Vibration     1          0.597              1.974              4.472
 Vibration     2          0.603              1.953              3.570
 Vibration     3          0.606              1.942              3.287
 Vibration     4          0.618              1.904              2.682
 Vibration     5          0.653              1.793              1.866
 Vibration     6          0.675              1.726              1.589
 Vibration     7          0.705              1.637              1.314
 Vibration     8          0.716              1.607              1.240
 Vibration     9          0.840              1.286              0.700
 Vibration    10          0.864              1.231              0.637
 Vibration    11          0.931              1.086              0.495

 Optimization completed.
    -- Stationary point found.
 Normal termination of Gaussian 09 at Tue Jan 28 14:49:51 2020.
