 Gaussian 09, Revision D.01,
 Gaussian 09:  ES64L-G09RevD.01 24-Apr-2013

 -----------------------------
 # b3lyp 6-31G(2df,p) opt Freq
 -----------------------------

 -----
 titel
 -----
 Symbolic Z-matrix:
 Charge =  0 Multiplicity = 1

 SCF Done:  E(RB3LYP) =  -423.160558265     A.U. after   14 cycles
 Optimization completed.
    -- Stationary point found.
 Normal termination of Gaussian 09 at Mon Jan 27 13:42:43 2020.

 ----------------------------------------------------------------------
 #N Geom=AllCheck Guess=TCheck SCRF=Check GenChk RB3LYP/6-31G(2df,p) Fr
 eq
 ----------------------------------------------------------------------

 Structure from the checkpoint file:  "/scratch/puck/g09_3d2234a8-8cf6-400d-8551-d5ad4eb71f46/Gau-49428.chk"
 -----
 titel
 -----
 Charge =  0 Multiplicity = 1

                         Standard orientation:
 ---------------------------------------------------------------------
 Center     Atomic      Atomic             Coordinates (Angstroms)
 Number     Number       Type             X           Y           Z
 ---------------------------------------------------------------------
      1          8           0        3.255926    0.383207   -0.123923
      2          6           0        2.299380   -0.349299   -0.132117
      3          6           0        1.140232   -0.253203    0.841451
      4          6           0       -0.172577   -0.026065    0.111678
      5          6           0       -0.454306    1.332743   -0.579900
      6          6           0       -1.892563    1.329117    0.027873
      7          6           0       -1.600002   -0.017626    0.743136
      8          6           0       -1.832940   -1.263221   -0.124824
      9          8           0       -0.526549   -1.146105   -0.739118
     10          1           0        2.198763   -1.161059   -0.884060
     11          1           0        1.074218   -1.202061    1.390388
     12          1           0        1.341147    0.557094    1.548007
     13          1           0        0.173574    2.150486   -0.216550
     14          1           0       -0.384200    1.289079   -1.668589
     15          1           0       -2.071924    2.155553    0.718591
     16          1           0       -2.716452    1.299551   -0.690112
     17          1           0       -1.803049   -0.092033    1.811024
     18          1           0       -1.925318   -2.204447    0.431987
     19          1           0       -2.645117   -1.203657   -0.860140
 ---------------------------------------------------------------------

 SCF Done:  E(RB3LYP) =  -423.160558265     A.U. after    1 cycles

 The electronic state is 1-A.
 Alpha  occ. eigenvalues --  -19.13935 -19.13747 -10.26941 -10.24919 -10.23719
 Alpha  occ. eigenvalues --  -10.19812 -10.19564 -10.19308 -10.18662  -1.04736
 Alpha  occ. eigenvalues --   -1.04279  -0.83240  -0.77375  -0.71248  -0.64313
 Alpha  occ. eigenvalues --   -0.62790  -0.57722  -0.51803  -0.51043  -0.48757
 Alpha  occ. eigenvalues --   -0.47959  -0.45947  -0.43458  -0.42656  -0.41679
 Alpha  occ. eigenvalues --   -0.39213  -0.37670  -0.37317  -0.34453  -0.33375
 Alpha  occ. eigenvalues --   -0.31098  -0.29591  -0.25227  -0.24395
 Alpha virt. eigenvalues --   -0.02304   0.07122   0.08554   0.09147   0.11776
 Alpha virt. eigenvalues --    0.12613   0.12658   0.14308   0.15330   0.15936
 Alpha virt. eigenvalues --    0.16449   0.17663   0.18970   0.20666   0.22062

 Mulliken charges:
               1
     1  O   -0.241888
     2  C    0.157604
     3  C   -0.367888
     4  C    0.448873
     5  C   -0.271975
     6  C   -0.226827
     7  C   -0.146057
     8  C   -0.083448
     9  O   -0.332524
    10  H    0.099004
    11  H    0.119630
    12  H    0.118768
    13  H    0.112469
    14  H    0.114992
    15  H    0.108797
    16  H    0.105345
    17  H    0.078711
    18  H    0.103124
    19  H    0.103289
 Sum of Mulliken charges =   0.00000

 Dipole moment (field-independent basis, Debye):
    X=             -3.1263    Y=             -0.2792    Z=              1.4172  Tot=              3.4439
 Quadrupole moment (field-independent basis, Debye-Ang):
   XX=            -61.2108   YY=            -52.5582   ZZ=            -52.5117
   XY=             -2.8936   XZ=              0.5197   YZ=             -1.3811

  Exact polarizability:  87.911   4.427  74.394  -1.011   0.394  64.755
 Approx polarizability: 118.832  11.003 108.948  -2.271   2.489  98.617

                      1                      2                      3
                      A                      A                      A
 Frequencies --     39.9718                71.5444                98.7634
 Red. masses --      5.2322                 3.6586                 2.1164
 Frc consts  --      0.0049                 0.0110                 0.0122
 IR Inten    --      4.1778                 2.9951                 0.7773

                      4                      5                      6
                      A                      A                      A
 Frequencies --    167.3636               266.7795               338.6368
 Red. masses --      2.7315                 2.6661                 2.5630
 Frc consts  --      0.0451                 0.1118                 0.1732
 IR Inten    --      4.4784                 0.3618                 2.1203

                      7                      8                      9
                      A                      A                      A
 Frequencies --    381.3282               399.3455               483.1076
 Red. masses --      3.3975                 2.2634                 2.7521
 Frc consts  --      0.2911                 0.2127                 0.3784
 IR Inten    --      4.4212                 1.1529                18.0433

                     10                     11                     12
                      A                      A                      A
 Frequencies --    650.7109               672.6103               739.5515
 Red. masses --      2.7500                 3.7214                 1.2228
 Frc consts  --      0.6861                 0.9919                 0.3940
 IR Inten    --      2.3524                 0.9122                 0.4804

                     13                     14                     15
                      A                      A                      A
 Frequencies --    819.7773               845.5389               878.0250
 Red. masses --      2.0444                 2.0803                 2.1132
 Frc consts  --      0.8095                 0.8763                 0.9599
 IR Inten    --      5.6236                 2.2041                 4.2034

                     16                     17                     18
                      A                      A                      A
 Frequencies --    912.0341               940.2075               942.7661
 Red. masses --      2.4193                 2.8468                 1.8594
 Frc consts  --      1.1857                 1.4827                 0.9737
 IR Inten    --     11.2916                13.5562                 1.9103

                     19                     20                     21
                      A                      A                      A
 Frequencies --    972.3735              1002.0720              1031.6677
 Red. masses --      2.1700                 5.7768                 1.9121
 Frc consts  --      1.2088                 3.4177                 1.1990
 IR Inten    --      4.5110                85.2465                25.4594

                     22                     23                     24
                      A                      A                      A
 Frequencies --   1042.6461              1103.2037              1130.7336
 Red. masses --      1.9675                 1.8431                 2.3575
 Frc consts  --      1.2602                 1.3217                 1.7759
 IR Inten    --      8.9781                10.7672                25.2268

                     25                     26                     27
                      A                      A                      A
 Frequencies --   1133.3715              1151.3717              1185.3417
 Red. masses --      2.3829                 1.4211                 1.3964
 Frc consts  --      1.8035                 1.1100                 1.1560
 IR Inten    --      2.3905                 3.1900                 2.1234

                     28                     29                     30
                      A                      A                      A
 Frequencies --   1212.0399              1234.7307              1247.8333
 Red. masses --      1.5124                 1.3780                 1.3201
 Frc consts  --      1.3090                 1.2378                 1.2111
 IR Inten    --     13.7686                 1.1990                10.3282

                     31                     32                     33
                      A                      A                      A
 Frequencies --   1266.9860              1298.0215              1307.9057
 Red. masses --      1.5049                 1.5688                 1.7076
 Frc consts  --      1.4233                 1.5573                 1.7210
 IR Inten    --      6.2894                 8.3447                 6.8134

                     34                     35                     36
                      A                      A                      A
 Frequencies --   1327.1498              1356.1095              1423.1751
 Red. masses --      2.0970                 1.5385                 1.1972
 Frc consts  --      2.1762                 1.6670                 1.4286
 IR Inten    --     23.3534                 5.6491                 7.8091

                     37                     38                     39
                      A                      A                      A
 Frequencies --   1451.2161              1465.2539              1489.0104
 Red. masses --      1.1001                 1.0897                 1.1112
 Frc consts  --      1.3651                 1.3785                 1.4516
 IR Inten    --      7.3030                 0.9004                 2.4403

                     40                     41                     42
                      A                      A                      A
 Frequencies --   1525.3293              1827.9543              2908.5335
 Red. masses --      1.1014                 9.8060                 1.0837
 Frc consts  --      1.5099                19.3051                 5.4015
 IR Inten    --      0.6541               177.6739                72.6568

                     43                     44                     45
                      A                      A                      A
 Frequencies --   3009.1061              3025.3823              3052.6108
 Red. masses --      1.0555                 1.0622                 1.1098
 Frc consts  --      5.6310                 5.7282                 6.0932
 IR Inten    --     82.4800                 8.8316                30.5375

                     46                     47                     48
                      A                      A                      A
 Frequencies --   3061.5908              3067.2164              3102.8326
 Red. masses --      1.0586                 1.0617                 1.0994
 Frc consts  --      5.8462                 5.8849                 6.2360
 IR Inten    --     41.0055                24.7772                11.6244

                     49                     50                     51
                      A                      A                      A
 Frequencies --   3106.6940              3117.5695              3129.7651
 Red. masses --      1.1034                 1.0942                 1.1064
 Frc consts  --      6.2747                 6.2661                 6.3852
 IR Inten    --      5.4008                18.9676                34.4503

 - Thermochemistry -
 -------------------
 Temperature   298.150 Kelvin.  Pressure   1.00000 Atm.
 Atom     1 has atomic number  8 and mass  15.99491

 Molecular mass:   126.06808 amu.
 Principal axes and moments of inertia in atomic units:
                           1         2         3
     Eigenvalues --   540.431271590.251701831.62039
           X            0.99992  -0.01241   0.00222
           Y            0.01246   0.99957  -0.02664
           Z           -0.00189   0.02666   0.99964
 This molecule is an asymmetric top.
 Rotational symmetry number  1.
 Warning -- assumption of classical behavior for rotation
           may cause significant error
 Rotational temperatures (Kelvin)      0.16027     0.05447     0.04729
 Rotational constants (GHZ):           3.33945     1.13488     0.98532
 Zero-point vibrational energy     415193.1 (Joules/Mol)
                                   99.23352 (Kcal/Mol)
 Warning -- explicit consideration of   9 degrees of freedom as
           vibrations may cause significant error
 Vibrational temperatures:     57.51   102.94   142.10   240.80   383.84
          (Kelvin)            487.22   548.65   574.57   695.08   936.23
                              967.74  1064.05  1179.48  1216.54  1263.28
                             1312.21  1352.75  1356.43  1399.03  1441.76
                             1484.34  1500.13  1587.26  1626.87  1630.67
                             1656.57  1705.44  1743.85  1776.50  1795.35
                             1822.91  1867.56  1881.78  1909.47  1951.14
                             2047.63  2087.97  2108.17  2142.35  2194.61
                             2630.02  4184.73  4329.43  4352.84  4392.02
                             4404.94  4413.03  4464.28  4469.83  4485.48
                             4503.03

 Zero-point correction=                           0.158139 (Hartree/Particle)
 Thermal correction to Energy=                    0.166754
 Thermal correction to Enthalpy=                  0.167698
 Thermal correction to Gibbs Free Energy=         0.123559
 Sum of electronic and zero-point Energies=           -423.002420
 Sum of electronic and thermal Energies=              -422.993804
 Sum of electronic and thermal Enthalpies=            -422.992860
 Sum of electronic and thermal Free Energies=         -423.036999

                     E (Thermal)             CV                S
                      KCal/Mol        Cal/Mol-Kelvin    Cal/Mol-Kelvin
 Total                  104.640             31.425             92.898
 Electronic               0.000              0.000              0.000
 Translational            0.889              2.981             40.409
 Rotational               0.889              2.981             28.844
 Vibrational            102.862             25.463             23.645
 Vibration     1          0.594              1.981              5.260
 Vibration     2          0.598              1.968              4.110
 Vibration     3          0.604              1.950              3.479
 Vibration     4          0.624              1.883              2.465
 Vibration     5          0.672              1.734              1.617
 Vibration     6          0.719              1.598              1.219
 Vibration     7          0.751              1.510              1.034
 Vibration     8          0.765              1.472              0.965
 Vibration     9          0.839              1.288              0.702

 Optimization completed.
    -- Stationary point found.
 Normal termination of Gaussian 09 at Mon Jan 27 14:24:18 2020.
