 Gaussian 09, Revision D.01,
 Gaussian 09:  ES64L-G09RevD.01 24-Apr-2013

 -----------------------------
 # b3lyp 6-31G(2df,p) opt Freq
 -----------------------------

 -----
 titel
 -----
 Symbolic Z-matrix:
 Charge =  0 Multiplicity = 1

 SCF Done:  E(RB3LYP) =  -423.139646962     A.U. after   14 cycles
 Optimization completed.
    -- Stationary point found.
 Normal termination of Gaussian 09 at Mon Jan 27 13:55:18 2020.

 ----------------------------------------------------------------------
 #N Geom=AllCheck Guess=TCheck SCRF=Check GenChk RB3LYP/6-31G(2df,p) Fr
 eq
 ----------------------------------------------------------------------

 Structure from the checkpoint file:  "/scratch/puck/g09_975ffd40-494a-4c62-b42a-1cc7afa2412a/Gau-157913.chk"
 -----
 titel
 -----
 Charge =  0 Multiplicity = 1

                         Standard orientation:
 ---------------------------------------------------------------------
 Center     Atomic      Atomic             Coordinates (Angstroms)
 Number     Number       Type             X           Y           Z
 ---------------------------------------------------------------------
      1          8           0       -4.503835   -0.460104   -0.439531
      2          6           0       -3.543190   -0.411533    0.283178
      3          6           0       -2.364263    0.518101    0.099610
      4          6           0       -1.031107   -0.246261    0.086280
      5          6           0        0.168211    0.689662    0.020893
      6          8           0        1.340860   -0.096657    0.022837
      7          6           0        2.517737    0.683895   -0.057536
      8          6           0        3.690770   -0.179653   -0.048459
      9          6           0        4.674470   -0.867959   -0.042507
     10          1           0       -3.460515   -1.080907    1.172337
     11          1           0       -2.516356    1.094564   -0.817666
     12          1           0       -2.370185    1.220772    0.946676
     13          1           0       -0.941032   -0.866128    0.986198
     14          1           0       -0.994399   -0.926589   -0.771474
     15          1           0        0.121985    1.312383   -0.889301
     16          1           0        0.163761    1.379551    0.883258
     17          1           0        2.513276    1.294834   -0.976742
     18          1           0        2.570885    1.390549    0.788773
     19          1           0        5.540618   -1.482451   -0.037260
 ---------------------------------------------------------------------

 SCF Done:  E(RB3LYP) =  -423.139646962     A.U. after    1 cycles

 The electronic state is 1-A.
 Alpha  occ. eigenvalues --  -19.15388 -19.14225 -10.27480 -10.26151 -10.24256
 Alpha  occ. eigenvalues --  -10.20264 -10.20138 -10.18819 -10.18182  -1.04946
 Alpha  occ. eigenvalues --   -1.04906  -0.81563  -0.77677  -0.72304  -0.67907
 Alpha  occ. eigenvalues --   -0.61471  -0.58035  -0.53805  -0.51013  -0.50483
 Alpha  occ. eigenvalues --   -0.48520  -0.47661  -0.45191  -0.43981  -0.42009
 Alpha  occ. eigenvalues --   -0.39366  -0.38348  -0.36431  -0.35216  -0.33605
 Alpha  occ. eigenvalues --   -0.28203  -0.28150  -0.26280  -0.25380
 Alpha virt. eigenvalues --   -0.02381   0.02777   0.05088   0.08224   0.10293
 Alpha virt. eigenvalues --    0.11162   0.12377   0.12984   0.13879   0.15018
 Alpha virt. eigenvalues --    0.16247   0.17673   0.18226   0.19017   0.21199

 Mulliken charges:
               1
     1  O   -0.234135
     2  C    0.161004
     3  C   -0.277610
     4  C   -0.212625
     5  C   -0.036432
     6  O   -0.245474
     7  C   -0.208697
     8  C    0.279635
     9  C   -0.411142
    10  H    0.073105
    11  H    0.124759
    12  H    0.120838
    13  H    0.118204
    14  H    0.126691
    15  H    0.092544
    16  H    0.088243
    17  H    0.119959
    18  H    0.118865
    19  H    0.202268
 Sum of Mulliken charges =   0.00000

 Dipole moment (field-independent basis, Debye):
    X=              2.0385    Y=              1.5745    Z=              1.1180  Tot=              2.8079
 Quadrupole moment (field-independent basis, Debye-Ang):
   XX=            -65.7612   YY=            -51.2650   ZZ=            -53.1204
   XY=             -2.6861   XZ=             -5.3439   YZ=             -0.4231

  Exact polarizability: 112.770  -8.727  68.783   2.316  -2.043  61.145
 Approx polarizability: 139.253 -18.781 105.663   8.277  -2.062  94.819

                      1                      2                      3
                      A                      A                      A
 Frequencies --     39.4438                58.5368                62.4271
 Red. masses --      4.6285                 3.4097                 3.3702
 Frc consts  --      0.0042                 0.0069                 0.0077
 IR Inten    --      2.4840                 1.5248                 1.5934

                      4                      5                      6
                      A                      A                      A
 Frequencies --     90.6922               124.3910               141.7801
 Red. masses --      3.6051                 2.2652                 2.9449
 Frc consts  --      0.0175                 0.0207                 0.0349
 IR Inten    --      5.7258                 1.6419                 3.0630

                      7                      8                      9
                      A                      A                      A
 Frequencies --    178.9223               272.2984               327.9274
 Red. masses --      3.6169                 3.8608                 5.2398
 Frc consts  --      0.0682                 0.1687                 0.3320
 IR Inten    --      1.5187                 0.8333                 1.5867

                     10                     11                     12
                      A                      A                      A
 Frequencies --    332.9972               444.4588               513.0385
 Red. masses --      3.4792                 3.2377                 3.3591
 Frc consts  --      0.2273                 0.3768                 0.5209
 IR Inten    --      2.0251                 1.6283                13.6040

                     13                     14                     15
                      A                      A                      A
 Frequencies --    572.6466               610.5954               678.3865
 Red. masses --      4.4128                 1.1931                 1.2414
 Frc consts  --      0.8526                 0.2621                 0.3366
 IR Inten    --      4.9980                44.3471                33.8219

                     16                     17                     18
                      A                      A                      A
 Frequencies --    757.1829               816.7637               924.9466
 Red. masses --      1.1717                 1.4043                 1.3439
 Frc consts  --      0.3958                 0.5519                 0.6774
 IR Inten    --      1.8319                 1.3572                 3.1745

                     19                     20                     21
                      A                      A                      A
 Frequencies --    966.1695              1007.2687              1018.0978
 Red. masses --      3.8862                 2.9798                 5.0463
 Frc consts  --      2.1374                 1.7813                 3.0818
 IR Inten    --      3.5771                10.3727                49.6770

                     22                     23                     24
                      A                      A                      A
 Frequencies --   1031.7645              1056.1554              1122.5441
 Red. masses --      1.6209                 2.5252                 3.4105
 Frc consts  --      1.0166                 1.6596                 2.5321
 IR Inten    --      3.6302                 0.4503                 1.2363

                     25                     26                     27
                      A                      A                      A
 Frequencies --   1146.9602              1156.7480              1216.8271
 Red. masses --      8.0379                 2.0113                 1.2718
 Frc consts  --      6.2300                 1.5856                 1.1095
 IR Inten    --    293.1494                 4.6823                 6.4007

                     28                     29                     30
                      A                      A                      A
 Frequencies --   1254.1078              1261.1701              1292.3545
 Red. masses --      1.0904                 1.3573                 1.1727
 Frc consts  --      1.0104                 1.2719                 1.1540
 IR Inten    --      5.4523                 0.9284                 3.7060

                     31                     32                     33
                      A                      A                      A
 Frequencies --   1316.7837              1355.2604              1390.5987
 Red. masses --      1.0737                 1.3989                 1.3497
 Frc consts  --      1.0969                 1.5138                 1.5378
 IR Inten    --      0.7719                31.3965                70.2287

                     34                     35                     36
                      A                      A                      A
 Frequencies --   1429.1868              1450.0411              1465.5903
 Red. masses --      1.1992                 1.4867                 1.0874
 Frc consts  --      1.4431                 1.8417                 1.3761
 IR Inten    --      5.7246                 8.2923                 1.9844

                     37                     38                     39
                      A                      A                      A
 Frequencies --   1495.2218              1501.4470              1529.2896
 Red. masses --      1.0849                 1.0838                 1.0897
 Frc consts  --      1.4290                 1.4395                 1.5015
 IR Inten    --      3.4106                 2.0130                 3.3218

                     40                     41                     42
                      A                      A                      A
 Frequencies --   1839.3723              2249.2664              2851.7631
 Red. masses --     10.1501                 5.8891                 1.0817
 Frc consts  --     20.2331                17.5543                 5.1833
 IR Inten    --    197.2800                 2.4589               109.0180

                     43                     44                     45
                      A                      A                      A
 Frequencies --   2943.1261              2954.6252              2968.6299
 Red. masses --      1.0544                 1.0549                 1.1019
 Frc consts  --      5.3809                 5.4256                 5.7216
 IR Inten    --     16.6648                67.7903                69.9297

                     46                     47                     48
                      A                      A                      A
 Frequencies --   2974.0209              3006.3628              3040.8917
 Red. masses --      1.1050                 1.0656                 1.0596
 Frc consts  --      5.7583                 5.6742                 5.7731
 IR Inten    --     13.9265                10.8272                20.1736

                     49                     50                     51
                      A                      A                      A
 Frequencies --   3080.7801              3100.5910              3505.3633
 Red. masses --      1.0988                 1.0992                 1.1642
 Frc consts  --      6.1444                 6.2259                 8.4282
 IR Inten    --      8.4483                30.1724                62.7065

 - Thermochemistry -
 -------------------
 Temperature   298.150 Kelvin.  Pressure   1.00000 Atm.
 Atom     1 has atomic number  8 and mass  15.99491

 Molecular mass:   126.06808 amu.
 Principal axes and moments of inertia in atomic units:
                           1         2         3
     Eigenvalues --   204.396544170.298394288.95660
           X            0.99999  -0.00118  -0.00429
           Y            0.00103   0.99939  -0.03488
           Z            0.00433   0.03488   0.99938
 This molecule is an asymmetric top.
 Rotational symmetry number  1.
 Rotational temperatures (Kelvin)      0.42375     0.02077     0.02019
 Rotational constants (GHZ):           8.82961     0.43276     0.42079
 Zero-point vibrational energy     406286.6 (Joules/Mol)
                                   97.10483 (Kcal/Mol)
 Warning -- explicit consideration of  14 degrees of freedom as
           vibrations may cause significant error
 Vibrational temperatures:     56.75    84.22    89.82   130.49   178.97
          (Kelvin)            203.99   257.43   391.78   471.81   479.11
                              639.48   738.15   823.91   878.51   976.05
                             1089.42  1175.14  1330.79  1390.10  1449.23
                             1464.81  1484.48  1519.57  1615.09  1650.22
                             1664.30  1750.74  1804.38  1814.54  1859.41
                             1894.56  1949.92  2000.76  2056.28  2086.28
                             2108.65  2151.29  2160.24  2200.30  2646.44
                             3236.19  4103.05  4234.50  4251.04  4271.19
                             4278.95  4325.48  4375.16  4432.55  4461.05
                             5043.43

 Zero-point correction=                           0.154746 (Hartree/Particle)
 Thermal correction to Energy=                    0.165481
 Thermal correction to Enthalpy=                  0.166425
 Thermal correction to Gibbs Free Energy=         0.116868
 Sum of electronic and zero-point Energies=           -422.984901
 Sum of electronic and thermal Energies=              -422.974166
 Sum of electronic and thermal Enthalpies=            -422.973222
 Sum of electronic and thermal Free Energies=         -423.022779

                     E (Thermal)             CV                S
                      KCal/Mol        Cal/Mol-Kelvin    Cal/Mol-Kelvin
 Total                  103.841             36.006            104.302
 Electronic               0.000              0.000              0.000
 Translational            0.889              2.981             40.409
 Rotational               0.889              2.981             29.682
 Vibrational            102.063             30.044             34.212
 Vibration     1          0.594              1.981              5.287
 Vibration     2          0.596              1.974              4.506
 Vibration     3          0.597              1.972              4.379
 Vibration     4          0.602              1.956              3.645
 Vibration     5          0.610              1.929              3.031
 Vibration     6          0.615              1.911              2.780
 Vibration     7          0.629              1.868              2.340
 Vibration     8          0.675              1.724              1.582
 Vibration     9          0.711              1.620              1.270
 Vibration    10          0.715              1.610              1.246
 Vibration    11          0.804              1.373              0.813
 Vibration    12          0.868              1.221              0.626
 Vibration    13          0.929              1.090              0.499
 Vibration    14          0.970              1.009              0.432

 Optimization completed.
    -- Stationary point found.
 Normal termination of Gaussian 09 at Mon Jan 27 14:24:32 2020.
