 Gaussian 09, Revision D.01,
 Gaussian 09:  ES64L-G09RevD.01 24-Apr-2013

 -----------------------------
 # b3lyp 6-31G(2df,p) opt Freq
 -----------------------------

 -----
 titel
 -----
 Symbolic Z-matrix:
 Charge =  0 Multiplicity = 1

 SCF Done:  E(RB3LYP) =  -423.123681678     A.U. after   13 cycles
 Optimization completed.
    -- Stationary point found.
 Normal termination of Gaussian 09 at Mon Jan 27 23:05:00 2020.

 ----------------------------------------------------------------------
 #N Geom=AllCheck Guess=TCheck SCRF=Check GenChk RB3LYP/6-31G(2df,p) Fr
 eq
 ----------------------------------------------------------------------

 Structure from the checkpoint file:  "/scratch/puck/g09_b0767f3a-4209-45d9-a89a-d70c1c41970b/Gau-48925.chk"
 -----
 titel
 -----
 Charge =  0 Multiplicity = 1

                         Standard orientation:
 ---------------------------------------------------------------------
 Center     Atomic      Atomic             Coordinates (Angstroms)
 Number     Number       Type             X           Y           Z
 ---------------------------------------------------------------------
      1          6           0        2.685134   -0.280586   -0.000008
      2          6           0        1.191243   -0.570982   -0.000026
      3          6           0        0.359781    0.301449    0.985166
      4          8           0        0.414530    1.381178    0.000034
      5          6           0        0.359767    0.301514   -0.985161
      6          6           0       -1.126580   -0.232670   -0.986568
      7          6           0       -1.945844    0.636527    0.000029
      8          6           0       -1.126569   -0.232733    0.986561
      9          8           0       -1.192966   -1.311937   -0.000037
     10          1           0        3.163833   -0.718315    0.882956
     11          1           0        3.163974   -0.718852   -0.882623
     12          1           0        2.880177    0.794750   -0.000293
     13          1           0        0.985096   -1.638911   -0.000064
     14          1           0        0.745711    0.599788    1.962668
     15          1           0        0.745682    0.599913   -1.962650
     16          1           0       -1.509565   -0.528810   -1.964708
     17          1           0       -1.826462    1.716454    0.000064
     18          1           0       -2.993011    0.333874    0.000026
     19          1           0       -1.509540   -0.528934    1.964688
 ---------------------------------------------------------------------

 SCF Done:  E(RB3LYP) =  -423.123681678     A.U. after    1 cycles

 The electronic state is 1-A.
 Alpha  occ. eigenvalues --  -19.13364 -19.13350 -10.24023 -10.24022 -10.23748
 Alpha  occ. eigenvalues --  -10.23747 -10.19034 -10.18596 -10.17341  -1.06617
 Alpha  occ. eigenvalues --   -1.02193  -0.77080  -0.74504  -0.72948  -0.67875
 Alpha  occ. eigenvalues --   -0.61650  -0.58424  -0.53494  -0.50309  -0.49277
 Alpha  occ. eigenvalues --   -0.46477  -0.44385  -0.41358  -0.40545  -0.40018
 Alpha  occ. eigenvalues --   -0.39118  -0.37974  -0.34843  -0.33651  -0.31967
 Alpha  occ. eigenvalues --   -0.30406  -0.29388  -0.28457  -0.22215
 Alpha virt. eigenvalues --    0.05553   0.09317   0.11754   0.12087   0.12685
 Alpha virt. eigenvalues --    0.13983   0.14601   0.15954   0.16391   0.16979
 Alpha virt. eigenvalues --    0.17349   0.17397   0.18447   0.20032   0.20447

 Mulliken charges:
               1
     1  C   -0.433968
     2  C    0.053494
     3  C    0.041109
     4  O   -0.293031
     5  C    0.041096
     6  C    0.048137
     7  C   -0.207776
     8  C    0.048133
     9  O   -0.288835
    10  H    0.113545
    11  H    0.113545
    12  H    0.131495
    13  H    0.096138
    14  H    0.075657
    15  H    0.075658
    16  H    0.079852
    17  H    0.120656
    18  H    0.105241
    19  H    0.079852
 Sum of Mulliken charges =   0.00000

 Dipole moment (field-independent basis, Debye):
    X=              0.0567    Y=             -0.0187    Z=              0.0000  Tot=              0.0597
 Quadrupole moment (field-independent basis, Debye-Ang):
   XX=            -52.3532   YY=            -58.9299   ZZ=            -48.0379
   XY=             -3.0341   XZ=             -0.0001   YZ=             -0.0003

  Exact polarizability:  84.223  -2.065  62.797   0.000   0.000  73.262
 Approx polarizability: 106.123   0.544 105.359   0.000   0.000 113.041

                      1                      2                      3
                      A                      A                      A
 Frequencies --    223.9826               237.1275               250.8080
 Red. masses --      1.0720                 3.0530                 2.4826
 Frc consts  --      0.0317                 0.1011                 0.0920
 IR Inten    --      0.1335                 0.7888                 0.6841

                      4                      5                      6
                      A                      A                      A
 Frequencies --    344.5795               442.8122               495.9233
 Red. masses --      2.8969                 4.8486                 2.7454
 Frc consts  --      0.2027                 0.5601                 0.3978
 IR Inten    --      2.8163                12.3445                 2.0179

                      7                      8                      9
                      A                      A                      A
 Frequencies --    545.2131               598.7655               622.9599
 Red. masses --      8.6508                 4.9578                 3.3278
 Frc consts  --      1.5151                 1.0472                 0.7609
 IR Inten    --      0.5934                 0.0165                15.3406

                     10                     11                     12
                      A                      A                      A
 Frequencies --    791.2008               793.7192               846.7478
 Red. masses --      2.7896                 2.4202                 2.6149
 Frc consts  --      1.0289                 0.8983                 1.1046
 IR Inten    --      3.5578                 0.2440                26.2551

                     13                     14                     15
                      A                      A                      A
 Frequencies --    851.8883               866.1834               879.3503
 Red. masses --      4.1755                 2.7302                 2.4011
 Frc consts  --      1.7853                 1.2069                 1.0939
 IR Inten    --      0.9156                 0.9151                 0.2123

                     16                     17                     18
                      A                      A                      A
 Frequencies --    895.1504               911.9459               912.2731
 Red. masses --      2.2986                 5.1681                 4.4050
 Frc consts  --      1.0852                 2.5323                 2.1599
 IR Inten    --      9.5886                60.3797                51.4107

                     19                     20                     21
                      A                      A                      A
 Frequencies --    933.9639              1012.4448              1039.0021
 Red. masses --      2.8096                 1.8780                 3.3705
 Frc consts  --      1.4439                 1.1342                 2.1438
 IR Inten    --      1.0171                 2.9495                 3.4544

                     22                     23                     24
                      A                      A                      A
 Frequencies --   1064.0155              1084.8735              1087.4247
 Red. masses --      1.3498                 2.1234                 2.3295
 Frc consts  --      0.9004                 1.4725                 1.6230
 IR Inten    --      5.3154                 2.8804                 6.5921

                     25                     26                     27
                      A                      A                      A
 Frequencies --   1098.1092              1147.4761              1169.3327
 Red. masses --      1.1546                 3.3288                 1.2852
 Frc consts  --      0.8203                 2.5824                 1.0354
 IR Inten    --      0.0891                12.9691                 0.0399

                     28                     29                     30
                      A                      A                      A
 Frequencies --   1194.2085              1236.4571              1247.5709
 Red. masses --      1.5882                 1.3772                 1.4165
 Frc consts  --      1.3345                 1.2406                 1.2990
 IR Inten    --      6.4244                 0.0030                 2.7564

                     31                     32                     33
                      A                      A                      A
 Frequencies --   1256.2368              1281.5378              1287.2034
 Red. masses --      1.4074                 1.3612                 1.6397
 Frc consts  --      1.3086                 1.3171                 1.6007
 IR Inten    --      0.7369                 1.6932                 1.0838

                     34                     35                     36
                      A                      A                      A
 Frequencies --   1296.4463              1324.7590              1328.8352
 Red. masses --      1.2988                 1.4330                 1.4548
 Frc consts  --      1.2862                 1.4818                 1.5136
 IR Inten    --      0.2099                 0.8028                 4.9564

                     37                     38                     39
                      A                      A                      A
 Frequencies --   1381.0409              1403.4128              1476.2463
 Red. masses --      1.5996                 1.2564                 1.1337
 Frc consts  --      1.7976                 1.4580                 1.4557
 IR Inten    --      2.8256                 1.8942                 3.6480

                     40                     41                     42
                      A                      A                      A
 Frequencies --   1492.0031              1506.6115              3031.9515
 Red. masses --      1.0482                 1.0488                 1.0364
 Frc consts  --      1.3748                 1.4026                 5.6133
 IR Inten    --      3.5687                 2.5921                33.1173

                     43                     44                     45
                      A                      A                      A
 Frequencies --   3085.7914              3086.5023              3090.8664
 Red. masses --      1.0892                 1.0885                 1.1002
 Frc consts  --      6.1109                 6.1098                 6.1929
 IR Inten    --     18.3702                15.0368                27.2500

                     46                     47                     48
                      A                      A                      A
 Frequencies --   3097.5637              3102.7729              3111.0067
 Red. masses --      1.0703                 1.0877                 1.0826
 Frc consts  --      6.0508                 6.1698                 6.1731
 IR Inten    --     15.2161               132.8893                21.6894

                     49                     50                     51
                      A                      A                      A
 Frequencies --   3116.2304              3140.9591              3180.9295
 Red. masses --      1.0970                 1.0890                 1.1083
 Frc consts  --      6.2763                 6.3302                 6.6072
 IR Inten    --      4.1376                23.2850                10.5271

 - Thermochemistry -
 -------------------
 Temperature   298.150 Kelvin.  Pressure   1.00000 Atm.
 Atom     1 has atomic number  6 and mass  12.00000

 Molecular mass:   126.06808 amu.
 Principal axes and moments of inertia in atomic units:
                           1         2         3
     Eigenvalues --   512.791361140.972851198.32337
           X            0.99952  -0.03108   0.00000
           Y            0.03108   0.99952  -0.00002
           Z            0.00000   0.00002   1.00000
 This molecule is an asymmetric top.
 Rotational symmetry number  1.
 Warning -- assumption of classical behavior for rotation
           may cause significant error
 Rotational temperatures (Kelvin)      0.16891     0.07591     0.07228
 Rotational constants (GHZ):           3.51945     1.58176     1.50606
 Zero-point vibrational energy     424102.6 (Joules/Mol)
                                  101.36295 (Kcal/Mol)
 Warning -- explicit consideration of   8 degrees of freedom as
           vibrations may cause significant error
 Vibrational temperatures:    322.26   341.17   360.86   495.77   637.11
          (Kelvin)            713.52   784.44   861.49   896.30  1138.36
                             1141.98  1218.28  1225.68  1246.24  1265.19
                             1287.92  1312.09  1312.56  1343.76  1456.68
                             1494.89  1530.88  1560.89  1564.56  1579.93
                             1650.96  1682.41  1718.20  1778.98  1794.97
                             1807.44  1843.84  1852.00  1865.29  1906.03
                             1911.90  1987.01  2019.20  2123.99  2146.66
                             2167.68  4362.30  4439.76  4440.78  4447.06
                             4456.70  4464.19  4476.04  4483.55  4519.13
                             4576.64

 Zero-point correction=                           0.161532 (Hartree/Particle)
 Thermal correction to Energy=                    0.168219
 Thermal correction to Enthalpy=                  0.169164
 Thermal correction to Gibbs Free Energy=         0.130907
 Sum of electronic and zero-point Energies=           -422.962150
 Sum of electronic and thermal Energies=              -422.955462
 Sum of electronic and thermal Enthalpies=            -422.954518
 Sum of electronic and thermal Free Energies=         -422.992775

                     E (Thermal)             CV                S
                      KCal/Mol        Cal/Mol-Kelvin    Cal/Mol-Kelvin
 Total                  105.559             28.446             80.518
 Electronic               0.000              0.000              0.000
 Translational            0.889              2.981             40.409
 Rotational               0.889              2.981             28.041
 Vibrational            103.782             22.485             12.068
 Vibration     1          0.649              1.805              1.927
 Vibration     2          0.656              1.784              1.824
 Vibration     3          0.663              1.761              1.725
 Vibration     4          0.723              1.586              1.191
 Vibration     5          0.802              1.377              0.818
 Vibration     6          0.851              1.259              0.668
 Vibration     7          0.900              1.150              0.554
 Vibration     8          0.957              1.034              0.452

 Optimization completed.
    -- Stationary point found.
 Normal termination of Gaussian 09 at Mon Jan 27 23:57:40 2020.
