 Gaussian 09, Revision D.01,
 Gaussian 09:  ES64L-G09RevD.01 24-Apr-2013

 -----------------------------
 # b3lyp 6-31G(2df,p) opt Freq
 -----------------------------

 -----
 titel
 -----
 Symbolic Z-matrix:
 Charge =  0 Multiplicity = 1

 SCF Done:  E(RB3LYP) =  -423.218876008     A.U. after   14 cycles
 Optimization completed.
    -- Stationary point found.
 Normal termination of Gaussian 09 at Tue Jan 28 12:40:06 2020.

 ----------------------------------------------------------------------
 #N Geom=AllCheck Guess=TCheck SCRF=Check GenChk RB3LYP/6-31G(2df,p) Fr
 eq
 ----------------------------------------------------------------------

 Structure from the checkpoint file:  "/scratch/puck/g09_509a0434-45cf-4d10-87f5-c73372b5cd37/Gau-30213.chk"
 -----
 titel
 -----
 Charge =  0 Multiplicity = 1

                         Standard orientation:
 ---------------------------------------------------------------------
 Center     Atomic      Atomic             Coordinates (Angstroms)
 Number     Number       Type             X           Y           Z
 ---------------------------------------------------------------------
      1          8           0       -2.902932   -0.748868   -0.458773
      2          6           0       -2.312850    0.222611    0.400730
      3          6           0       -0.820178    0.331812    0.213228
      4          6           0       -0.239161    1.478947   -0.147182
      5          6           0        1.242109    1.651298   -0.351983
      6          6           0        2.055800    0.531210    0.325289
      7          6           0        1.441745   -0.831748    0.057567
      8          8           0        2.070504   -1.761894   -0.388961
      9          6           0       -0.035667   -0.946541    0.411107
     10          1           0       -2.727908   -0.472486   -1.364861
     11          1           0       -2.779923    1.210472    0.274096
     12          1           0       -2.545103   -0.123962    1.415636
     13          1           0       -0.860980    2.357298   -0.310187
     14          1           0        1.464863    1.673906   -1.428643
     15          1           0        1.563884    2.626044    0.032854
     16          1           0        3.098346    0.523651    0.000865
     17          1           0        2.034510    0.692763    1.411864
     18          1           0       -0.476399   -1.764067   -0.167081
     19          1           0       -0.102649   -1.263065    1.464785
 ---------------------------------------------------------------------

 SCF Done:  E(RB3LYP) =  -423.218876008     A.U. after    1 cycles

 The electronic state is 1-A.
 Alpha  occ. eigenvalues --  -19.14150 -19.12610 -10.26695 -10.23512 -10.20247
 Alpha  occ. eigenvalues --  -10.19763 -10.19355 -10.19331 -10.19252  -1.03691
 Alpha  occ. eigenvalues --   -1.02107  -0.84209  -0.77098  -0.73404  -0.68326
 Alpha  occ. eigenvalues --   -0.63096  -0.56253  -0.51436  -0.50856  -0.47915
 Alpha  occ. eigenvalues --   -0.46175  -0.45076  -0.43409  -0.42938  -0.41218
 Alpha  occ. eigenvalues --   -0.39958  -0.39129  -0.37048  -0.35434  -0.33708
 Alpha  occ. eigenvalues --   -0.32709  -0.28022  -0.25507  -0.23730
 Alpha virt. eigenvalues --   -0.01351   0.00700   0.08141   0.09747   0.11680
 Alpha virt. eigenvalues --    0.12073   0.13263   0.15034   0.16384   0.16492
 Alpha virt. eigenvalues --    0.17925   0.18111   0.20604   0.20655   0.22403

 Mulliken charges:
               1
     1  O   -0.409454
     2  C   -0.149653
     3  C    0.267640
     4  C   -0.157967
     5  C   -0.261087
     6  C   -0.302958
     7  C    0.382029
     8  O   -0.307586
     9  C   -0.389471
    10  H    0.283297
    11  H    0.092216
    12  H    0.112584
    13  H    0.085580
    14  H    0.124529
    15  H    0.114076
    16  H    0.119925
    17  H    0.120877
    18  H    0.144157
    19  H    0.131263
 Sum of Mulliken charges =   0.00000

 Dipole moment (field-independent basis, Debye):
    X=             -0.5872    Y=              3.2622    Z=              0.4158  Tot=              3.3407
 Quadrupole moment (field-independent basis, Debye-Ang):
   XX=            -60.0990   YY=            -57.0016   ZZ=            -49.4666
   XY=              2.8345   XZ=              3.0612   YZ=             -2.3020

  Exact polarizability:  89.281   4.295  85.030  -4.084  -2.501  60.573
 Approx polarizability: 116.839   7.552 134.089  -8.921  -3.105  97.215

                      1                      2                      3
                      A                      A                      A
 Frequencies --     66.8523                78.8255               127.9281
 Red. masses --      3.5240                 3.3212                 3.3628
 Frc consts  --      0.0093                 0.0122                 0.0324
 IR Inten    --      2.2540                 2.4162                 2.4671

                      4                      5                      6
                      A                      A                      A
 Frequencies --    199.4891               284.0276               322.7504
 Red. masses --      2.8843                 2.1122                 1.9788
 Frc consts  --      0.0676                 0.1004                 0.1214
 IR Inten    --      1.8632                12.4802                18.2230

                      7                      8                      9
                      A                      A                      A
 Frequencies --    390.1305               399.6168               449.9206
 Red. masses --      1.5445                 1.9709                 4.0839
 Frc consts  --      0.1385                 0.1854                 0.4871
 IR Inten    --     95.3585                 4.9618                 6.5557

                     10                     11                     12
                      A                      A                      A
 Frequencies --    492.2118               532.4193               580.2069
 Red. masses --      3.4041                 3.7524                 3.4926
 Frc consts  --      0.4859                 0.6267                 0.6927
 IR Inten    --      8.8409                 2.5732                 1.9606

                     13                     14                     15
                      A                      A                      A
 Frequencies --    664.9580               760.3570               826.1676
 Red. masses --      3.0564                 1.9553                 1.8000
 Frc consts  --      0.7963                 0.6660                 0.7239
 IR Inten    --      6.9820                 6.2114                 8.7076

                     16                     17                     18
                      A                      A                      A
 Frequencies --    855.0784               908.5341               918.3684
 Red. masses --      2.1739                 2.4537                 1.5999
 Frc consts  --      0.9365                 1.1933                 0.7950
 IR Inten    --      0.3484                 2.6027                 8.9743

                     19                     20                     21
                      A                      A                      A
 Frequencies --    951.7278               987.2215              1038.3409
 Red. masses --      2.0236                 1.8977                 3.8839
 Frc consts  --      1.0799                 1.0897                 2.4672
 IR Inten    --      4.2564                28.0005                60.8321

                     22                     23                     24
                      A                      A                      A
 Frequencies --   1051.2198              1082.0527              1131.5315
 Red. masses --      2.1272                 2.0547                 1.4996
 Frc consts  --      1.3850                 1.4174                 1.1313
 IR Inten    --      0.8148                12.1046                 6.9329

                     25                     26                     27
                      A                      A                      A
 Frequencies --   1157.8138              1189.9505              1205.1966
 Red. masses --      2.1129                 1.2898                 1.3483
 Frc consts  --      1.6688                 1.0761                 1.1538
 IR Inten    --     10.9758                43.8619                13.8797

                     28                     29                     30
                      A                      A                      A
 Frequencies --   1228.1362              1243.2026              1307.2212
 Red. masses --      1.4605                 1.5003                 1.4514
 Frc consts  --      1.2979                 1.3662                 1.4613
 IR Inten    --      9.2050                 6.4663                 6.3561

                     31                     32                     33
                      A                      A                      A
 Frequencies --   1329.0264              1356.3548              1374.4995
 Red. masses --      1.5326                 1.5325                 1.6445
 Frc consts  --      1.5949                 1.6611                 1.8305
 IR Inten    --      2.7739                 0.5964                23.5948

                     34                     35                     36
                      A                      A                      A
 Frequencies --   1391.0683              1415.6227              1446.9793
 Red. masses --      1.4747                 1.2306                 1.0822
 Frc consts  --      1.6813                 1.4529                 1.3350
 IR Inten    --      0.2436                59.6962                 5.1489

                     37                     38                     39
                      A                      A                      A
 Frequencies --   1467.2291              1485.5407              1495.9725
 Red. masses --      1.0866                 1.0903                 1.0880
 Frc consts  --      1.3782                 1.4176                 1.4346
 IR Inten    --      5.4792                 3.3402                 1.4450

                     40                     41                     42
                      A                      A                      A
 Frequencies --   1737.4601              1822.2399              2988.5832
 Red. masses --      7.3013                11.5047                 1.0710
 Frc consts  --     12.9861                22.5080                 5.6360
 IR Inten    --      1.2879               194.9479                13.2294

                     43                     44                     45
                      A                      A                      A
 Frequencies --   2992.7543              3006.0723              3023.1691
 Red. masses --      1.0642                 1.0692                 1.0654
 Frc consts  --      5.6159                 5.6925                 5.7371
 IR Inten    --     50.6318                22.2647                15.5097

                     46                     47                     48
                      A                      A                      A
 Frequencies --   3049.8474              3052.4885              3088.4209
 Red. masses --      1.0985                 1.0922                 1.0867
 Frc consts  --      6.0203                 5.9962                 6.1073
 IR Inten    --     30.5866                25.3042                 2.8891

                     49                     50                     51
                      A                      A                      A
 Frequencies --   3114.8092              3143.6175              3806.2024
 Red. masses --      1.0962                 1.0890                 1.0662
 Frc consts  --      6.2660                 6.3406                 9.1005
 IR Inten    --     17.6290                20.9723                16.2910

 - Thermochemistry -
 -------------------
 Temperature   298.150 Kelvin.  Pressure   1.00000 Atm.
 Atom     1 has atomic number  8 and mass  15.99491

 Molecular mass:   126.06808 amu.
 Principal axes and moments of inertia in atomic units:
                           1         2         3
     Eigenvalues --   670.602681555.355542057.37635
           X            0.99964   0.02689   0.00063
           Y           -0.02687   0.99945  -0.01936
           Z           -0.00115   0.01933   0.99981
 This molecule is an asymmetric top.
 Rotational symmetry number  1.
 Warning -- assumption of classical behavior for rotation
           may cause significant error
 Rotational temperatures (Kelvin)      0.12916     0.05569     0.04210
 Rotational constants (GHZ):           2.69122     1.16034     0.87721
 Zero-point vibrational energy     418809.1 (Joules/Mol)
                                  100.09778 (Kcal/Mol)
 Warning -- explicit consideration of  12 degrees of freedom as
           vibrations may cause significant error
 Vibrational temperatures:     96.19   113.41   184.06   287.02   408.65
          (Kelvin)            464.37   561.31   574.96   647.33   708.18
                              766.03   834.79   956.73  1093.98  1188.67
                             1230.27  1307.18  1321.33  1369.32  1420.39
                             1493.94  1512.47  1556.83  1628.02  1665.83
                             1712.07  1734.01  1767.01  1788.69  1880.80
                             1912.17  1951.49  1977.60  2001.43  2036.76
                             2081.88  2111.01  2137.36  2152.37  2499.81
                             2621.79  4299.90  4305.90  4325.06  4349.66
                             4388.04  4391.84  4443.54  4481.51  4522.96
                             5476.27

 Zero-point correction=                           0.159516 (Hartree/Particle)
 Thermal correction to Energy=                    0.168307
 Thermal correction to Enthalpy=                  0.169251
 Thermal correction to Gibbs Free Energy=         0.125424
 Sum of electronic and zero-point Energies=           -423.059360
 Sum of electronic and thermal Energies=              -423.050569
 Sum of electronic and thermal Enthalpies=            -423.049625
 Sum of electronic and thermal Free Energies=         -423.093452

                     E (Thermal)             CV                S
                      KCal/Mol        Cal/Mol-Kelvin    Cal/Mol-Kelvin
 Total                  105.614             32.750             92.243
 Electronic               0.000              0.000              0.000
 Translational            0.889              2.981             40.409
 Rotational               0.889              2.981             29.152
 Vibrational            103.837             26.789             22.682
 Vibration     1          0.598              1.970              4.244
 Vibration     2          0.600              1.963              3.920
 Vibration     3          0.611              1.925              2.977
 Vibration     4          0.638              1.841              2.138
 Vibration     5          0.682              1.703              1.509
 Vibration     6          0.708              1.630              1.296
 Vibration     7          0.758              1.491              1.000
 Vibration     8          0.766              1.471              0.964
 Vibration     9          0.809              1.361              0.796
 Vibration    10          0.848              1.267              0.678
 Vibration    11          0.887              1.178              0.582
 Vibration    12          0.937              1.074              0.485

 Normal termination of Gaussian 09 at Tue Jan 28 13:21:05 2020.
