 Gaussian 09, Revision D.01,
 Gaussian 09:  ES64L-G09RevD.01 24-Apr-2013

 -----------------------------
 # b3lyp 6-31G(2df,p) opt Freq
 -----------------------------

 -----
 titel
 -----
 Symbolic Z-matrix:
 Charge =  0 Multiplicity = 1

 SCF Done:  E(RB3LYP) =  -423.166599863     A.U. after   13 cycles
 Optimization completed.
    -- Stationary point found.
 Normal termination of Gaussian 09 at Tue Jan 28 02:00:52 2020.

 ----------------------------------------------------------------------
 #N Geom=AllCheck Guess=TCheck SCRF=Check GenChk RB3LYP/6-31G(2df,p) Fr
 eq
 ----------------------------------------------------------------------

 Structure from the checkpoint file:  "/scratch/puck/g09_85646bbb-a783-46c9-a54a-2898862fcb42/Gau-26728.chk"
 -----
 titel
 -----
 Charge =  0 Multiplicity = 1

                         Standard orientation:
 ---------------------------------------------------------------------
 Center     Atomic      Atomic             Coordinates (Angstroms)
 Number     Number       Type             X           Y           Z
 ---------------------------------------------------------------------
      1          6           0        2.817447    0.280327   -0.603663
      2          6           0        1.716497   -0.573816   -0.029057
      3          8           0        1.216963   -0.220536    1.272135
      4          6           0        0.333930   -0.113904    0.143798
      5          6           0       -0.213560    1.263315   -0.237041
      6          6           0       -1.701866    1.242491    0.203666
      7          6           0       -2.071373   -0.229332    0.206381
      8          8           0       -1.676309   -0.918437   -0.988394
      9          6           0       -0.848241   -1.041610    0.178728
     10          1           0        3.769252    0.056562   -0.110821
     11          1           0        2.937018    0.074015   -1.672759
     12          1           0        2.607455    1.344207   -0.475290
     13          1           0        1.865710   -1.649024   -0.153620
     14          1           0        0.353709    2.058859    0.247948
     15          1           0       -0.141588    1.401427   -1.319014
     16          1           0       -1.818865    1.637464    1.219321
     17          1           0       -2.342307    1.833491   -0.457392
     18          1           0       -2.995230   -0.577126    0.661132
     19          1           0       -0.757397   -2.032913    0.613699
 ---------------------------------------------------------------------

 SCF Done:  E(RB3LYP) =  -423.166599863     A.U. after    1 cycles

 The electronic state is 1-A.
 Alpha  occ. eigenvalues --  -19.15130 -19.14622 -10.23979 -10.23704 -10.23694
 Alpha  occ. eigenvalues --  -10.23447 -10.19143 -10.18861 -10.18434  -1.07678
 Alpha  occ. eigenvalues --   -1.06219  -0.80245  -0.74652  -0.70541  -0.67594
 Alpha  occ. eigenvalues --   -0.61344  -0.58137  -0.55368  -0.52550  -0.48438
 Alpha  occ. eigenvalues --   -0.46519  -0.44623  -0.42621  -0.41345  -0.40347
 Alpha  occ. eigenvalues --   -0.39265  -0.37277  -0.35820  -0.35496  -0.35275
 Alpha  occ. eigenvalues --   -0.31640  -0.27807  -0.27575  -0.25386
 Alpha virt. eigenvalues --    0.07659   0.09706   0.10609   0.11135   0.12050
 Alpha virt. eigenvalues --    0.12304   0.13632   0.15191   0.15713   0.16350
 Alpha virt. eigenvalues --    0.17079   0.18085   0.19660   0.19907   0.21509

 Mulliken charges:
               1
     1  C   -0.421845
     2  C   -0.005201
     3  O   -0.304768
     4  C    0.415908
     5  C   -0.309287
     6  C   -0.251595
     7  C    0.049651
     8  O   -0.264128
     9  C   -0.042099
    10  H    0.130138
    11  H    0.126172
    12  H    0.126784
    13  H    0.086775
    14  H    0.117747
    15  H    0.122184
    16  H    0.113640
    17  H    0.111822
    18  H    0.097577
    19  H    0.100525
 Sum of Mulliken charges =   0.00000

 Dipole moment (field-independent basis, Debye):
    X=              0.1608    Y=              0.6947    Z=             -0.1369  Tot=              0.7261
 Quadrupole moment (field-independent basis, Debye-Ang):
   XX=            -50.0747   YY=            -50.8232   ZZ=            -57.3568
   XY=             -2.1072   XZ=             -5.9008   YZ=             -1.5658

  Exact polarizability:  92.262  -4.168  71.758  -3.337  -0.757  61.015
 Approx polarizability: 118.408  -7.222 102.786   0.759   2.161 103.997

                      1                      2                      3
                      A                      A                      A
 Frequencies --     94.1315               163.4475               185.3427
 Red. masses --      3.0334                 2.3316                 1.1904
 Frc consts  --      0.0158                 0.0367                 0.0241
 IR Inten    --      2.6202                 2.6110                 0.4768

                      4                      5                      6
                      A                      A                      A
 Frequencies --    197.9952               303.8266               366.5018
 Red. masses --      2.5805                 2.4332                 2.9623
 Frc consts  --      0.0596                 0.1323                 0.2344
 IR Inten    --      1.0498                 3.8893                 5.0367

                      7                      8                      9
                      A                      A                      A
 Frequencies --    381.5218               444.8094               512.9286
 Red. masses --      4.4798                 3.3150                 4.9954
 Frc consts  --      0.3842                 0.3864                 0.7744
 IR Inten    --      1.9115                12.0105                 0.8260

                     10                     11                     12
                      A                      A                      A
 Frequencies --    556.5416               686.6519               751.9883
 Red. masses --      3.4137                 3.0873                 3.0059
 Frc consts  --      0.6230                 0.8576                 1.0015
 IR Inten    --      0.9728                 1.3429                13.3707

                     13                     14                     15
                      A                      A                      A
 Frequencies --    809.1607               827.3862               842.4297
 Red. masses --      3.2914                 2.6409                 2.8975
 Frc consts  --      1.2697                 1.0652                 1.2116
 IR Inten    --      1.9058                 6.9886                 3.4488

                     16                     17                     18
                      A                      A                      A
 Frequencies --    872.7562               915.5149               936.0046
 Red. masses --      2.5878                 3.0135                 2.6375
 Frc consts  --      1.1614                 1.4882                 1.3615
 IR Inten    --     30.6214                18.5184                22.5165

                     19                     20                     21
                      A                      A                      A
 Frequencies --    973.8792              1006.0635              1025.1106
 Red. masses --      1.9312                 1.5651                 2.0819
 Frc consts  --      1.0792                 0.9333                 1.2890
 IR Inten    --      4.2309                13.5406                18.0982

                     22                     23                     24
                      A                      A                      A
 Frequencies --   1035.5417              1080.4101              1094.3923
 Red. masses --      1.5063                 2.4096                 1.4128
 Frc consts  --      0.9517                 1.6572                 0.9970
 IR Inten    --      8.0100                 1.1012                 1.2944

                     25                     26                     27
                      A                      A                      A
 Frequencies --   1129.3530              1157.7636              1192.7239
 Red. masses --      2.0430                 1.6567                 1.3650
 Frc consts  --      1.5353                 1.3084                 1.1441
 IR Inten    --      6.3741                 5.0813                 8.7763

                     28                     29                     30
                      A                      A                      A
 Frequencies --   1215.5086              1238.8226              1253.0957
 Red. masses --      1.5288                 1.4583                 1.6283
 Frc consts  --      1.3308                 1.3186                 1.5064
 IR Inten    --      5.8587                 2.9281                 1.1776

                     31                     32                     33
                      A                      A                      A
 Frequencies --   1306.6684              1311.0181              1328.0581
 Red. masses --      1.2919                 1.6611                 1.6231
 Frc consts  --      1.2996                 1.6821                 1.6867
 IR Inten    --      1.4194                 5.9909                 0.3214

                     34                     35                     36
                      A                      A                      A
 Frequencies --   1370.7914              1408.1219              1427.1488
 Red. masses --      1.4605                 1.2990                 2.5875
 Frc consts  --      1.6170                 1.5175                 3.1050
 IR Inten    --      6.0731                 5.0575                14.8119

                     37                     38                     39
                      A                      A                      A
 Frequencies --   1467.3332              1475.8733              1485.5997
 Red. masses --      1.1570                 1.2097                 1.0974
 Frc consts  --      1.4677                 1.5524                 1.4270
 IR Inten    --      1.5057                 2.3690                 2.6710

                     40                     41                     42
                      A                      A                      A
 Frequencies --   1492.5275              1521.1314              3039.6534
 Red. masses --      1.0897                 2.4143                 1.0370
 Frc consts  --      1.4303                 3.2913                 5.6451
 IR Inten    --      2.6649                 9.6463                18.4265

                     43                     44                     45
                      A                      A                      A
 Frequencies --   3045.8604              3070.6165              3078.4770
 Red. masses --      1.0615                 1.0652                 1.0864
 Frc consts  --      5.8019                 5.9173                 6.0662
 IR Inten    --     28.2437                10.4196                24.6346

                     46                     47                     48
                      A                      A                      A
 Frequencies --   3093.0303              3101.4783              3127.5423
 Red. masses --      1.0988                 1.1006                 1.1034
 Frc consts  --      6.1934                 6.2379                 6.3590
 IR Inten    --     19.9113                16.7166                10.7653

                     49                     50                     51
                      A                      A                      A
 Frequencies --   3135.2980              3148.5732              3163.4755
 Red. masses --      1.1002                 1.0880                 1.0957
 Frc consts  --      6.3720                 6.3548                 6.4605
 IR Inten    --     24.5353                20.8634                23.9140

 - Thermochemistry -
 -------------------
 Temperature   298.150 Kelvin.  Pressure   1.00000 Atm.
 Atom     1 has atomic number  6 and mass  12.00000

 Molecular mass:   126.06808 amu.
 Principal axes and moments of inertia in atomic units:
                           1         2         3
     Eigenvalues --   525.559901440.652411572.45489
           X            0.99935  -0.01207  -0.03395
           Y            0.00997   0.99806  -0.06143
           Z            0.03463   0.06105   0.99753
 This molecule is an asymmetric top.
 Rotational symmetry number  1.
 Warning -- assumption of classical behavior for rotation
           may cause significant error
 Rotational temperatures (Kelvin)      0.16480     0.06012     0.05508
 Rotational constants (GHZ):           3.43394     1.25272     1.14772
 Zero-point vibrational energy     417795.1 (Joules/Mol)
                                   99.85542 (Kcal/Mol)
 Warning -- explicit consideration of  10 degrees of freedom as
           vibrations may cause significant error
 Vibrational temperatures:    135.43   235.16   266.67   284.87   437.14
          (Kelvin)            527.31   548.92   639.98   737.99   800.74
                              987.94  1081.94  1164.20  1190.42  1212.07
                             1255.70  1317.22  1346.70  1401.19  1447.50
                             1474.90  1489.91  1554.47  1574.58  1624.89
                             1665.76  1716.06  1748.84  1782.39  1802.92
                             1880.00  1886.26  1910.78  1972.26  2025.97
                             2053.35  2111.16  2123.45  2137.44  2147.41
                             2188.57  4373.38  4382.31  4417.93  4429.24
                             4450.18  4462.33  4499.83  4510.99  4530.09
                             4551.53

 Zero-point correction=                           0.159130 (Hartree/Particle)
 Thermal correction to Energy=                    0.167192
 Thermal correction to Enthalpy=                  0.168136
 Thermal correction to Gibbs Free Energy=         0.126583
 Sum of electronic and zero-point Energies=           -423.007470
 Sum of electronic and thermal Energies=              -422.999408
 Sum of electronic and thermal Enthalpies=            -422.998464
 Sum of electronic and thermal Free Energies=         -423.040017

                     E (Thermal)             CV                S
                      KCal/Mol        Cal/Mol-Kelvin    Cal/Mol-Kelvin
 Total                  104.914             31.254             87.456
 Electronic               0.000              0.000              0.000
 Translational            0.889              2.981             40.409
 Rotational               0.889              2.981             28.567
 Vibrational            103.137             25.292             18.481
 Vibration     1          0.603              1.953              3.572
 Vibration     2          0.623              1.887              2.510
 Vibration     3          0.631              1.860              2.274
 Vibration     4          0.637              1.843              2.152
 Vibration     5          0.695              1.666              1.396
 Vibration     6          0.739              1.541              1.094
 Vibration     7          0.751              1.510              1.033
 Vibration     8          0.804              1.372              0.812
 Vibration     9          0.868              1.221              0.627
 Vibration    10          0.912              1.125              0.531

 Optimization completed.
    -- Stationary point found.
 Normal termination of Gaussian 09 at Tue Jan 28 02:46:51 2020.
