 Gaussian 09, Revision D.01,
 Gaussian 09:  ES64L-G09RevD.01 24-Apr-2013

 -----------------------------
 # b3lyp 6-31G(2df,p) opt Freq
 -----------------------------

 -----
 titel
 -----
 Symbolic Z-matrix:
 Charge =  0 Multiplicity = 1

 SCF Done:  E(RB3LYP) =  -423.202135679     A.U. after   14 cycles
 Optimization completed.
    -- Stationary point found.
 Normal termination of Gaussian 09 at Mon Jan 27 16:27:13 2020.

 ----------------------------------------------------------------------
 #N Geom=AllCheck Guess=TCheck SCRF=Check GenChk RB3LYP/6-31G(2df,p) Fr
 eq
 ----------------------------------------------------------------------

 Structure from the checkpoint file:  "/scratch/puck/g09_686a528f-33ce-4bb9-a009-a83bff897b7a/Gau-69870.chk"
 -----
 titel
 -----
 Charge =  0 Multiplicity = 1

                         Standard orientation:
 ---------------------------------------------------------------------
 Center     Atomic      Atomic             Coordinates (Angstroms)
 Number     Number       Type             X           Y           Z
 ---------------------------------------------------------------------
      1          6           0       -2.204864    1.109460   -0.384728
      2          6           0       -1.131152    0.073950   -0.106444
      3          6           0       -1.257170   -0.763770    1.146606
      4          6           0       -1.503503   -1.385977   -0.208183
      5          6           0        0.248042    0.493021   -0.573543
      6          6           0        1.036685    1.536961    0.248709
      7          8           0        2.116754    0.568079    0.457974
      8          6           0        1.443430   -0.405907   -0.230454
      9          8           0        1.782307   -1.531681   -0.415065
     10          1           0       -3.181579    0.764425   -0.032747
     11          1           0       -1.989107    2.059671    0.118836
     12          1           0       -2.289920    1.313748   -1.458706
     13          1           0       -0.357589   -1.057185    1.677260
     14          1           0       -2.108791   -0.575504    1.791372
     15          1           0       -0.755474   -2.076808   -0.579599
     16          1           0       -2.524549   -1.624189   -0.486624
     17          1           0        0.232031    0.724146   -1.644484
     18          1           0        1.405831    2.415178   -0.283742
     19          1           0        0.587853    1.818902    1.203379
 ---------------------------------------------------------------------

 SCF Done:  E(RB3LYP) =  -423.202135679     A.U. after    1 cycles

 The electronic state is 1-A.
 Alpha  occ. eigenvalues --  -19.18231 -19.13665 -10.30862 -10.25360 -10.21568
 Alpha  occ. eigenvalues --  -10.21353 -10.19062 -10.18991 -10.18730  -1.10706
 Alpha  occ. eigenvalues --   -1.03372  -0.87708  -0.77166  -0.72030  -0.67830
 Alpha  occ. eigenvalues --   -0.60766  -0.58303  -0.53026  -0.51639  -0.50724
 Alpha  occ. eigenvalues --   -0.48117  -0.46549  -0.43253  -0.42325  -0.40680
 Alpha  occ. eigenvalues --   -0.40098  -0.38730  -0.37612  -0.36521  -0.35158
 Alpha  occ. eigenvalues --   -0.30270  -0.29661  -0.28142  -0.27314
 Alpha virt. eigenvalues --    0.00811   0.07760   0.08848   0.10511   0.10696
 Alpha virt. eigenvalues --    0.11803   0.12473   0.13996   0.14967   0.15124
 Alpha virt. eigenvalues --    0.17607   0.17818   0.19756   0.19998   0.22464

 Mulliken charges:
               1
     1  C   -0.461429
     2  C    0.340077
     3  C   -0.312936
     4  C   -0.303561
     5  C   -0.268625
     6  C   -0.096282
     7  O   -0.241109
     8  C    0.456586
     9  O   -0.330837
    10  H    0.120979
    11  H    0.115934
    12  H    0.118762
    13  H    0.129541
    14  H    0.110833
    15  H    0.146219
    16  H    0.109838
    17  H    0.112777
    18  H    0.125152
    19  H    0.128081
 Sum of Mulliken charges =   0.00000

 Dipole moment (field-independent basis, Debye):
    X=             -2.7115    Y=              2.8260    Z=             -0.2354  Tot=              3.9235
 Quadrupole moment (field-independent basis, Debye-Ang):
   XX=            -58.2158   YY=            -54.4894   ZZ=            -52.0775
   XY=              4.1014   XZ=             -0.8572   YZ=             -1.1646

  Exact polarizability:  77.685  -0.038  80.930   0.446   1.253  64.792
 Approx polarizability: 104.660  -1.930 124.775   1.712   5.555 101.198

                      1                      2                      3
                      A                      A                      A
 Frequencies --     66.2188               123.4299               149.7220
 Red. masses --      3.9364                 4.5981                 4.9623
 Frc consts  --      0.0102                 0.0413                 0.0655
 IR Inten    --      1.2465                 1.2753                 4.6807

                      4                      5                      6
                      A                      A                      A
 Frequencies --    220.8309               250.5980               297.5798
 Red. masses --      1.1519                 2.0876                 3.1792
 Frc consts  --      0.0331                 0.0772                 0.1659
 IR Inten    --      0.0134                 0.1179                 0.3403

                      7                      8                      9
                      A                      A                      A
 Frequencies --    328.8882               371.8689               469.4751
 Red. masses --      2.1748                 2.5868                 3.0198
 Frc consts  --      0.1386                 0.2108                 0.3922
 IR Inten    --      0.4833                 2.4989                 1.8741

                     10                     11                     12
                      A                      A                      A
 Frequencies --    524.3888               631.2819               738.7021
 Red. masses --      4.2289                 4.3754                 3.2671
 Frc consts  --      0.6851                 1.0274                 1.0504
 IR Inten    --      1.8416                 3.1643                 3.6259

                     13                     14                     15
                      A                      A                      A
 Frequencies --    771.6797               796.4998               870.6039
 Red. masses --      4.6571                 1.0825                 2.2300
 Frc consts  --      1.6339                 0.4046                 0.9959
 IR Inten    --      2.4707                 0.7275                 1.5466

                     16                     17                     18
                      A                      A                      A
 Frequencies --    877.7083               926.7392               935.7327
 Red. masses --      2.5231                 4.1007                 1.3177
 Frc consts  --      1.1452                 2.0750                 0.6798
 IR Inten    --      3.2303                12.3938                 0.4315

                     19                     20                     21
                      A                      A                      A
 Frequencies --    956.1767               964.3746              1047.2396
 Red. masses --      1.7785                 4.8319                 1.3967
 Frc consts  --      0.9581                 2.6476                 0.9025
 IR Inten    --      2.7576                70.7945                 3.9116

                     22                     23                     24
                      A                      A                      A
 Frequencies --   1060.8369              1069.7640              1078.6277
 Red. masses --      1.6129                 1.8849                 2.1206
 Frc consts  --      1.0694                 1.2709                 1.4536
 IR Inten    --      8.6871                 3.0616                 5.4357

                     25                     26                     27
                      A                      A                      A
 Frequencies --   1095.2530              1123.6209              1135.7141
 Red. masses --      1.4186                 3.0500                 2.1749
 Frc consts  --      1.0026                 2.2688                 1.6528
 IR Inten    --      1.3254               121.5498                13.5902

                     28                     29                     30
                      A                      A                      A
 Frequencies --   1164.0647              1192.5668              1213.8082
 Red. masses --      1.1218                 1.3009                 1.4435
 Frc consts  --      0.8956                 1.0901                 1.2531
 IR Inten    --      1.8226                 0.2683                 4.2690

                     31                     32                     33
                      A                      A                      A
 Frequencies --   1267.9325              1339.4072              1349.7909
 Red. masses --      1.6726                 1.7336                 2.7177
 Frc consts  --      1.5843                 1.8324                 2.9173
 IR Inten    --      6.6287                12.9491                 1.7273

                     34                     35                     36
                      A                      A                      A
 Frequencies --   1368.4404              1419.7137              1469.7329
 Red. masses --      2.1997                 1.2901                 1.0845
 Frc consts  --      2.4270                 1.5321                 1.3802
 IR Inten    --     13.2027                 2.8770                 5.5585

                     37                     38                     39
                      A                      A                      A
 Frequencies --   1491.3317              1497.3680              1510.0064
 Red. masses --      1.0468                 1.0666                 1.2680
 Frc consts  --      1.3716                 1.4090                 1.7035
 IR Inten    --      2.2693                 5.8419                 2.7991

                     40                     41                     42
                      A                      A                      A
 Frequencies --   1516.1655              1924.3236              3020.0816
 Red. masses --      1.1535                12.6859                 1.0366
 Frc consts  --      1.5623                27.6776                 5.5703
 IR Inten    --      1.8995               348.3698                29.3824

                     43                     44                     45
                      A                      A                      A
 Frequencies --   3053.8188              3074.3908              3078.1796
 Red. masses --      1.0836                 1.0584                 1.0980
 Frc consts  --      5.9538                 5.8941                 6.1297
 IR Inten    --     10.1673                20.4906                33.1815

                     46                     47                     48
                      A                      A                      A
 Frequencies --   3103.2005              3132.8010              3137.0848
 Red. masses --      1.0998                 1.0522                 1.0594
 Frc consts  --      6.2399                 6.0845                 6.1428
 IR Inten    --     21.0482                11.0683                 7.6642

                     49                     50                     51
                      A                      A                      A
 Frequencies --   3137.5007              3213.6433              3230.4441
 Red. masses --      1.1114                 1.1175                 1.1161
 Frc consts  --      6.4461                 6.7999                 6.8624
 IR Inten    --     24.5696                 4.3416                 6.5980

 - Thermochemistry -
 -------------------
 Temperature   298.150 Kelvin.  Pressure   1.00000 Atm.
 Atom     1 has atomic number  6 and mass  12.00000

 Molecular mass:   126.06808 amu.
 Principal axes and moments of inertia in atomic units:
                           1         2         3
     Eigenvalues --   672.107041271.773481639.11301
           X            0.99993   0.01201   0.00131
           Y           -0.01198   0.99971  -0.02100
           Z           -0.00156   0.02099   0.99978
 This molecule is an asymmetric top.
 Rotational symmetry number  1.
 Warning -- assumption of classical behavior for rotation
           may cause significant error
 Rotational temperatures (Kelvin)      0.12887     0.06810     0.05284
 Rotational constants (GHZ):           2.68520     1.41907     1.10105
 Zero-point vibrational energy     417433.0 (Joules/Mol)
                                   99.76889 (Kcal/Mol)
 Warning -- explicit consideration of  10 degrees of freedom as
           vibrations may cause significant error
 Vibrational temperatures:     95.27   177.59   215.42   317.73   360.55
          (Kelvin)            428.15   473.20   535.04   675.47   754.48
                              908.27  1062.83  1110.27  1145.98  1252.60
                             1262.82  1333.37  1346.31  1375.72  1387.52
                             1506.74  1526.31  1539.15  1551.90  1575.82
                             1616.64  1634.04  1674.83  1715.84  1746.40
                             1824.27  1927.11  1942.05  1968.88  2042.65
                             2114.62  2145.69  2154.38  2172.56  2181.42
                             2768.67  4345.22  4393.76  4423.36  4428.81
                             4464.81  4507.40  4513.56  4514.16  4623.71
                             4647.88

 Zero-point correction=                           0.158992 (Hartree/Particle)
 Thermal correction to Energy=                    0.167594
 Thermal correction to Enthalpy=                  0.168538
 Thermal correction to Gibbs Free Energy=         0.125512
 Sum of electronic and zero-point Energies=           -423.043144
 Sum of electronic and thermal Energies=              -423.034542
 Sum of electronic and thermal Enthalpies=            -423.033598
 Sum of electronic and thermal Free Energies=         -423.076623

                     E (Thermal)             CV                S
                      KCal/Mol        Cal/Mol-Kelvin    Cal/Mol-Kelvin
 Total                  105.167             32.302             90.555
 Electronic               0.000              0.000              0.000
 Translational            0.889              2.981             40.409
 Rotational               0.889              2.981             28.729
 Vibrational            103.389             26.340             21.418
 Vibration     1          0.598              1.970              4.263
 Vibration     2          0.610              1.929              3.046
 Vibration     3          0.618              1.903              2.676
 Vibration     4          0.648              1.809              1.952
 Vibration     5          0.663              1.762              1.726
 Vibration     6          0.691              1.678              1.430
 Vibration     7          0.712              1.618              1.266
 Vibration     8          0.744              1.530              1.072
 Vibration     9          0.827              1.318              0.739
 Vibration    10          0.879              1.196              0.600

 Optimization completed.
    -- Stationary point found.
 Normal termination of Gaussian 09 at Mon Jan 27 17:20:03 2020.
