 Gaussian 09, Revision D.01,
 Gaussian 09:  ES64L-G09RevD.01 24-Apr-2013

 -----------------------------
 # b3lyp 6-31G(2df,p) opt Freq
 -----------------------------

 -----
 titel
 -----
 Symbolic Z-matrix:
 Charge =  0 Multiplicity = 1

 SCF Done:  E(RB3LYP) =  -423.132088002     A.U. after   12 cycles
 Optimization completed.
    -- Stationary point found.
 Normal termination of Gaussian 09 at Tue Jan 28 08:13:49 2020.

 ----------------------------------------------------------------------
 #N Geom=AllCheck Guess=TCheck SCRF=Check GenChk RB3LYP/6-31G(2df,p) Fr
 eq
 ----------------------------------------------------------------------

 Structure from the checkpoint file:  "/scratch/puck/g09_bd7789af-5999-40c0-a728-24bdd5a1f39e/Gau-106323.chk"
 -----
 titel
 -----
 Charge =  0 Multiplicity = 1

                         Standard orientation:
 ---------------------------------------------------------------------
 Center     Atomic      Atomic             Coordinates (Angstroms)
 Number     Number       Type             X           Y           Z
 ---------------------------------------------------------------------
      1          6           0       -1.858604    1.296876    0.193938
      2          6           0       -1.190528    0.181671   -0.605062
      3          8           0       -1.372932   -1.120857   -0.003734
      4          6           0       -0.280663   -1.410339    0.892990
      5          6           0        0.905284   -0.673649    0.323474
      6          6           0        1.186745   -0.784091   -1.164482
      7          6           0        0.316862    0.315823   -0.661186
      8          8           0        1.061544    1.430396   -0.147539
      9          6           0        1.607396    0.565762    0.891920
     10          1           0       -1.728599    2.259950   -0.308246
     11          1           0       -2.927082    1.088457    0.289549
     12          1           0       -1.428908    1.383671    1.195811
     13          1           0       -1.655986    0.101018   -1.593544
     14          1           0       -0.491573   -1.056988    1.913961
     15          1           0       -0.192711   -2.500681    0.919364
     16          1           0        2.176205   -0.537252   -1.534783
     17          1           0        0.682923   -1.598828   -1.673025
     18          1           0        2.703031    0.572278    0.891369
     19          1           0        1.234850    0.859733    1.880178
 ---------------------------------------------------------------------

 SCF Done:  E(RB3LYP) =  -423.132088002     A.U. after    1 cycles

 The electronic state is 1-A.
 Alpha  occ. eigenvalues --  -19.14552 -19.13812 -10.24530 -10.23978 -10.23951
 Alpha  occ. eigenvalues --  -10.23559 -10.20026 -10.19693 -10.17554  -1.06196
 Alpha  occ. eigenvalues --   -1.02389  -0.84550  -0.77098  -0.70931  -0.68013
 Alpha  occ. eigenvalues --   -0.63779  -0.58095  -0.52436  -0.51488  -0.49274
 Alpha  occ. eigenvalues --   -0.45982  -0.45084  -0.44197  -0.41648  -0.40787
 Alpha  occ. eigenvalues --   -0.39939  -0.39390  -0.36763  -0.34666  -0.32298
 Alpha  occ. eigenvalues --   -0.31849  -0.26631  -0.26056  -0.23328
 Alpha virt. eigenvalues --    0.05275   0.08260   0.09538   0.11941   0.12807
 Alpha virt. eigenvalues --    0.13585   0.14257   0.14839   0.15703   0.16762
 Alpha virt. eigenvalues --    0.17450   0.18107   0.18808   0.20120   0.20452

 Mulliken charges:
               1
     1  C   -0.394111
     2  C    0.040106
     3  O   -0.280656
     4  C   -0.155182
     5  C    0.113393
     6  C   -0.374705
     7  C    0.367823
     8  O   -0.325041
     9  C   -0.138544
    10  H    0.128777
    11  H    0.121789
    12  H    0.119167
    13  H    0.087995
    14  H    0.095481
    15  H    0.113090
    16  H    0.123161
    17  H    0.135938
    18  H    0.111093
    19  H    0.110425
 Sum of Mulliken charges =   0.00000

 Dipole moment (field-independent basis, Debye):
    X=              0.6592    Y=             -0.4871    Z=              0.6416  Tot=              1.0409
 Quadrupole moment (field-independent basis, Debye-Ang):
   XX=            -53.3645   YY=            -56.4547   ZZ=            -50.2433
   XY=             -3.8626   XZ=              1.2986   YZ=              0.6870

  Exact polarizability:  77.410  -2.068  71.312   1.278   1.302  71.479
 Approx polarizability: 106.803  -0.843 109.155   4.981  -2.321 110.759

                      1                      2                      3
                      A                      A                      A
 Frequencies --    130.7669               182.3863               203.6507
 Red. masses --      3.2420                 2.7428                 1.0365
 Frc consts  --      0.0327                 0.0538                 0.0253
 IR Inten    --      3.7171                 2.3084                 0.3130

                      4                      5                      6
                      A                      A                      A
 Frequencies --    278.9213               333.5630               373.8288
 Red. masses --      2.9167                 2.1661                 2.7696
 Frc consts  --      0.1337                 0.1420                 0.2280
 IR Inten    --      2.6654                 3.5247                 6.6129

                      7                      8                      9
                      A                      A                      A
 Frequencies --    431.6693               464.1570               556.4436
 Red. masses --      2.7002                 3.5474                 3.8950
 Frc consts  --      0.2965                 0.4503                 0.7106
 IR Inten    --      5.6386                 2.0120                 8.9986

                     10                     11                     12
                      A                      A                      A
 Frequencies --    650.4031               656.1678               772.5600
 Red. masses --      3.8520                 4.0493                 3.6665
 Frc consts  --      0.9601                 1.0272                 1.2893
 IR Inten    --      2.4668                 0.3136                 1.5098

                     13                     14                     15
                      A                      A                      A
 Frequencies --    798.5412               845.7059               864.6937
 Red. masses --      2.8480                 3.1390                 3.8874
 Frc consts  --      1.0700                 1.3228                 1.7125
 IR Inten    --      3.2496                31.9259                12.7144

                     16                     17                     18
                      A                      A                      A
 Frequencies --    927.5325               932.9126               964.4382
 Red. masses --      1.9075                 1.8642                 3.6936
 Frc consts  --      0.9669                 0.9559                 2.0242
 IR Inten    --      6.0640                15.4659                17.2034

                     19                     20                     21
                      A                      A                      A
 Frequencies --    975.3670               994.9132              1003.1655
 Red. masses --      2.2054                 2.4167                 2.3539
 Frc consts  --      1.2362                 1.4094                 1.3957
 IR Inten    --     13.6197                36.5023                12.7636

                     22                     23                     24
                      A                      A                      A
 Frequencies --   1051.3461              1068.7431              1074.4990
 Red. masses --      1.4990                 1.5627                 2.4400
 Frc consts  --      0.9762                 1.0517                 1.6598
 IR Inten    --     20.7541                29.9854                42.3922

                     25                     26                     27
                      A                      A                      A
 Frequencies --   1116.9078              1154.2954              1170.1691
 Red. masses --      2.2737                 1.3068                 1.8544
 Frc consts  --      1.6711                 1.0259                 1.4961
 IR Inten    --     13.6533                 2.2223                 8.0129

                     28                     29                     30
                      A                      A                      A
 Frequencies --   1223.2259              1251.3494              1282.5647
 Red. masses --      1.4971                 1.8799                 2.0323
 Frc consts  --      1.3199                 1.7344                 1.9697
 IR Inten    --     10.9052                 9.3802                10.2452

                     31                     32                     33
                      A                      A                      A
 Frequencies --   1306.7286              1343.9147              1356.2084
 Red. masses --      1.4955                 1.8401                 1.4197
 Frc consts  --      1.5046                 1.9581                 1.5385
 IR Inten    --      8.4533                 0.2363                 4.7977

                     34                     35                     36
                      A                      A                      A
 Frequencies --   1375.0936              1389.2915              1405.7698
 Red. masses --      1.8687                 1.5611                 1.2868
 Frc consts  --      2.0819                 1.7753                 1.4983
 IR Inten    --     12.5902                 1.9933                 8.5066

                     37                     38                     39
                      A                      A                      A
 Frequencies --   1465.0918              1482.2609              1490.1689
 Red. masses --      1.4317                 1.0609                 1.0501
 Frc consts  --      1.8106                 1.3733                 1.3739
 IR Inten    --      6.7502                 2.9608                 2.7944

                     40                     41                     42
                      A                      A                      A
 Frequencies --   1509.4128              1519.1638              2988.1699
 Red. masses --      1.0998                 1.0966                 1.0695
 Frc consts  --      1.4763                 1.4912                 5.6265
 IR Inten    --      0.1198                 0.6708                54.2770

                     43                     44                     45
                      A                      A                      A
 Frequencies --   3023.0870              3046.3005              3047.3217
 Red. masses --      1.0548                 1.0831                 1.0368
 Frc consts  --      5.6799                 5.9217                 5.6726
 IR Inten    --     74.3988                26.9870                13.7804

                     46                     47                     48
                      A                      A                      A
 Frequencies --   3074.1387              3076.6902              3120.2749
 Red. masses --      1.1015                 1.1041                 1.1011
 Frc consts  --      6.1329                 6.1578                 6.3162
 IR Inten    --     38.1541                40.1611                23.3471

                     49                     50                     51
                      A                      A                      A
 Frequencies --   3128.2937              3132.1049              3228.0713
 Red. masses --      1.1030                 1.0543                 1.1179
 Frc consts  --      6.3596                 6.0939                 6.8634
 IR Inten    --     19.8619                 7.5445                 2.7187

 - Thermochemistry -
 -------------------
 Temperature   298.150 Kelvin.  Pressure   1.00000 Atm.
 Atom     1 has atomic number  6 and mass  12.00000

 Molecular mass:   126.06808 amu.
 Principal axes and moments of inertia in atomic units:
                           1         2         3
     Eigenvalues --   711.18293 941.354751186.52123
           X            0.99252  -0.12198  -0.00417
           Y            0.12205   0.99191   0.03504
           Z           -0.00013  -0.03529   0.99938
 This molecule is an asymmetric top.
 Rotational symmetry number  1.
 Warning -- assumption of classical behavior for rotation
           may cause significant error
 Rotational temperatures (Kelvin)      0.12179     0.09201     0.07300
 Rotational constants (GHZ):           2.53766     1.91717     1.52104
 Zero-point vibrational energy     420143.1 (Joules/Mol)
                                  100.41662 (Kcal/Mol)
 Warning -- explicit consideration of   9 degrees of freedom as
           vibrations may cause significant error
 Vibrational temperatures:    188.14   262.41   293.01   401.31   479.92
          (Kelvin)            537.86   621.08   667.82   800.60   935.78
                              944.08  1111.54  1148.92  1216.78  1244.10
                             1334.51  1342.25  1387.61  1403.33  1431.46
                             1443.33  1512.65  1537.68  1545.96  1606.98
                             1660.77  1683.61  1759.95  1800.41  1845.32
                             1880.09  1933.59  1951.28  1978.45  1998.88
                             2022.59  2107.94  2132.64  2144.02  2171.71
                             2185.74  4299.30  4349.54  4382.94  4384.41
                             4422.99  4426.67  4489.37  4500.91  4506.39
                             4644.47

 Zero-point correction=                           0.160024 (Hartree/Particle)
 Thermal correction to Energy=                    0.167637
 Thermal correction to Enthalpy=                  0.168581
 Thermal correction to Gibbs Free Energy=         0.128333
 Sum of electronic and zero-point Energies=           -422.972064
 Sum of electronic and thermal Energies=              -422.964451
 Sum of electronic and thermal Enthalpies=            -422.963507
 Sum of electronic and thermal Free Energies=         -423.003755

                     E (Thermal)             CV                S
                      KCal/Mol        Cal/Mol-Kelvin    Cal/Mol-Kelvin
 Total                  105.194             30.399             84.709
 Electronic               0.000              0.000              0.000
 Translational            0.889              2.981             40.409
 Rotational               0.889              2.981             28.165
 Vibrational            103.417             24.438             16.136
 Vibration     1          0.612              1.923              2.935
 Vibration     2          0.630              1.864              2.304
 Vibration     3          0.639              1.835              2.100
 Vibration     4          0.679              1.713              1.540
 Vibration     5          0.715              1.608              1.243
 Vibration     6          0.745              1.526              1.064
 Vibration     7          0.793              1.401              0.853
 Vibration     8          0.822              1.330              0.754
 Vibration     9          0.912              1.126              0.531

 Optimization completed.
    -- Stationary point found.
 Normal termination of Gaussian 09 at Tue Jan 28 09:06:36 2020.
