 Gaussian 09, Revision D.01,
 Gaussian 09:  ES64L-G09RevD.01 24-Apr-2013

 -----------------------------
 # b3lyp 6-31G(2df,p) opt Freq
 -----------------------------

 -----
 titel
 -----
 Symbolic Z-matrix:
 Charge =  0 Multiplicity = 1

 SCF Done:  E(RB3LYP) =  -423.210103778     A.U. after   14 cycles
 Optimization completed.
    -- Stationary point found.
 Normal termination of Gaussian 09 at Mon Jan 27 13:12:19 2020.

 ----------------------------------------------------------------------
 #N Geom=AllCheck Guess=TCheck SCRF=Check GenChk RB3LYP/6-31G(2df,p) Fr
 eq
 ----------------------------------------------------------------------

 Structure from the checkpoint file:  "/scratch/puck/g09_2c66e2b3-1287-4281-a987-f5d0a46e5320/Gau-168277.chk"
 -----
 titel
 -----
 Charge =  0 Multiplicity = 1

                         Standard orientation:
 ---------------------------------------------------------------------
 Center     Atomic      Atomic             Coordinates (Angstroms)
 Number     Number       Type             X           Y           Z
 ---------------------------------------------------------------------
      1          8           0       -2.856404   -0.239622   -0.089278
      2          6           0       -1.948113    0.488478    0.225941
      3          6           0       -0.494266    0.186572    0.029883
      4          6           0        0.304923    1.308558   -0.693481
      5          6           0        1.787213    0.947073   -0.352621
      6          6           0        1.614476   -0.299236    0.535100
      7          6           0        0.343257    0.027089    1.331794
      8          8           0        1.209350   -1.396394   -0.292218
      9          6           0       -0.163268   -1.148537   -0.655341
     10          1           0       -2.146934    1.474367    0.708753
     11          1           0        0.102528    1.311961   -1.767522
     12          1           0        0.028820    2.293244   -0.302230
     13          1           0        2.375994    0.705281   -1.239694
     14          1           0        2.292724    1.757144    0.181756
     15          1           0        2.496343   -0.604571    1.099585
     16          1           0        0.009545   -0.799329    1.963338
     17          1           0        0.410855    0.946132    1.919911
     18          1           0       -0.258349   -1.093119   -1.745755
     19          1           0       -0.800419   -1.962970   -0.293832
 ---------------------------------------------------------------------

 SCF Done:  E(RB3LYP) =  -423.210103778     A.U. after    1 cycles

 The electronic state is 1-A.
 Alpha  occ. eigenvalues --  -19.14387 -19.13683 -10.27417 -10.23883 -10.22715
 Alpha  occ. eigenvalues --  -10.20924 -10.19998 -10.19830 -10.18968  -1.05089
 Alpha  occ. eigenvalues --   -1.03718  -0.84636  -0.76338  -0.72447  -0.65823
 Alpha  occ. eigenvalues --   -0.62420  -0.58256  -0.54618  -0.51789  -0.48873
 Alpha  occ. eigenvalues --   -0.47812  -0.44950  -0.42655  -0.41244  -0.39970
 Alpha  occ. eigenvalues --   -0.39486  -0.37972  -0.37830  -0.35944  -0.34685
 Alpha  occ. eigenvalues --   -0.33462  -0.30504  -0.25623  -0.24703
 Alpha virt. eigenvalues --   -0.02818   0.07416   0.09338   0.10995   0.13130
 Alpha virt. eigenvalues --    0.14055   0.14340   0.15018   0.15839   0.16083
 Alpha virt. eigenvalues --    0.16662   0.18092   0.19502   0.20251   0.21705

 Mulliken charges:
               1
     1  O   -0.253222
     2  C    0.064753
     3  C    0.198293
     4  C   -0.267741
     5  C   -0.219196
     6  C    0.106355
     7  C   -0.273411
     8  O   -0.282136
     9  C   -0.102570
    10  H    0.072456
    11  H    0.114558
    12  H    0.103520
    13  H    0.115261
    14  H    0.101043
    15  H    0.078566
    16  H    0.118037
    17  H    0.104617
    18  H    0.104702
    19  H    0.116116
 Sum of Mulliken charges =   0.00000

 Dipole moment (field-independent basis, Debye):
    X=              1.7331    Y=              2.3118    Z=              0.9021  Tot=              3.0268
 Quadrupole moment (field-independent basis, Debye-Ang):
   XX=            -61.9434   YY=            -54.0403   ZZ=            -50.7570
   XY=              0.3815   XZ=              0.3328   YZ=             -0.4411

  Exact polarizability:  84.666   3.759  72.202   1.992   2.113  67.185
 Approx polarizability: 120.736   8.169 109.954   5.482   5.909 101.838

                      1                      2                      3
                      A                      A                      A
 Frequencies --     77.4528               161.8333               215.1574
 Red. masses --      4.3847                 2.8776                 3.3556
 Frc consts  --      0.0155                 0.0444                 0.0915
 IR Inten    --      5.0448                 2.5866                 4.9866

                      4                      5                      6
                      A                      A                      A
 Frequencies --    278.8680               365.8773               410.3903
 Red. masses --      2.0401                 2.0887                 2.6898
 Frc consts  --      0.0935                 0.1647                 0.2669
 IR Inten    --      0.5569                 2.5879                 0.9343

                      7                      8                      9
                      A                      A                      A
 Frequencies --    424.6404               482.4351               581.5755
 Red. masses --      3.0088                 2.4602                 4.5899
 Frc consts  --      0.3197                 0.3374                 0.9147
 IR Inten    --      1.1806                 0.8622                 4.3673

                     10                     11                     12
                      A                      A                      A
 Frequencies --    706.5570               780.8051               789.5423
 Red. masses --      4.3073                 3.0200                 2.8815
 Frc consts  --      1.2669                 1.0848                 1.0583
 IR Inten    --     31.6740                 0.8144                 2.5045

                     13                     14                     15
                      A                      A                      A
 Frequencies --    818.6364               873.7042               895.0898
 Red. masses --      1.8503                 2.5221                 2.4280
 Frc consts  --      0.7306                 1.1344                 1.1461
 IR Inten    --      1.6940                12.5419                 2.2512

                     16                     17                     18
                      A                      A                      A
 Frequencies --    920.7420               954.4749               962.9588
 Red. masses --      3.0064                 2.4314                 1.9099
 Frc consts  --      1.5017                 1.3051                 1.0435
 IR Inten    --     23.3988                 3.8344                 1.5787

                     19                     20                     21
                      A                      A                      A
 Frequencies --    975.6023              1006.0747              1031.7033
 Red. masses --      1.6317                 1.9738                 2.7198
 Frc consts  --      0.9150                 1.1771                 1.7056
 IR Inten    --      5.3457                 3.7036                25.3508

                     22                     23                     24
                      A                      A                      A
 Frequencies --   1049.4227              1077.2529              1133.2107
 Red. masses --      2.1530                 1.5267                 1.9645
 Frc consts  --      1.3970                 1.0438                 1.4864
 IR Inten    --     22.8238                 3.5057                11.1514

                     25                     26                     27
                      A                      A                      A
 Frequencies --   1159.6128              1172.5154              1207.5710
 Red. masses --      1.9322                 1.3141                 1.7509
 Frc consts  --      1.5308                 1.0645                 1.5043
 IR Inten    --     27.2265                 8.7020                10.8318

                     28                     29                     30
                      A                      A                      A
 Frequencies --   1232.8912              1256.1760              1258.9603
 Red. masses --      1.5061                 1.4300                 1.2744
 Frc consts  --      1.3488                 1.3295                 1.1901
 IR Inten    --      1.5292                 1.0451                 2.2547

                     31                     32                     33
                      A                      A                      A
 Frequencies --   1293.7496              1306.9094              1320.5948
 Red. masses --      1.4914                 1.7355                 1.4954
 Frc consts  --      1.4708                 1.7464                 1.5366
 IR Inten    --     11.0989                 0.8958                 2.5549

                     34                     35                     36
                      A                      A                      A
 Frequencies --   1345.5938              1388.5493              1428.1570
 Red. masses --      1.5491                 1.5851                 1.2239
 Frc consts  --      1.6526                 1.8006                 1.4708
 IR Inten    --      5.4960                 9.5471                 4.5319

                     37                     38                     39
                      A                      A                      A
 Frequencies --   1477.2051              1485.9328              1503.7418
 Red. masses --      1.0874                 1.0983                 1.1008
 Frc consts  --      1.3980                 1.4288                 1.4666
 IR Inten    --      2.1492                 3.8310                 4.2863

                     40                     41                     42
                      A                      A                      A
 Frequencies --   1534.4506              1819.6642              2853.8282
 Red. masses --      1.0939                10.8352                 1.0817
 Frc consts  --      1.5175                21.1383                 5.1905
 IR Inten    --      0.3410               189.8251               110.5465

                     43                     44                     45
                      A                      A                      A
 Frequencies --   3031.4958              3046.5907              3059.7889
 Red. masses --      1.0569                 1.0624                 1.0623
 Frc consts  --      5.7229                 5.8098                 5.8596
 IR Inten    --     47.5115                24.9501                29.7932

                     46                     47                     48
                      A                      A                      A
 Frequencies --   3067.1138              3072.5528              3095.8288
 Red. masses --      1.0600                 1.1076                 1.1025
 Frc consts  --      5.8749                 6.1609                 6.2257
 IR Inten    --     13.1807                28.0084                 8.1649

                     49                     50                     51
                      A                      A                      A
 Frequencies --   3115.5117              3119.4275              3126.7379
 Red. masses --      1.0897                 1.1034                 1.1084
 Frc consts  --      6.2320                 6.3260                 6.3846
 IR Inten    --     37.2139                25.9853                21.6296

 - Thermochemistry -
 -------------------
 Temperature   298.150 Kelvin.  Pressure   1.00000 Atm.
 Atom     1 has atomic number  8 and mass  15.99491

 Molecular mass:   126.06808 amu.
 Principal axes and moments of inertia in atomic units:
                           1         2         3
     Eigenvalues --   570.721881264.497581431.30904
           X            0.99983   0.01840  -0.00007
           Y           -0.01840   0.99979  -0.00925
           Z           -0.00010   0.00925   0.99996
 This molecule is an asymmetric top.
 Rotational symmetry number  1.
 Warning -- assumption of classical behavior for rotation
           may cause significant error
 Rotational temperatures (Kelvin)      0.15176     0.06850     0.06051
 Rotational constants (GHZ):           3.16221     1.42724     1.26090
 Zero-point vibrational energy     423209.8 (Joules/Mol)
                                  101.14958 (Kcal/Mol)
 Warning -- explicit consideration of   9 degrees of freedom as
           vibrations may cause significant error
 Vibrational temperatures:    111.44   232.84   309.56   401.23   526.42
          (Kelvin)            590.46   610.96   694.12   836.76  1016.58
                             1123.40  1135.97  1177.83  1257.06  1287.83
                             1324.74  1373.27  1385.48  1403.67  1447.52
                             1484.39  1509.88  1549.92  1630.44  1668.42
                             1686.99  1737.42  1773.85  1807.35  1811.36
                             1861.41  1880.35  1900.04  1936.01  1997.81
                             2054.80  2125.37  2137.92  2163.55  2207.73
                             2618.09  4106.02  4361.64  4383.36  4402.35
                             4412.89  4420.71  4454.20  4482.52  4488.15
                             4498.67

 Zero-point correction=                           0.161192 (Hartree/Particle)
 Thermal correction to Energy=                    0.168710
 Thermal correction to Enthalpy=                  0.169654
 Thermal correction to Gibbs Free Energy=         0.129069
 Sum of electronic and zero-point Energies=           -423.048912
 Sum of electronic and thermal Energies=              -423.041394
 Sum of electronic and thermal Enthalpies=            -423.040450
 Sum of electronic and thermal Free Energies=         -423.081035

                     E (Thermal)             CV                S
                      KCal/Mol        Cal/Mol-Kelvin    Cal/Mol-Kelvin
 Total                  105.867             29.538             85.419
 Electronic               0.000              0.000              0.000
 Translational            0.889              2.981             40.409
 Rotational               0.889              2.981             28.426
 Vibrational            104.090             23.576             16.585
 Vibration     1          0.599              1.964              3.954
 Vibration     2          0.622              1.889              2.528
 Vibration     3          0.645              1.818              1.999
 Vibration     4          0.679              1.713              1.541
 Vibration     5          0.739              1.542              1.097
 Vibration     6          0.775              1.448              0.925
 Vibration     7          0.787              1.417              0.876
 Vibration     8          0.839              1.289              0.704
 Vibration     9          0.938              1.071              0.482

 Optimization completed.
    -- Stationary point found.
 Normal termination of Gaussian 09 at Mon Jan 27 13:55:57 2020.
