 Gaussian 09, Revision D.01,
 Gaussian 09:  ES64L-G09RevD.01 24-Apr-2013

 -----------------------------
 # b3lyp 6-31G(2df,p) opt Freq
 -----------------------------

 -----
 titel
 -----
 Symbolic Z-matrix:
 Charge =  0 Multiplicity = 1

 SCF Done:  E(RB3LYP) =  -423.215828875     A.U. after   14 cycles
 Optimization completed.
    -- Stationary point found.
 Normal termination of Gaussian 09 at Mon Jan 27 14:05:30 2020.

 ----------------------------------------------------------------------
 #N Geom=AllCheck Guess=TCheck SCRF=Check GenChk RB3LYP/6-31G(2df,p) Fr
 eq
 ----------------------------------------------------------------------

 Structure from the checkpoint file:  "/scratch/puck/g09_67fb887a-7b8d-4a6b-8236-5d17f7245357/Gau-31248.chk"
 -----
 titel
 -----
 Charge =  0 Multiplicity = 1

                         Standard orientation:
 ---------------------------------------------------------------------
 Center     Atomic      Atomic             Coordinates (Angstroms)
 Number     Number       Type             X           Y           Z
 ---------------------------------------------------------------------
      1          6           0       -2.595544   -0.343027    0.282071
      2          6           0       -1.346025    0.487248    0.079770
      3          8           0       -1.348433    1.692179    0.174929
      4          6           0       -0.038122   -0.279999   -0.219838
      5          8           0       -0.427446   -1.484010   -0.890437
      6          6           0        0.989720    0.576932   -1.008137
      7          6           0        2.342862    0.451069   -0.263677
      8          6           0        1.972315   -0.222943    1.031382
      9          6           0        0.693087   -0.592375    1.073895
     10          1           0       -3.401749    0.297908    0.640437
     11          1           0       -2.877806   -0.811362   -0.665636
     12          1           0       -2.414238   -1.163459    0.983123
     13          1           0        0.322310   -2.087165   -0.851352
     14          1           0        1.033823    0.233699   -2.044004
     15          1           0        0.648342    1.613378   -1.004405
     16          1           0        3.084602   -0.141756   -0.815378
     17          1           0        2.807867    1.428865   -0.093486
     18          1           0        2.690127   -0.390634    1.827968
     19          1           0        0.203997   -1.106243    1.894003
 ---------------------------------------------------------------------

 SCF Done:  E(RB3LYP) =  -423.215828875     A.U. after    1 cycles

 The electronic state is 1-A.
 Alpha  occ. eigenvalues --  -19.14355 -19.12705 -10.26487 -10.24336 -10.19625
 Alpha  occ. eigenvalues --  -10.19102 -10.18877 -10.18021 -10.17770  -1.04152
 Alpha  occ. eigenvalues --   -1.02299  -0.84103  -0.74747  -0.71746  -0.70339
 Alpha  occ. eigenvalues --   -0.60370  -0.55827  -0.52224  -0.51258  -0.48045
 Alpha  occ. eigenvalues --   -0.45672  -0.43693  -0.43090  -0.41687  -0.39101
 Alpha  occ. eigenvalues --   -0.38246  -0.37856  -0.36526  -0.35263  -0.34204
 Alpha  occ. eigenvalues --   -0.33615  -0.27638  -0.26456  -0.23854
 Alpha virt. eigenvalues --   -0.02080   0.02026   0.08178   0.11046   0.11406
 Alpha virt. eigenvalues --    0.12537   0.14523   0.15543   0.15958   0.17154
 Alpha virt. eigenvalues --    0.17827   0.18867   0.19984   0.21552   0.23818

 Mulliken charges:
               1
     1  C   -0.471901
     2  C    0.364642
     3  O   -0.307606
     4  C    0.258615
     5  O   -0.475229
     6  C   -0.275310
     7  C   -0.268485
     8  C   -0.059914
     9  C   -0.140916
    10  H    0.131579
    11  H    0.158493
    12  H    0.135646
    13  H    0.276468
    14  H    0.105786
    15  H    0.137942
    16  H    0.107790
    17  H    0.118801
    18  H    0.102964
    19  H    0.100635
 Sum of Mulliken charges =   0.00000

 Dipole moment (field-independent basis, Debye):
    X=              1.7654    Y=             -2.2902    Z=              0.3602  Tot=              2.9140
 Quadrupole moment (field-independent basis, Debye-Ang):
   XX=            -49.3290   YY=            -56.4136   ZZ=            -52.1884
   XY=              1.6568   XZ=             -0.6740   YZ=             -1.6615

  Exact polarizability:  96.478   5.058  69.847  -0.463  -2.631  66.274
 Approx polarizability: 132.813   8.814 114.912   0.476  -0.984  98.273

                      1                      2                      3
                      A                      A                      A
 Frequencies --     48.9420                64.3249               156.8316
 Red. masses --      2.9085                 3.3585                 1.0454
 Frc consts  --      0.0041                 0.0082                 0.0151
 IR Inten    --      1.1274                 2.9469                 0.0275

                      4                      5                      6
                      A                      A                      A
 Frequencies --    184.5529               262.1591               278.0970
 Red. masses --      3.2274                 2.9292                 1.7869
 Frc consts  --      0.0648                 0.1186                 0.0814
 IR Inten    --      0.1247                 9.4630                27.3291

                      7                      8                      9
                      A                      A                      A
 Frequencies --    322.4078               351.6440               411.4709
 Red. masses --      1.4655                 3.3744                 3.7860
 Frc consts  --      0.0898                 0.2458                 0.3777
 IR Inten    --     45.3045                 2.1890                 6.7006

                     10                     11                     12
                      A                      A                      A
 Frequencies --    456.5089               550.8117               588.4270
 Red. masses --      3.4542                 3.2247                 2.5612
 Frc consts  --      0.4241                 0.5764                 0.5225
 IR Inten    --      2.3336                 3.1153                 7.5681

                     13                     14                     15
                      A                      A                      A
 Frequencies --    612.2340               738.6998               757.5735
 Red. masses --      3.0335                 1.9249                 2.8835
 Frc consts  --      0.6699                 0.6189                 0.9750
 IR Inten    --     13.7969                10.9684                 6.3888

                     16                     17                     18
                      A                      A                      A
 Frequencies --    795.1837               823.5886               908.1937
 Red. masses --      3.0601                 1.6722                 2.6640
 Frc consts  --      1.1400                 0.6683                 1.2946
 IR Inten    --      3.6994                20.6887                 6.7072

                     19                     20                     21
                      A                      A                      A
 Frequencies --    929.6078               964.0535               977.4627
 Red. masses --      2.4770                 1.9180                 1.3269
 Frc consts  --      1.2612                 1.0503                 0.7470
 IR Inten    --      4.0626                41.9994                 7.0286

                     22                     23                     24
                      A                      A                      A
 Frequencies --    999.3964              1009.3745              1042.0629
 Red. masses --      2.2582                 2.0354                 1.8788
 Frc consts  --      1.3289                 1.2218                 1.2021
 IR Inten    --      5.8775                 0.5579                12.0090

                     25                     26                     27
                      A                      A                      A
 Frequencies --   1092.6826              1115.5957              1158.6811
 Red. masses --      1.9438                 2.0015                 1.7427
 Frc consts  --      1.3673                 1.4676                 1.3785
 IR Inten    --     52.8872                 3.1066                35.2984

                     28                     29                     30
                      A                      A                      A
 Frequencies --   1186.2915              1208.7473              1247.7845
 Red. masses --      1.3546                 2.6201                 1.3250
 Frc consts  --      1.1232                 2.2555                 1.2155
 IR Inten    --     29.0957                81.6367                12.5714

                     31                     32                     33
                      A                      A                      A
 Frequencies --   1288.1304              1317.9495              1363.6994
 Red. masses --      1.3102                 1.4839                 1.6449
 Frc consts  --      1.2808                 1.5186                 1.8023
 IR Inten    --     14.6712                 0.4835                 9.3045

                     34                     35                     36
                      A                      A                      A
 Frequencies --   1376.8539              1384.7212              1455.4915
 Red. masses --      1.4227                 1.5464                 1.0544
 Frc consts  --      1.5890                 1.7471                 1.3160
 IR Inten    --     49.0841                13.9626                12.4937

                     37                     38                     39
                      A                      A                      A
 Frequencies --   1467.3849              1474.1781              1493.0815
 Red. masses --      1.0551                 1.0787                 1.0976
 Frc consts  --      1.3386                 1.3812                 1.4416
 IR Inten    --      8.5231                 1.3265                 6.0628

                     40                     41                     42
                      A                      A                      A
 Frequencies --   1676.7087              1812.6339              3020.6744
 Red. masses --      6.4330                11.3521                 1.0665
 Frc consts  --     10.6556                21.9759                 5.7335
 IR Inten    --      5.3998               118.8054                36.2355

                     43                     44                     45
                      A                      A                      A
 Frequencies --   3050.4961              3056.3381              3079.1607
 Red. masses --      1.0348                 1.0951                 1.0604
 Frc consts  --      5.6732                 6.0269                 5.9238
 IR Inten    --      2.2040                15.8688                17.4800

                     46                     47                     48
                      A                      A                      A
 Frequencies --   3114.3257              3132.5421              3156.4355
 Red. masses --      1.0971                 1.1046                 1.1049
 Frc consts  --      6.2696                 6.3862                 6.4858
 IR Inten    --      4.8232                 6.1446                13.3962

                     49                     50                     51
                      A                      A                      A
 Frequencies --   3178.5618              3205.0981              3809.2371
 Red. masses --      1.0846                 1.1035                 1.0664
 Frc consts  --      6.4562                 6.6787                 9.1167
 IR Inten    --      6.2872                15.3563                18.1781

 - Thermochemistry -
 -------------------
 Temperature   298.150 Kelvin.  Pressure   1.00000 Atm.
 Atom     1 has atomic number  6 and mass  12.00000

 Molecular mass:   126.06808 amu.
 Principal axes and moments of inertia in atomic units:
                           1         2         3
     Eigenvalues --   641.676931381.203441526.44463
           X            0.99937   0.03208  -0.01508
           Y           -0.03330   0.99547  -0.08905
           Z            0.01215   0.08950   0.99591
 This molecule is an asymmetric top.
 Rotational symmetry number  1.
 Warning -- assumption of classical behavior for rotation
           may cause significant error
 Rotational temperatures (Kelvin)      0.13498     0.06271     0.05674
 Rotational constants (GHZ):           2.81254     1.30664     1.18232
 Zero-point vibrational energy     413651.3 (Joules/Mol)
                                   98.86503 (Kcal/Mol)
 Warning -- explicit consideration of  13 degrees of freedom as
           vibrations may cause significant error
 Vibrational temperatures:     70.42    92.55   225.65   265.53   377.19
          (Kelvin)            400.12   463.87   505.94   592.01   656.81
                              792.49   846.61   880.87  1062.82  1089.98
                             1144.09  1184.96  1306.69  1337.50  1387.06
                             1406.35  1437.91  1452.26  1499.29  1572.12
                             1605.09  1667.08  1706.81  1739.12  1795.28
                             1853.33  1896.23  1962.06  1980.98  1992.30
                             2094.13  2111.24  2121.01  2148.21  2412.41
                             2607.97  4346.07  4388.98  4397.38  4430.22
                             4480.81  4507.02  4541.40  4573.24  4611.42
                             5480.64

 Zero-point correction=                           0.157551 (Hartree/Particle)
 Thermal correction to Energy=                    0.166796
 Thermal correction to Enthalpy=                  0.167741
 Thermal correction to Gibbs Free Energy=         0.123056
 Sum of electronic and zero-point Energies=           -423.058277
 Sum of electronic and thermal Energies=              -423.049032
 Sum of electronic and thermal Enthalpies=            -423.048088
 Sum of electronic and thermal Free Energies=         -423.092773

                     E (Thermal)             CV                S
                      KCal/Mol        Cal/Mol-Kelvin    Cal/Mol-Kelvin
 Total                  104.666             34.328             94.046
 Electronic               0.000              0.000              0.000
 Translational            0.889              2.981             40.409
 Rotational               0.889              2.981             28.694
 Vibrational            102.889             28.366             24.944
 Vibration     1          0.595              1.978              4.860
 Vibration     2          0.597              1.971              4.320
 Vibration     3          0.620              1.895              2.588
 Vibration     4          0.631              1.861              2.282
 Vibration     5          0.669              1.742              1.647
 Vibration     6          0.679              1.714              1.545
 Vibration     7          0.707              1.631              1.298
 Vibration     8          0.728              1.572              1.159
 Vibration     9          0.775              1.445              0.921
 Vibration    10          0.815              1.347              0.776
 Vibration    11          0.906              1.138              0.542
 Vibration    12          0.946              1.056              0.470
 Vibration    13          0.971              1.006              0.429

 Optimization completed.
    -- Stationary point found.
 Normal termination of Gaussian 09 at Mon Jan 27 14:50:54 2020.
