 Gaussian 09, Revision D.01,
 Gaussian 09:  ES64L-G09RevD.01 24-Apr-2013

 -----------------------------
 # b3lyp 6-31G(2df,p) opt Freq
 -----------------------------

 -----
 titel
 -----
 Symbolic Z-matrix:
 Charge =  0 Multiplicity = 1

 SCF Done:  E(RB3LYP) =  -423.205381174     A.U. after   14 cycles
 Optimization completed.
    -- Stationary point found.
 Normal termination of Gaussian 09 at Tue Jan 28 03:57:13 2020.

 ----------------------------------------------------------------------
 #N Geom=AllCheck Guess=TCheck SCRF=Check GenChk RB3LYP/6-31G(2df,p) Fr
 eq
 ----------------------------------------------------------------------

 Structure from the checkpoint file:  "/scratch/puck/g09_5f328d93-5580-4025-9a03-1cd447bbde45/Gau-92987.chk"
 -----
 titel
 -----
 Charge =  0 Multiplicity = 1

                         Standard orientation:
 ---------------------------------------------------------------------
 Center     Atomic      Atomic             Coordinates (Angstroms)
 Number     Number       Type             X           Y           Z
 ---------------------------------------------------------------------
      1          8           0       -1.949363   -1.444586   -0.686919
      2          6           0       -1.865591   -0.513592    0.386222
      3          6           0       -2.091045    0.884984   -0.232325
      4          6           0       -0.694940    1.427205   -0.399187
      5          6           0        0.213949    0.703571    0.258179
      6          6           0        1.699920    0.931715    0.307046
      7          6           0        2.400892   -0.126286   -0.534601
      8          8           0        3.065283   -1.026040   -0.091129
      9          6           0       -0.436612   -0.455475    0.984883
     10          1           0       -1.741652   -2.317961   -0.339529
     11          1           0       -2.617080   -0.749279    1.152077
     12          1           0       -2.639805    0.788239   -1.174755
     13          1           0       -2.692753    1.525867    0.425935
     14          1           0       -0.477471    2.324346   -0.969367
     15          1           0        1.942286    1.918325   -0.105485
     16          1           0        2.086621    0.862397    1.329250
     17          1           0        2.216750   -0.025364   -1.628270
     18          1           0        0.095055   -1.405177    0.845180
     19          1           0       -0.458754   -0.269114    2.068047
 ---------------------------------------------------------------------

 SCF Done:  E(RB3LYP) =  -423.205381174     A.U. after    1 cycles

 The electronic state is 1-A.
 Alpha  occ. eigenvalues --  -19.14122 -19.13446 -10.27313 -10.23528 -10.19923
 Alpha  occ. eigenvalues --  -10.19545 -10.18736 -10.18459 -10.18386  -1.04794
 Alpha  occ. eigenvalues --   -1.01760  -0.84777  -0.76983  -0.71053  -0.68440
 Alpha  occ. eigenvalues --   -0.58367  -0.57794  -0.53393  -0.50732  -0.49528
 Alpha  occ. eigenvalues --   -0.47035  -0.44872  -0.42728  -0.41749  -0.39767
 Alpha  occ. eigenvalues --   -0.39231  -0.37537  -0.37012  -0.35907  -0.34467
 Alpha  occ. eigenvalues --   -0.32017  -0.26753  -0.26339  -0.23643
 Alpha virt. eigenvalues --   -0.02800   0.03007   0.07600   0.10652   0.11717
 Alpha virt. eigenvalues --    0.12449   0.12976   0.14842   0.15489   0.16191
 Alpha virt. eigenvalues --    0.18021   0.18223   0.19460   0.20924   0.22816

 Mulliken charges:
               1
     1  O   -0.438510
     2  C    0.124034
     3  C   -0.250106
     4  C   -0.169565
     5  C    0.324923
     6  C   -0.382552
     7  C    0.160107
     8  O   -0.237126
     9  C   -0.329576
    10  H    0.281197
    11  H    0.062516
    12  H    0.123201
    13  H    0.105717
    14  H    0.089103
    15  H    0.116998
    16  H    0.121600
    17  H    0.083449
    18  H    0.108714
    19  H    0.105877
 Sum of Mulliken charges =   0.00000

 Dipole moment (field-independent basis, Debye):
    X=             -1.3600    Y=              1.4411    Z=              0.8310  Tot=              2.1487
 Quadrupole moment (field-independent basis, Debye-Ang):
   XX=            -60.7769   YY=            -50.1063   ZZ=            -53.0160
   XY=              5.6586   XZ=             -3.6622   YZ=             -2.4722

  Exact polarizability:  92.631  -8.086  76.842   3.977  -6.423  67.715
 Approx polarizability: 126.135 -20.894 118.491  12.931 -14.361 106.596

                      1                      2                      3
                      A                      A                      A
 Frequencies --     32.8693                59.2362                81.1484
 Red. masses --      7.3458                 3.4146                 3.3650
 Frc consts  --      0.0047                 0.0071                 0.0131
 IR Inten    --      5.8809                 3.2669                 2.6229

                      4                      5                      6
                      A                      A                      A
 Frequencies --    175.1263               285.4288               290.2267
 Red. masses --      2.4261                 2.6218                 1.8058
 Frc consts  --      0.0438                 0.1258                 0.0896
 IR Inten    --      2.8886                18.1955                28.0829

                      7                      8                      9
                      A                      A                      A
 Frequencies --    310.3891               394.8361               421.9844
 Red. masses --      1.4243                 2.7014                 2.7594
 Frc consts  --      0.0808                 0.2481                 0.2895
 IR Inten    --     68.6375                 6.0788                 6.7114

                     10                     11                     12
                      A                      A                      A
 Frequencies --    473.5799               511.1181               624.8831
 Red. masses --      2.2648                 2.4551                 3.2646
 Frc consts  --      0.2993                 0.3779                 0.7511
 IR Inten    --      3.8093                26.5267                 1.3203

                     13                     14                     15
                      A                      A                      A
 Frequencies --    766.5172               810.4136               837.1341
 Red. masses --      4.6936                 1.7417                 2.3884
 Frc consts  --      1.6248                 0.6740                 0.9861
 IR Inten    --      1.2468                 0.7734                 0.1194

                     16                     17                     18
                      A                      A                      A
 Frequencies --    865.5489               898.3933               901.2778
 Red. masses --      1.7339                 2.5916                 2.2100
 Frc consts  --      0.7654                 1.2324                 1.0577
 IR Inten    --     10.2404                 1.5553                 3.7700

                     19                     20                     21
                      A                      A                      A
 Frequencies --    954.5977               967.9056              1019.8727
 Red. masses --      2.0722                 2.0372                 1.7690
 Frc consts  --      1.1125                 1.1245                 1.0841
 IR Inten    --     38.2662                17.1968                 7.1504

                     22                     23                     24
                      A                      A                      A
 Frequencies --   1030.1414              1055.8496              1085.7170
 Red. masses --      1.9492                 2.2740                 2.3492
 Frc consts  --      1.2187                 1.4936                 1.6316
 IR Inten    --      2.4180                11.9551                27.8310

                     25                     26                     27
                      A                      A                      A
 Frequencies --   1152.4557              1167.1697              1192.0372
 Red. masses --      1.7968                 1.1873                 1.2617
 Frc consts  --      1.4060                 0.9529                 1.0563
 IR Inten    --      4.8726                 2.9409                21.2247

                     28                     29                     30
                      A                      A                      A
 Frequencies --   1223.5100              1235.1653              1283.9776
 Red. masses --      1.2785                 1.3834                 1.4530
 Frc consts  --      1.1276                 1.2435                 1.4113
 IR Inten    --      3.0090                41.5339                 5.1833

                     31                     32                     33
                      A                      A                      A
 Frequencies --   1297.8016              1313.8057              1324.2235
 Red. masses --      1.5122                 1.7229                 1.5942
 Frc consts  --      1.5007                 1.7521                 1.6470
 IR Inten    --     12.4043                42.9374                 2.0958

                     34                     35                     36
                      A                      A                      A
 Frequencies --   1375.8330              1418.3524              1420.9487
 Red. masses --      1.5819                 1.1796                 1.4512
 Frc consts  --      1.7643                 1.3982                 1.7264
 IR Inten    --      8.8059                 4.7909                 6.7159

                     37                     38                     39
                      A                      A                      A
 Frequencies --   1462.1789              1467.2692              1477.0412
 Red. masses --      1.1000                 1.0837                 1.1143
 Frc consts  --      1.3856                 1.3747                 1.4323
 IR Inten    --      4.4500                 4.1054                 0.0522

                     40                     41                     42
                      A                      A                      A
 Frequencies --   1710.6338              1830.8242              2877.9118
 Red. masses --      7.1502                 9.9638                 1.0834
 Frc consts  --     12.3277                19.6775                 5.2868
 IR Inten    --      5.8636               186.6459                93.4458

                     43                     44                     45
                      A                      A                      A
 Frequencies --   2996.1417              3012.0923              3025.0037
 Red. masses --      1.0783                 1.0672                 1.0707
 Frc consts  --      5.7031                 5.7046                 5.7728
 IR Inten    --     22.8809                46.4429                66.6528

                     46                     47                     48
                      A                      A                      A
 Frequencies --   3031.9764              3049.0544              3076.9576
 Red. masses --      1.0572                 1.0979                 1.0945
 Frc consts  --      5.7259                 6.0136                 6.1053
 IR Inten    --     15.6307                20.0323                13.1485

                     49                     50                     51
                      A                      A                      A
 Frequencies --   3092.4156              3186.4079              3814.2562
 Red. masses --      1.1049                 1.0938                 1.0661
 Frc consts  --      6.2254                 6.5433                 9.1384
 IR Inten    --     13.1595                14.0258                16.4556

 - Thermochemistry -
 -------------------
 Temperature   298.150 Kelvin.  Pressure   1.00000 Atm.
 Atom     1 has atomic number  8 and mass  15.99491

 Molecular mass:   126.06808 amu.
 Principal axes and moments of inertia in atomic units:
                           1         2         3
     Eigenvalues --   605.471341778.116292081.18691
           X            0.99991   0.01205  -0.00510
           Y           -0.01224   0.99916  -0.03913
           Z            0.00462   0.03919   0.99922
 This molecule is an asymmetric top.
 Rotational symmetry number  1.
 Warning -- assumption of classical behavior for rotation
           may cause significant error
 Rotational temperatures (Kelvin)      0.14305     0.04871     0.04162
 Rotational constants (GHZ):           2.98072     1.01497     0.86717
 Zero-point vibrational energy     414922.6 (Joules/Mol)
                                   99.16888 (Kcal/Mol)
 Warning -- explicit consideration of  11 degrees of freedom as
           vibrations may cause significant error
 Vibrational temperatures:     47.29    85.23   116.75   251.97   410.67
          (Kelvin)            417.57   446.58   568.08   607.14   681.37
                              735.38   899.07  1102.85  1166.00  1204.45
                             1245.33  1292.59  1296.74  1373.45  1392.60
                             1467.37  1482.14  1519.13  1562.10  1658.12
                             1679.29  1715.07  1760.36  1777.13  1847.36
                             1867.24  1890.27  1905.26  1979.51  2040.69
                             2044.43  2103.75  2111.07  2125.13  2461.22
                             2634.14  4140.67  4310.77  4333.72  4352.30
                             4362.33  4386.90  4427.05  4449.29  4584.52
                             5487.86

 Zero-point correction=                           0.158036 (Hartree/Particle)
 Thermal correction to Energy=                    0.167199
 Thermal correction to Enthalpy=                  0.168143
 Thermal correction to Gibbs Free Energy=         0.122554
 Sum of electronic and zero-point Energies=           -423.047346
 Sum of electronic and thermal Energies=              -423.038182
 Sum of electronic and thermal Enthalpies=            -423.037238
 Sum of electronic and thermal Free Energies=         -423.082827

                     E (Thermal)             CV                S
                      KCal/Mol        Cal/Mol-Kelvin    Cal/Mol-Kelvin
 Total                  104.919             33.111             95.950
 Electronic               0.000              0.000              0.000
 Translational            0.889              2.981             40.409
 Rotational               0.889              2.981             29.195
 Vibrational            103.141             27.149             26.346
 Vibration     1          0.594              1.983              5.648
 Vibration     2          0.597              1.974              4.482
 Vibration     3          0.600              1.962              3.863
 Vibration     4          0.627              1.873              2.380
 Vibration     5          0.683              1.701              1.501
 Vibration     6          0.686              1.692              1.473
 Vibration     7          0.699              1.654              1.360
 Vibration     8          0.762              1.481              0.982
 Vibration     9          0.784              1.422              0.885
 Vibration    10          0.830              1.309              0.728
 Vibration    11          0.866              1.225              0.631

 Normal termination of Gaussian 09 at Tue Jan 28 04:36:35 2020.
