 Gaussian 09, Revision D.01,
 Gaussian 09:  ES64L-G09RevD.01 24-Apr-2013

 -----------------------------
 # b3lyp 6-31G(2df,p) opt Freq
 -----------------------------

 -----
 titel
 -----
 Symbolic Z-matrix:
 Charge =  0 Multiplicity = 1

 SCF Done:  E(RB3LYP) =  -423.173423864     A.U. after   14 cycles
 Optimization completed.
    -- Stationary point found.
 Normal termination of Gaussian 09 at Tue Jan 28 08:12:13 2020.

 ----------------------------------------------------------------------
 #N Geom=AllCheck Guess=TCheck SCRF=Check GenChk RB3LYP/6-31G(2df,p) Fr
 eq
 ----------------------------------------------------------------------

 Structure from the checkpoint file:  "/scratch/puck/g09_f9805968-d8c3-4fe2-83cc-6b1eb23580a2/Gau-186242.chk"
 -----
 titel
 -----
 Charge =  0 Multiplicity = 1

                         Standard orientation:
 ---------------------------------------------------------------------
 Center     Atomic      Atomic             Coordinates (Angstroms)
 Number     Number       Type             X           Y           Z
 ---------------------------------------------------------------------
      1          6           0       -3.697991   -0.743396    0.295898
      2          6           0       -2.184118   -0.733190    0.512294
      3          6           0       -1.458112    0.179331   -0.500085
      4          8           0       -1.930344    1.521330   -0.454541
      5          6           0       -0.006880    0.110681   -0.312273
      6          6           0        1.182194    0.087321   -0.098614
      7          6           0        2.612768    0.066895    0.147225
      8          6           0        3.356354   -1.119007   -0.432135
      9          8           0        3.159418    0.948296    0.775558
     10          1           0       -4.195128   -1.353052    1.055636
     11          1           0       -4.101106    0.270876    0.346278
     12          1           0       -3.953340   -1.156983   -0.685953
     13          1           0       -1.941722   -0.384319    1.523988
     14          1           0       -1.771831   -1.744927    0.424610
     15          1           0       -1.701948   -0.164895   -1.513609
     16          1           0       -1.578863    1.928140    0.345874
     17          1           0        2.945100   -2.052991   -0.034196
     18          1           0        3.224810   -1.149471   -1.519167
     19          1           0        4.416146   -1.041199   -0.185459
 ---------------------------------------------------------------------

 SCF Done:  E(RB3LYP) =  -423.173423864     A.U. after    1 cycles

 The electronic state is 1-A.
 Alpha  occ. eigenvalues --  -19.15140 -19.13560 -10.29116 -10.26763 -10.20529
 Alpha  occ. eigenvalues --  -10.19777 -10.19439 -10.19429 -10.18117  -1.04605
 Alpha  occ. eigenvalues --   -1.03506  -0.80723  -0.77815  -0.74630  -0.69817
 Alpha  occ. eigenvalues --   -0.62265  -0.60958  -0.53733  -0.48604  -0.48268
 Alpha  occ. eigenvalues --   -0.46561  -0.44848  -0.44081  -0.42264  -0.40365
 Alpha  occ. eigenvalues --   -0.38981  -0.38091  -0.36975  -0.35270  -0.34753
 Alpha  occ. eigenvalues --   -0.30035  -0.28528  -0.27733  -0.25944
 Alpha virt. eigenvalues --   -0.05151   0.01997   0.08260   0.08809   0.10749
 Alpha virt. eigenvalues --    0.11103   0.13142   0.14525   0.15718   0.15927
 Alpha virt. eigenvalues --    0.16577   0.17779   0.18184   0.18887   0.23074

 Mulliken charges:
               1
     1  C   -0.387256
     2  C   -0.177611
     3  C   -0.054418
     4  O   -0.410938
     5  C    0.022543
     6  C    0.077971
     7  C    0.249459
     8  C   -0.478237
     9  O   -0.275735
    10  H    0.115207
    11  H    0.135632
    12  H    0.117453
    13  H    0.104660
    14  H    0.110226
    15  H    0.122419
    16  H    0.289895
    17  H    0.145903
    18  H    0.148394
    19  H    0.144433
 Sum of Mulliken charges =   0.00000

 Dipole moment (field-independent basis, Debye):
    X=             -1.3682    Y=             -2.5732    Z=             -0.3278  Tot=              2.9327
 Quadrupole moment (field-independent basis, Debye-Ang):
   XX=            -56.7593   YY=            -53.9255   ZZ=            -53.1005
   XY=             -4.5179   XZ=             -6.1914   YZ=              1.4999

  Exact polarizability: 123.169   0.822  68.983   4.501   4.351  61.669
 Approx polarizability: 167.055   6.348 103.998  18.067  10.524  96.331

                      1                      2                      3
                      A                      A                      A
 Frequencies --     22.8335                62.1743                72.1280
 Red. masses --      3.8563                 3.3904                 3.6800
 Frc consts  --      0.0012                 0.0077                 0.0113
 IR Inten    --      2.9163                 1.8181                 0.8317

                      4                      5                      6
                      A                      A                      A
 Frequencies --    117.3985               123.8937               194.8385
 Red. masses --      2.4574                 1.1139                 2.2321
 Frc consts  --      0.0200                 0.0101                 0.0499
 IR Inten    --      1.3665                 0.2023                 0.7931

                      7                      8                      9
                      A                      A                      A
 Frequencies --    212.1009               225.0940               287.8811
 Red. masses --      4.2323                 1.4759                 2.3365
 Frc consts  --      0.1122                 0.0441                 0.1141
 IR Inten    --      0.3381                 0.5188                46.9125

                     10                     11                     12
                      A                      A                      A
 Frequencies --    308.9281               359.6369               465.2587
 Red. masses --      1.3651                 4.9794                 3.0667
 Frc consts  --      0.0768                 0.3795                 0.3911
 IR Inten    --     70.1419                 1.9264                20.5180

                     13                     14                     15
                      A                      A                      A
 Frequencies --    512.0969               538.1211               606.6215
 Red. masses --      3.0809                 6.0983                 2.8499
 Frc consts  --      0.4760                 1.0405                 0.6179
 IR Inten    --      4.3633                 6.3707                 1.8842

                     16                     17                     18
                      A                      A                      A
 Frequencies --    626.4652               711.8403               779.3541
 Red. masses --      6.8470                 3.4499                 1.4228
 Frc consts  --      1.5832                 1.0300                 0.5092
 IR Inten    --     13.4967                11.4508                 0.9647

                     19                     20                     21
                      A                      A                      A
 Frequencies --    868.5876               962.0792               979.9775
 Red. masses --      2.0462                 2.4762                 2.0210
 Frc consts  --      0.9095                 1.3504                 1.1435
 IR Inten    --     13.9850                38.6800                30.1929

                     22                     23                     24
                      A                      A                      A
 Frequencies --   1033.0035              1043.0614              1061.1512
 Red. masses --      2.1654                 1.8413                 2.7514
 Frc consts  --      1.3614                 1.1803                 1.8254
 IR Inten    --      4.1492                 4.6303                45.3996

                     25                     26                     27
                      A                      A                      A
 Frequencies --   1107.5446              1124.9639              1238.7713
 Red. masses --      2.1257                 2.0282                 3.7287
 Frc consts  --      1.5363                 1.5123                 3.3713
 IR Inten    --      3.2260                33.1011               249.5446

                     28                     29                     30
                      A                      A                      A
 Frequencies --   1253.3022              1288.2841              1326.5476
 Red. masses --      1.2675                 1.3347                 1.2521
 Frc consts  --      1.1730                 1.3052                 1.2982
 IR Inten    --     11.2143                24.4973                 1.2874

                     31                     32                     33
                      A                      A                      A
 Frequencies --   1368.7349              1381.7230              1404.5663
 Red. masses --      1.4025                 1.3102                 1.2235
 Frc consts  --      1.5481                 1.4738                 1.4221
 IR Inten    --      0.6558                33.3539                 9.4738

                     34                     35                     36
                      A                      A                      A
 Frequencies --   1421.1534              1460.7194              1468.7961
 Red. masses --      1.2292                 1.0539                 1.0472
 Frc consts  --      1.4627                 1.3249                 1.3311
 IR Inten    --     71.2083                11.8235                 7.3244

                     37                     38                     39
                      A                      A                      A
 Frequencies --   1479.3808              1493.4560              1508.0990
 Red. masses --      1.0776                 1.0413                 1.0570
 Frc consts  --      1.3895                 1.3685                 1.4164
 IR Inten    --      1.8162                 5.1149                 4.2318

                     40                     41                     42
                      A                      A                      A
 Frequencies --   1768.6820              2319.7081              3024.9315
 Red. masses --     11.0846                11.9593                 1.0721
 Frc consts  --     20.4300                37.9161                 5.7800
 IR Inten    --    204.4018                95.1734                 2.5727

                     43                     44                     45
                      A                      A                      A
 Frequencies --   3035.0805              3039.5219              3040.3264
 Red. masses --      1.0705                 1.0356                 1.0383
 Frc consts  --      5.8100                 5.6369                 5.6548
 IR Inten    --     19.1524                 1.5222                32.0379

                     46                     47                     48
                      A                      A                      A
 Frequencies --   3071.6569              3103.7203              3107.2779
 Red. masses --      1.1001                 1.0986                 1.1005
 Frc consts  --      6.1153                 6.2355                 6.2602
 IR Inten    --     17.2156                 5.3040                32.9981

                     49                     50                     51
                      A                      A                      A
 Frequencies --   3128.9911              3152.5401              3801.0184
 Red. masses --      1.1014                 1.1029                 1.0662
 Frc consts  --      6.3532                 6.4582                 9.0755
 IR Inten    --     18.5032                 9.7237                24.2902

 - Thermochemistry -
 -------------------
 Temperature   298.150 Kelvin.  Pressure   1.00000 Atm.
 Atom     1 has atomic number  6 and mass  12.00000

 Molecular mass:   126.06808 amu.
 Principal axes and moments of inertia in atomic units:
                           1         2         3
     Eigenvalues --   462.594122978.493833206.95243
           X            0.99989  -0.00491  -0.01377
           Y            0.00515   0.99984   0.01740
           Z            0.01368  -0.01747   0.99975
 This molecule is an asymmetric top.
 Rotational symmetry number  1.
 Warning -- assumption of classical behavior for rotation
           may cause significant error
 Rotational temperatures (Kelvin)      0.18724     0.02908     0.02701
 Rotational constants (GHZ):           3.90135     0.60592     0.56276
 Zero-point vibrational energy     407292.7 (Joules/Mol)
                                   97.34529 (Kcal/Mol)
 Warning -- explicit consideration of  15 degrees of freedom as
           vibrations may cause significant error
 Vibrational temperatures:     32.85    89.45   103.78   168.91   178.26
          (Kelvin)            280.33   305.17   323.86   414.20   444.48
                              517.44   669.40   736.79   774.24   872.79
                              901.34  1024.18  1121.32  1249.70  1384.22
                             1409.97  1486.26  1500.73  1526.76  1593.51
                             1618.57  1782.31  1803.22  1853.55  1908.60
                             1969.30  1987.99  2020.86  2044.72  2101.65
                             2113.27  2128.50  2148.75  2169.82  2544.74
                             3337.54  4352.20  4366.80  4373.19  4374.35
                             4419.42  4465.56  4470.67  4501.91  4535.80
                             5468.81

 Zero-point correction=                           0.155130 (Hartree/Particle)
 Thermal correction to Energy=                    0.166225
 Thermal correction to Enthalpy=                  0.167169
 Thermal correction to Gibbs Free Energy=         0.116943
 Sum of electronic and zero-point Energies=           -423.018294
 Sum of electronic and thermal Energies=              -423.007199
 Sum of electronic and thermal Enthalpies=            -423.006255
 Sum of electronic and thermal Free Energies=         -423.056480

                     E (Thermal)             CV                S
                      KCal/Mol        Cal/Mol-Kelvin    Cal/Mol-Kelvin
 Total                  104.307             37.729            105.708
 Electronic               0.000              0.000              0.000
 Translational            0.889              2.981             40.409
 Rotational               0.889              2.981             29.870
 Vibrational            102.530             31.767             35.429
 Vibration     1          0.593              1.985              6.371
 Vibration     2          0.597              1.972              4.387
 Vibration     3          0.598              1.967              4.094
 Vibration     4          0.608              1.935              3.143
 Vibration     5          0.610              1.929              3.039
 Vibration     6          0.636              1.847              2.181
 Vibration     7          0.643              1.822              2.026
 Vibration     8          0.650              1.803              1.918
 Vibration     9          0.685              1.696              1.486
 Vibration    10          0.698              1.657              1.368
 Vibration    11          0.734              1.555              1.124
 Vibration    12          0.823              1.327              0.751
 Vibration    13          0.867              1.223              0.629
 Vibration    14          0.893              1.166              0.569
 Vibration    15          0.965              1.018              0.438

 Optimization completed.
    -- Stationary point found.
 Normal termination of Gaussian 09 at Tue Jan 28 08:37:36 2020.
