 Gaussian 09, Revision D.01,
 Gaussian 09:  ES64L-G09RevD.01 24-Apr-2013

 -----------------------------
 # b3lyp 6-31G(2df,p) opt Freq
 -----------------------------

 -----
 titel
 -----
 Symbolic Z-matrix:
 Charge =  0 Multiplicity = 1

 SCF Done:  E(RB3LYP) =  -423.179877305     A.U. after   14 cycles
 Optimization completed.
    -- Stationary point found.
 Normal termination of Gaussian 09 at Mon Jan 27 14:07:00 2020.

 ----------------------------------------------------------------------
 #N Geom=AllCheck Guess=TCheck SCRF=Check GenChk RB3LYP/6-31G(2df,p) Fr
 eq
 ----------------------------------------------------------------------

 Structure from the checkpoint file:  "/scratch/puck/g09_b54ef567-4ad7-410c-9a5e-a9d4fe2b225a/Gau-103663.chk"
 -----
 titel
 -----
 Charge =  0 Multiplicity = 1

                         Standard orientation:
 ---------------------------------------------------------------------
 Center     Atomic      Atomic             Coordinates (Angstroms)
 Number     Number       Type             X           Y           Z
 ---------------------------------------------------------------------
      1          6           0       -2.686682    0.845390    0.072916
      2          6           0       -1.565049   -0.170641   -0.052840
      3          8           0       -1.718154   -1.340747    0.203352
      4          6           0       -0.219258    0.399208   -0.506320
      5          8           0        0.605860   -0.576477   -1.154131
      6          6           0        1.790419   -0.573082   -0.329794
      7          6           0        1.222874   -0.613108    1.107110
      8          6           0        0.709665    0.799156    0.670058
      9          6           0        2.057149    0.935185   -0.108746
     10          1           0       -2.349271    1.746242    0.597487
     11          1           0       -3.006247    1.162715   -0.927066
     12          1           0       -3.534023    0.401250    0.596069
     13          1           0       -0.398913    1.248254   -1.180707
     14          1           0        2.513139   -1.279831   -0.732305
     15          1           0        0.490953   -1.389474    1.328068
     16          1           0        1.991354   -0.547170    1.878718
     17          1           0        0.348526    1.550173    1.371611
     18          1           0        2.086709    1.577047   -0.992766
     19          1           0        2.901420    1.135939    0.552819
 ---------------------------------------------------------------------

 SCF Done:  E(RB3LYP) =  -423.179877304     A.U. after    1 cycles

 The electronic state is 1-A.
 Alpha  occ. eigenvalues --  -19.13764 -19.12927 -10.26757 -10.23785 -10.23762
 Alpha  occ. eigenvalues --  -10.21034 -10.19152 -10.19130 -10.18469  -1.05301
 Alpha  occ. eigenvalues --   -1.03131  -0.83961  -0.76919  -0.71842  -0.66997
 Alpha  occ. eigenvalues --   -0.60368  -0.57256  -0.53387  -0.51256  -0.48321
 Alpha  occ. eigenvalues --   -0.47563  -0.44164  -0.43654  -0.41669  -0.39159
 Alpha  occ. eigenvalues --   -0.38641  -0.37379  -0.36372  -0.35291  -0.34139
 Alpha  occ. eigenvalues --   -0.32907  -0.30935  -0.25598  -0.23500
 Alpha virt. eigenvalues --   -0.01649   0.08369   0.10151   0.11527   0.12477
 Alpha virt. eigenvalues --    0.13642   0.14010   0.14435   0.15521   0.17042
 Alpha virt. eigenvalues --    0.17935   0.18936   0.19674   0.20016   0.21660

 Mulliken charges:
               1
     1  C   -0.486309
     2  C    0.365272
     3  O   -0.291693
     4  C    0.027155
     5  O   -0.277786
     6  C    0.113524
     7  C   -0.238802
     8  C   -0.084932
     9  C   -0.236237
    10  H    0.134243
    11  H    0.147615
    12  H    0.144764
    13  H    0.079393
    14  H    0.084498
    15  H    0.135007
    16  H    0.100350
    17  H    0.078277
    18  H    0.100629
    19  H    0.105033
 Sum of Mulliken charges =   0.00000

 Dipole moment (field-independent basis, Debye):
    X=              0.8477    Y=              3.1160    Z=              0.8693  Tot=              3.3443
 Quadrupole moment (field-independent basis, Debye-Ang):
   XX=            -49.1990   YY=            -55.5522   ZZ=            -53.8465
   XY=             -4.9466   XZ=              1.8903   YZ=             -0.7620

  Exact polarizability:  88.669  -1.824  72.882   0.659  -3.026  64.461
 Approx polarizability: 113.080   0.135 119.248   0.931  -4.061 100.976

                      1                      2                      3
                      A                      A                      A
 Frequencies --     57.3692               130.0105               155.9785
 Red. masses --      3.8692                 1.0419                 3.9814
 Frc consts  --      0.0075                 0.0104                 0.0571
 IR Inten    --      2.4997                 0.0779                 3.8534

                      4                      5                      6
                      A                      A                      A
 Frequencies --    182.5461               341.4772               343.0434
 Red. masses --      4.0078                 4.1164                 4.2026
 Frc consts  --      0.0787                 0.2828                 0.2914
 IR Inten    --      0.3605                 0.8929                 1.1100

                      7                      8                      9
                      A                      A                      A
 Frequencies --    481.9934               515.9874               579.0542
 Red. masses --      2.6520                 1.8604                 2.5861
 Frc consts  --      0.3630                 0.2918                 0.5109
 IR Inten    --      2.1821                 0.0450                 3.8343

                     10                     11                     12
                      A                      A                      A
 Frequencies --    591.5005               687.5943               816.6608
 Red. masses --      3.5243                 3.9183                 2.8571
 Frc consts  --      0.7265                 1.0915                 1.1227
 IR Inten    --     16.5151                 8.0151                 0.7159

                     13                     14                     15
                      A                      A                      A
 Frequencies --    838.4203               853.1268               868.3147
 Red. masses --      2.0574                 2.5409                 2.7532
 Frc consts  --      0.8521                 1.0896                 1.2230
 IR Inten    --      0.5676                 5.9231                 2.6279

                     16                     17                     18
                      A                      A                      A
 Frequencies --    883.8174               924.1433               954.3365
 Red. masses --      2.8782                 3.1756                 2.4461
 Frc consts  --      1.3246                 1.5979                 1.3126
 IR Inten    --      5.7860                23.3761                51.4656

                     19                     20                     21
                      A                      A                      A
 Frequencies --    961.2966               979.7446              1017.6126
 Red. masses --      2.7179                 1.4674                 1.9136
 Frc consts  --      1.4798                 0.8299                 1.1676
 IR Inten    --     40.5362                 2.0278                10.3474

                     22                     23                     24
                      A                      A                      A
 Frequencies --   1029.5440              1043.6506              1070.0799
 Red. masses --      1.4450                 3.0665                 1.2616
 Frc consts  --      0.9024                 1.9679                 0.8512
 IR Inten    --      9.3731                 8.5220                 0.4323

                     25                     26                     27
                      A                      A                      A
 Frequencies --   1098.6238              1110.9309              1137.9939
 Red. masses --      1.7516                 1.8642                 1.5507
 Frc consts  --      1.2456                 1.3556                 1.1832
 IR Inten    --      6.9153                33.2347                 6.9975

                     28                     29                     30
                      A                      A                      A
 Frequencies --   1191.8038              1213.3842              1239.0208
 Red. masses --      2.0813                 1.4415                 1.5146
 Frc consts  --      1.7418                 1.2504                 1.3700
 IR Inten    --     43.4244                 5.7249                 4.4642

                     31                     32                     33
                      A                      A                      A
 Frequencies --   1252.7125              1273.1858              1274.0831
 Red. masses --      1.6198                 1.5962                 1.5211
 Frc consts  --      1.4976                 1.5245                 1.4548
 IR Inten    --     13.9355                 0.8909                 6.3461

                     34                     35                     36
                      A                      A                      A
 Frequencies --   1324.2747              1373.6678              1385.2419
 Red. masses --      1.4808                 1.2508                 1.5095
 Frc consts  --      1.5301                 1.3906                 1.7067
 IR Inten    --      5.3267                14.9984                23.3837

                     37                     38                     39
                      A                      A                      A
 Frequencies --   1462.7323              1473.0282              1474.5031
 Red. masses --      1.0529                 1.0994                 1.0562
 Frc consts  --      1.3273                 1.4055                 1.3530
 IR Inten    --      9.6539                 4.8131                 7.0239

                     40                     41                     42
                      A                      A                      A
 Frequencies --   1508.6445              1819.4101              3003.2308
 Red. masses --      1.1275                10.7687                 1.0834
 Frc consts  --      1.5119                21.0026                 5.7571
 IR Inten    --      4.5779               115.8825                38.9703

                     43                     44                     45
                      A                      A                      A
 Frequencies --   3034.0395              3066.1876              3087.5275
 Red. masses --      1.0379                 1.0570                 1.0579
 Frc consts  --      5.6290                 5.8549                 5.9415
 IR Inten    --      4.3771                32.3299                15.0105

                     46                     47                     48
                      A                      A                      A
 Frequencies --   3093.1429              3125.3460              3135.7997
 Red. masses --      1.0976                 1.0903                 1.1081
 Frc consts  --      6.1874                 6.2744                 6.4200
 IR Inten    --      6.5276                34.9334                24.5613

                     49                     50                     51
                      A                      A                      A
 Frequencies --   3147.5479              3153.9121              3160.6140
 Red. masses --      1.0924                 1.1015                 1.1099
 Frc consts  --      6.3766                 6.4557                 6.5326
 IR Inten    --     37.6240                 8.6665                10.6337

 - Thermochemistry -
 -------------------
 Temperature   298.150 Kelvin.  Pressure   1.00000 Atm.
 Atom     1 has atomic number  6 and mass  12.00000

 Molecular mass:   126.06808 amu.
 Principal axes and moments of inertia in atomic units:
                           1         2         3
     Eigenvalues --   521.490571402.366851505.71714
           X            0.99954  -0.02875   0.01014
           Y            0.02937   0.99729  -0.06752
           Z           -0.00817   0.06778   0.99767
 This molecule is an asymmetric top.
 Rotational symmetry number  1.
 Warning -- assumption of classical behavior for rotation
           may cause significant error
 Rotational temperatures (Kelvin)      0.16609     0.06176     0.05752
 Rotational constants (GHZ):           3.46074     1.28693     1.19859
 Zero-point vibrational energy     418261.7 (Joules/Mol)
                                   99.96694 (Kcal/Mol)
 Warning -- explicit consideration of  10 degrees of freedom as
           vibrations may cause significant error
 Vibrational temperatures:     82.54   187.06   224.42   262.64   491.31
          (Kelvin)            493.56   693.48   742.39   833.13   851.04
                              989.29  1174.99  1206.30  1227.46  1249.31
                             1271.61  1329.63  1373.08  1383.09  1409.63
                             1464.12  1481.28  1501.58  1539.60  1580.67
                             1598.38  1637.32  1714.74  1745.79  1782.67
                             1802.37  1831.83  1833.12  1905.33  1976.40
                             1993.05  2104.54  2119.36  2121.48  2170.60
                             2617.72  4320.97  4365.30  4411.55  4442.26
                             4450.34  4496.67  4511.71  4528.61  4537.77
                             4547.41

 Zero-point correction=                           0.159307 (Hartree/Particle)
 Thermal correction to Energy=                    0.167336
 Thermal correction to Enthalpy=                  0.168281
 Thermal correction to Gibbs Free Energy=         0.126273
 Sum of electronic and zero-point Energies=           -423.020570
 Sum of electronic and thermal Energies=              -423.012541
 Sum of electronic and thermal Enthalpies=            -423.011597
 Sum of electronic and thermal Free Energies=         -423.053604

                     E (Thermal)             CV                S
                      KCal/Mol        Cal/Mol-Kelvin    Cal/Mol-Kelvin
 Total                  105.005             30.790             88.412
 Electronic               0.000              0.000              0.000
 Translational            0.889              2.981             40.409
 Rotational               0.889              2.981             28.489
 Vibrational            103.228             24.828             19.514
 Vibration     1          0.596              1.975              4.546
 Vibration     2          0.612              1.923              2.946
 Vibration     3          0.620              1.896              2.598
 Vibration     4          0.630              1.864              2.302
 Vibration     5          0.721              1.593              1.205
 Vibration     6          0.722              1.589              1.198
 Vibration     7          0.838              1.290              0.705
 Vibration     8          0.871              1.215              0.619
 Vibration     9          0.936              1.077              0.487
 Vibration    10          0.949              1.050              0.465

 Optimization completed.
    -- Stationary point found.
 Normal termination of Gaussian 09 at Mon Jan 27 14:48:37 2020.
