 Gaussian 09, Revision D.01,
 Gaussian 09:  ES64L-G09RevD.01 24-Apr-2013

 -----------------------------
 # b3lyp 6-31G(2df,p) opt Freq
 -----------------------------

 -----
 titel
 -----
 Symbolic Z-matrix:
 Charge =  0 Multiplicity = 1

 SCF Done:  E(RB3LYP) =  -423.144374072     A.U. after   14 cycles
 Optimization completed.
    -- Stationary point found.
 Normal termination of Gaussian 09 at Tue Jan 28 11:59:45 2020.

 ----------------------------------------------------------------------
 #N Geom=AllCheck Guess=TCheck SCRF=Check GenChk RB3LYP/6-31G(2df,p) Fr
 eq
 ----------------------------------------------------------------------

 Structure from the checkpoint file:  "/scratch/puck/g09_dc1144d0-3f32-4d38-8867-fe992634a8e9/Gau-138576.chk"
 -----
 titel
 -----
 Charge =  0 Multiplicity = 1

                         Standard orientation:
 ---------------------------------------------------------------------
 Center     Atomic      Atomic             Coordinates (Angstroms)
 Number     Number       Type             X           Y           Z
 ---------------------------------------------------------------------
      1          8           0       -2.888911   -0.622169   -0.361921
      2          6           0       -1.779925   -0.687157    0.520807
      3          6           0       -0.512772   -0.415923   -0.287727
      4          6           0       -0.515725    0.993534   -0.935827
      5          6           0        0.533373    1.787108   -0.124102
      6          8           0        0.801794    1.013031    1.044900
      7          6           0        0.717247   -0.354046    0.656904
      8          6           0        1.948459   -0.824432    0.009512
      9          6           0        2.955460   -1.200874   -0.528573
     10          1           0       -3.693732   -0.703388    0.157825
     11          1           0       -1.861425    0.060624    1.325699
     12          1           0       -1.708778   -1.680201    0.993012
     13          1           0       -0.400346   -1.203901   -1.035200
     14          1           0       -0.249658    0.951054   -1.993936
     15          1           0       -1.513027    1.432359   -0.868541
     16          1           0        1.456634    1.925518   -0.703288
     17          1           0        0.185291    2.766958    0.211389
     18          1           0        0.556401   -0.927435    1.577010
     19          1           0        3.848874   -1.537732   -0.993761
 ---------------------------------------------------------------------

 SCF Done:  E(RB3LYP) =  -423.144374072     A.U. after    1 cycles

 The electronic state is 1-A.
 Alpha  occ. eigenvalues --  -19.14064 -19.13969 -10.25338 -10.23059 -10.22279
 Alpha  occ. eigenvalues --  -10.19299 -10.18052 -10.17983 -10.17607  -1.03971
 Alpha  occ. eigenvalues --   -1.02037  -0.80090  -0.76539  -0.72746  -0.67442
 Alpha  occ. eigenvalues --   -0.60963  -0.57561  -0.53870  -0.51408  -0.49665
 Alpha  occ. eigenvalues --   -0.48637  -0.46769  -0.44349  -0.41349  -0.40438
 Alpha  occ. eigenvalues --   -0.36688  -0.35343  -0.34296  -0.32509  -0.32166
 Alpha  occ. eigenvalues --   -0.27704  -0.27183  -0.26661  -0.25736
 Alpha virt. eigenvalues --    0.03795   0.05128   0.07499   0.09467   0.11967
 Alpha virt. eigenvalues --    0.12372   0.12899   0.14139   0.15515   0.16895
 Alpha virt. eigenvalues --    0.17440   0.18628   0.18895   0.21355   0.22541

 Mulliken charges:
               1
     1  O   -0.422191
     2  C   -0.107046
     3  C    0.021607
     4  C   -0.242236
     5  C   -0.080528
     6  O   -0.238244
     7  C   -0.139699
     8  C    0.343469
     9  C   -0.455139
    10  H    0.288646
    11  H    0.098850
    12  H    0.089477
    13  H    0.096924
    14  H    0.109361
    15  H    0.121582
    16  H    0.102996
    17  H    0.108638
    18  H    0.105785
    19  H    0.197750
 Sum of Mulliken charges =   0.00000

 Dipole moment (field-independent basis, Debye):
    X=             -1.1679    Y=             -0.4491    Z=              0.0461  Tot=              1.2521
 Quadrupole moment (field-independent basis, Debye-Ang):
   XX=            -47.0249   YY=            -51.8176   ZZ=            -54.3224
   XY=             -1.3148   XZ=             -7.5764   YZ=             -2.6048

  Exact polarizability:  93.642  -7.074  71.888  -8.364  -0.180  64.196
 Approx polarizability: 128.117 -13.059 101.577 -16.467   4.465 102.644

                      1                      2                      3
                      A                      A                      A
 Frequencies --     37.2505               103.2836               130.6325
 Red. masses --      2.5260                 3.6426                 2.7790
 Frc consts  --      0.0021                 0.0229                 0.0279
 IR Inten    --      0.5579                 1.7844                 0.4372

                      4                      5                      6
                      A                      A                      A
 Frequencies --    162.1604               218.3814               253.6435
 Red. masses --      3.6036                 3.9408                 1.1504
 Frc consts  --      0.0558                 0.1107                 0.0436
 IR Inten    --      8.3983                 8.8881                78.9948

                      7                      8                      9
                      A                      A                      A
 Frequencies --    280.8876               342.6928               410.6782
 Red. masses --      3.0001                 3.7607                 5.0862
 Frc consts  --      0.1395                 0.2602                 0.5054
 IR Inten    --     18.6778                 1.6187                 3.2855

                     10                     11                     12
                      A                      A                      A
 Frequencies --    512.3742               566.4244               626.2982
 Red. masses --      3.8995                 5.7171                 1.2356
 Frc consts  --      0.6032                 1.0807                 0.2856
 IR Inten    --      1.7928                18.5602                41.2178

                     13                     14                     15
                      A                      A                      A
 Frequencies --    668.8263               673.4803               781.2825
 Red. masses --      1.3402                 2.5953                 3.9223
 Frc consts  --      0.3532                 0.6936                 1.4106
 IR Inten    --     31.4054                 4.0232                18.0632

                     16                     17                     18
                      A                      A                      A
 Frequencies --    834.3799               864.0693               925.8287
 Red. masses --      1.5866                 2.7214                 4.0694
 Frc consts  --      0.6508                 1.1971                 2.0552
 IR Inten    --     11.6422                 1.9063                12.3278

                     19                     20                     21
                      A                      A                      A
 Frequencies --    949.1469               961.7712               996.7982
 Red. masses --      3.3855                 2.7796                 1.6857
 Frc consts  --      1.7969                 1.5149                 0.9868
 IR Inten    --     11.8138                16.0759                22.3379

                     22                     23                     24
                      A                      A                      A
 Frequencies --   1002.9259              1073.5152              1088.9942
 Red. masses --      2.1214                 2.4003                 6.3183
 Frc consts  --      1.2572                 1.6298                 4.4147
 IR Inten    --     24.2800                12.3196                72.3497

                     25                     26                     27
                      A                      A                      A
 Frequencies --   1095.9953              1152.0741              1216.3108
 Red. masses --      5.8058                 1.8913                 1.1645
 Frc consts  --      4.1089                 1.4790                 1.0151
 IR Inten    --     81.9705                 4.1719                11.0509

                     28                     29                     30
                      A                      A                      A
 Frequencies --   1226.3543              1248.9199              1254.2645
 Red. masses --      1.2349                 1.2002                 1.2467
 Frc consts  --      1.0942                 1.1030                 1.1556
 IR Inten    --      1.7872                12.6539                 9.9682

                     31                     32                     33
                      A                      A                      A
 Frequencies --   1278.3159              1295.9848              1319.5608
 Red. masses --      1.1973                 1.2572                 1.4298
 Frc consts  --      1.1528                 1.2441                 1.4668
 IR Inten    --     17.7523                17.0314                 2.5893

                     34                     35                     36
                      A                      A                      A
 Frequencies --   1345.1087              1377.3491              1391.1429
 Red. masses --      1.2163                 1.3954                 1.3432
 Frc consts  --      1.2966                 1.5597                 1.5315
 IR Inten    --     14.0955                 9.9602                 2.1966

                     37                     38                     39
                      A                      A                      A
 Frequencies --   1457.6248              1502.3642              1520.9148
 Red. masses --      1.4553                 1.0821                 1.0897
 Frc consts  --      1.8218                 1.4391                 1.4851
 IR Inten    --      6.6324                 1.7842                 1.4990

                     40                     41                     42
                      A                      A                      A
 Frequencies --   1526.2970              2230.3573              2965.4019
 Red. masses --      1.0870                 5.9017                 1.0553
 Frc consts  --      1.4920                17.2971                 5.4677
 IR Inten    --      3.1144                 0.8414                50.2439

                     43                     44                     45
                      A                      A                      A
 Frequencies --   2999.4543              3009.9975              3045.6803
 Red. masses --      1.1053                 1.0691                 1.0839
 Frc consts  --      5.8590                 5.7070                 5.9238
 IR Inten    --     43.8971                52.4311                22.4822

                     46                     47                     48
                      A                      A                      A
 Frequencies --   3078.1618              3091.5468              3096.9509
 Red. masses --      1.0630                 1.0896                 1.0906
 Frc consts  --      5.9344                 6.1358                 6.1631
 IR Inten    --     16.2720                33.3721                 7.1630

                     49                     50                     51
                      A                      A                      A
 Frequencies --   3125.5956              3502.3268              3832.7167
 Red. masses --      1.1051                 1.1622                 1.0664
 Frc consts  --      6.3609                 8.3997                 9.2298
 IR Inten    --     24.8725                62.9156                25.6992

 - Thermochemistry -
 -------------------
 Temperature   298.150 Kelvin.  Pressure   1.00000 Atm.
 Atom     1 has atomic number  8 and mass  15.99491

 Molecular mass:   126.06808 amu.
 Principal axes and moments of inertia in atomic units:
                           1         2         3
     Eigenvalues --   662.593691584.119961851.49945
           X            0.99982  -0.00025  -0.01912
           Y           -0.00084   0.99836  -0.05716
           Z            0.01911   0.05717   0.99818
 This molecule is an asymmetric top.
 Rotational symmetry number  1.
 Warning -- assumption of classical behavior for rotation
           may cause significant error
 Rotational temperatures (Kelvin)      0.13072     0.05468     0.04678
 Rotational constants (GHZ):           2.72375     1.13927     0.97475
 Zero-point vibrational energy     416614.5 (Joules/Mol)
                                   99.57324 (Kcal/Mol)
 Warning -- explicit consideration of  11 degrees of freedom as
           vibrations may cause significant error
 Vibrational temperatures:     53.60   148.60   187.95   233.31   314.20
          (Kelvin)            364.94   404.13   493.06   590.87   737.19
                              814.96   901.10   962.29   968.99  1124.09
                             1200.49  1243.20  1332.06  1365.61  1383.77
                             1434.17  1442.98  1544.55  1566.82  1576.89
                             1657.58  1750.00  1764.45  1796.91  1804.60
                             1839.21  1864.63  1898.55  1935.31  1981.70
                             2001.54  2097.19  2161.56  2188.25  2196.00
                             3208.98  4266.55  4315.54  4330.71  4382.05
                             4428.78  4448.04  4455.82  4497.03  5039.06
                             5514.42

 Zero-point correction=                           0.158680 (Hartree/Particle)
 Thermal correction to Energy=                    0.167981
 Thermal correction to Enthalpy=                  0.168926
 Thermal correction to Gibbs Free Energy=         0.123807
 Sum of electronic and zero-point Energies=           -422.985694
 Sum of electronic and thermal Energies=              -422.976393
 Sum of electronic and thermal Enthalpies=            -422.975448
 Sum of electronic and thermal Free Energies=         -423.020567

                     E (Thermal)             CV                S
                      KCal/Mol        Cal/Mol-Kelvin    Cal/Mol-Kelvin
 Total                  105.410             33.946             94.959
 Electronic               0.000              0.000              0.000
 Translational            0.889              2.981             40.409
 Rotational               0.889              2.981             29.054
 Vibrational            103.633             27.985             25.497
 Vibration     1          0.594              1.982              5.400
 Vibration     2          0.605              1.947              3.391
 Vibration     3          0.612              1.923              2.937
 Vibration     4          0.622              1.889              2.524
 Vibration     5          0.646              1.813              1.972
 Vibration     6          0.665              1.757              1.705
 Vibration     7          0.681              1.709              1.528
 Vibration     8          0.722              1.590              1.200
 Vibration     9          0.775              1.447              0.924
 Vibration    10          0.867              1.223              0.628
 Vibration    11          0.922              1.104              0.511

 Optimization completed on the basis of negligible forces.
    -- Stationary point found.
 Normal termination of Gaussian 09 at Tue Jan 28 12:40:46 2020.
