 Gaussian 09, Revision D.01,
 Gaussian 09:  ES64L-G09RevD.01 24-Apr-2013

 -----------------------------
 # b3lyp 6-31G(2df,p) opt Freq
 -----------------------------

 -----
 titel
 -----
 Symbolic Z-matrix:
 Charge =  0 Multiplicity = 1

 SCF Done:  E(RB3LYP) =  -423.112990555     A.U. after   13 cycles
 Optimization completed.
    -- Stationary point found.
 Normal termination of Gaussian 09 at Mon Jan 27 15:30:24 2020.

 ----------------------------------------------------------------------
 #N Geom=AllCheck Guess=TCheck SCRF=Check GenChk RB3LYP/6-31G(2df,p) Fr
 eq
 ----------------------------------------------------------------------

 Structure from the checkpoint file:  "/scratch/puck/g09_89916817-fce4-4f4c-a006-a88f8daed080/Gau-35649.chk"
 -----
 titel
 -----
 Charge =  0 Multiplicity = 1

                         Standard orientation:
 ---------------------------------------------------------------------
 Center     Atomic      Atomic             Coordinates (Angstroms)
 Number     Number       Type             X           Y           Z
 ---------------------------------------------------------------------
      1          6           0       -2.228421   -1.123575   -0.279069
      2          6           0       -1.519189    0.053459    0.383122
      3          8           0       -2.054463    1.237725   -0.209647
      4          6           0       -0.032895   -0.007905    0.232069
      5          6           0        1.110251    0.830901    0.823670
      6          6           0        1.702817    1.088936   -0.561725
      7          6           0        0.974677   -0.215311   -0.972897
      8          8           0        1.680671   -1.251127   -0.229424
      9          6           0        1.077591   -0.705026    0.940447
     10          1           0       -1.893180   -2.068770    0.155853
     11          1           0       -3.309265   -1.033103   -0.143878
     12          1           0       -2.017371   -1.136362   -1.352327
     13          1           0       -1.742159    0.039909    1.464625
     14          1           0       -1.571298    1.985770    0.156889
     15          1           0        1.088563    1.477612    1.692638
     16          1           0        1.254519    1.966545   -1.034116
     17          1           0        2.790198    1.093925   -0.684783
     18          1           0        0.762687   -0.486647   -2.004478
     19          1           0        1.118652   -1.260530    1.868440
 ---------------------------------------------------------------------

 SCF Done:  E(RB3LYP) =  -423.112990555     A.U. after    1 cycles

 The electronic state is 1-A.
 Alpha  occ. eigenvalues --  -19.13723 -19.13462 -10.24409 -10.24154 -10.24140
 Alpha  occ. eigenvalues --  -10.19974 -10.19825 -10.19069 -10.17473  -1.06310
 Alpha  occ. eigenvalues --   -1.01704  -0.86103  -0.76081  -0.72801  -0.65558
 Alpha  occ. eigenvalues --   -0.61716  -0.56655  -0.54035  -0.53370  -0.49993
 Alpha  occ. eigenvalues --   -0.46118  -0.44885  -0.43621  -0.40276  -0.39054
 Alpha  occ. eigenvalues --   -0.38268  -0.37629  -0.36525  -0.34863  -0.32870
 Alpha  occ. eigenvalues --   -0.29539  -0.27462  -0.26240  -0.23086
 Alpha virt. eigenvalues --    0.06992   0.08063   0.09743   0.10883   0.11390
 Alpha virt. eigenvalues --    0.13216   0.14332   0.14893   0.16094   0.16576
 Alpha virt. eigenvalues --    0.17980   0.18317   0.19347   0.20618   0.21065

 Mulliken charges:
               1
     1  C   -0.381530
     2  C   -0.040771
     3  O   -0.429440
     4  C    0.321413
     5  C   -0.203324
     6  C   -0.228893
     7  C    0.016823
     8  O   -0.294711
     9  C    0.024598
    10  H    0.122170
    11  H    0.123970
    12  H    0.125123
    13  H    0.066053
    14  H    0.280670
    15  H    0.090030
    16  H    0.104191
    17  H    0.102645
    18  H    0.091998
    19  H    0.108985
 Sum of Mulliken charges =   0.00000

 Dipole moment (field-independent basis, Debye):
    X=             -0.1047    Y=              1.1467    Z=              1.1966  Tot=              1.6607
 Quadrupole moment (field-independent basis, Debye-Ang):
   XX=            -59.8198   YY=            -52.6032   ZZ=            -49.5949
   XY=              4.5378   XZ=             -1.2641   YZ=              0.2454

  Exact polarizability:  79.464   3.944  73.111  -0.087  -0.873  70.467
 Approx polarizability: 107.776  -0.541 111.513   1.906  -0.937 108.620

                      1                      2                      3
                      A                      A                      A
 Frequencies --     68.3930               118.1683               167.2528
 Red. masses --      3.4878                 3.7902                 3.1788
 Frc consts  --      0.0096                 0.0312                 0.0524
 IR Inten    --      1.2103                 1.9808                 3.0474

                      4                      5                      6
                      A                      A                      A
 Frequencies --    228.2180               316.9114               334.8819
 Red. masses --      1.0996                 1.4597                 1.9559
 Frc consts  --      0.0337                 0.0864                 0.1292
 IR Inten    --      4.8350                64.9768                27.7421

                      7                      8                      9
                      A                      A                      A
 Frequencies --    383.4016               459.0491               492.0117
 Red. masses --      2.8020                 2.5477                 2.8145
 Frc consts  --      0.2427                 0.3163                 0.4014
 IR Inten    --     21.4650                 2.4280                 6.8728

                     10                     11                     12
                      A                      A                      A
 Frequencies --    563.2971               630.6564               760.8081
 Red. masses --      3.9704                 2.9656                 4.1766
 Frc consts  --      0.7423                 0.6949                 1.4244
 IR Inten    --      8.6318                 1.7435                13.5709

                     13                     14                     15
                      A                      A                      A
 Frequencies --    787.1545               829.0757               866.1146
 Red. masses --      4.5821                 2.4577                 1.6933
 Frc consts  --      1.6727                 0.9953                 0.7484
 IR Inten    --      2.7154                 5.9299                 5.2539

                     16                     17                     18
                      A                      A                      A
 Frequencies --    907.1052               923.5007               943.3842
 Red. masses --      2.5568                 2.0672                 1.7163
 Frc consts  --      1.2395                 1.0387                 0.8999
 IR Inten    --     21.2634                18.0024                 2.0475

                     19                     20                     21
                      A                      A                      A
 Frequencies --    944.3977               975.0821              1000.1927
 Red. masses --      2.9244                 1.7481                 1.9977
 Frc consts  --      1.5367                 0.9792                 1.1775
 IR Inten    --     32.8848                 7.0943                17.2721

                     22                     23                     24
                      A                      A                      A
 Frequencies --   1027.5837              1031.4759              1056.8656
 Red. masses --      2.0855                 2.3509                 2.0272
 Frc consts  --      1.2975                 1.4737                 1.3341
 IR Inten    --     21.2149                27.0439                16.5715

                     25                     26                     27
                      A                      A                      A
 Frequencies --   1081.8344              1125.9291              1127.1795
 Red. masses --      2.5177                 1.9426                 1.6830
 Frc consts  --      1.7361                 1.4509                 1.2599
 IR Inten    --      1.1067                30.4057                 6.3197

                     28                     29                     30
                      A                      A                      A
 Frequencies --   1148.2392              1164.5435              1219.3893
 Red. masses --      1.6558                 2.0042                 1.4611
 Frc consts  --      1.2862                 1.6014                 1.2800
 IR Inten    --      9.9919                 3.5387                 4.4027

                     31                     32                     33
                      A                      A                      A
 Frequencies --   1229.0041              1267.9868              1283.5410
 Red. masses --      1.7473                 1.5272                 1.3304
 Frc consts  --      1.5550                 1.4467                 1.2914
 IR Inten    --      6.8066                13.1881                44.6233

                     34                     35                     36
                      A                      A                      A
 Frequencies --   1315.9362              1356.8683              1389.7844
 Red. masses --      1.6488                 1.2863                 1.2815
 Frc consts  --      1.6823                 1.3953                 1.4583
 IR Inten    --      2.5467                16.8961                 9.5051

                     37                     38                     39
                      A                      A                      A
 Frequencies --   1418.6232              1452.4932              1483.8947
 Red. masses --      1.4936                 2.8207                 1.0883
 Frc consts  --      1.7710                 3.5061                 1.4119
 IR Inten    --     17.7323                29.5023                 2.1519

                     40                     41                     42
                      A                      A                      A
 Frequencies --   1487.7124              1499.3503              2943.5774
 Red. masses --      1.2068                 1.0817                 1.0819
 Frc consts  --      1.5737                 1.4327                 5.5231
 IR Inten    --      7.9371                 1.8759                51.4200

                     43                     44                     45
                      A                      A                      A
 Frequencies --   3047.5429              3051.1828              3114.9614
 Red. masses --      1.0343                 1.0571                 1.1077
 Frc consts  --      5.6597                 5.7983                 6.3327
 IR Inten    --     14.8866                44.3881                21.6955

                     46                     47                     48
                      A                      A                      A
 Frequencies --   3122.6869              3129.2071              3151.0887
 Red. masses --      1.1020                 1.1026                 1.0927
 Frc consts  --      6.3311                 6.3609                 6.3927
 IR Inten    --     20.5102                18.5679                27.3833

                     49                     50                     51
                      A                      A                      A
 Frequencies --   3188.5125              3207.1808              3810.7413
 Red. masses --      1.0917                 1.0958                 1.0660
 Frc consts  --      6.5393                 6.6412                 9.1204
 IR Inten    --      9.2020                15.2999                 9.8044

 - Thermochemistry -
 -------------------
 Temperature   298.150 Kelvin.  Pressure   1.00000 Atm.
 Atom     1 has atomic number  6 and mass  12.00000

 Molecular mass:   126.06808 amu.
 Principal axes and moments of inertia in atomic units:
                           1         2         3
     Eigenvalues --   599.043751311.069761518.25998
           X            0.99828   0.05855  -0.00266
           Y           -0.05854   0.99828   0.00069
           Z            0.00269  -0.00054   1.00000
 This molecule is an asymmetric top.
 Rotational symmetry number  1.
 Warning -- assumption of classical behavior for rotation
           may cause significant error
 Rotational temperatures (Kelvin)      0.14459     0.06606     0.05705
 Rotational constants (GHZ):           3.01270     1.37654     1.18869
 Zero-point vibrational energy     416503.7 (Joules/Mol)
                                   99.54676 (Kcal/Mol)
 Warning -- explicit consideration of  10 degrees of freedom as
           vibrations may cause significant error
 Vibrational temperatures:     98.40   170.02   240.64   328.35   455.96
          (Kelvin)            481.82   551.63   660.47   707.89   810.46
                              907.37  1094.63  1132.54  1192.85  1246.14
                             1305.12  1328.71  1357.32  1358.78  1402.92
                             1439.05  1478.46  1484.06  1520.59  1556.52
                             1619.96  1621.76  1652.06  1675.52  1754.43
                             1768.26  1824.35  1846.73  1893.34  1952.23
                             1999.59  2041.08  2089.81  2134.99  2140.48
                             2157.23  4235.15  4384.73  4389.97  4481.73
                             4492.84  4502.23  4533.71  4587.55  4614.41
                             5482.80

 Zero-point correction=                           0.158638 (Hartree/Particle)
 Thermal correction to Energy=                    0.166907
 Thermal correction to Enthalpy=                  0.167851
 Thermal correction to Gibbs Free Energy=         0.125610
 Sum of electronic and zero-point Energies=           -422.954353
 Sum of electronic and thermal Energies=              -422.946083
 Sum of electronic and thermal Enthalpies=            -422.945139
 Sum of electronic and thermal Free Energies=         -422.987380

                     E (Thermal)             CV                S
                      KCal/Mol        Cal/Mol-Kelvin    Cal/Mol-Kelvin
 Total                  104.736             31.941             88.904
 Electronic               0.000              0.000              0.000
 Translational            0.889              2.981             40.409
 Rotational               0.889              2.981             28.568
 Vibrational            102.958             25.980             19.927
 Vibration     1          0.598              1.969              4.199
 Vibration     2          0.608              1.934              3.130
 Vibration     3          0.624              1.883              2.466
 Vibration     4          0.651              1.798              1.893
 Vibration     5          0.704              1.641              1.326
 Vibration     6          0.716              1.606              1.236
 Vibration     7          0.753              1.506              1.026
 Vibration     8          0.817              1.341              0.769
 Vibration     9          0.848              1.268              0.678
 Vibration    10          0.919              1.111              0.517

 Normal termination of Gaussian 09 at Mon Jan 27 16:13:05 2020.
