 Gaussian 09, Revision D.01,
 Gaussian 09:  ES64L-G09RevD.01 24-Apr-2013

 -----------------------------
 # b3lyp 6-31G(2df,p) opt Freq
 -----------------------------

 -----
 titel
 -----
 Symbolic Z-matrix:
 Charge =  0 Multiplicity = 1

 SCF Done:  E(RB3LYP) =  -423.137663414     A.U. after   14 cycles
 Optimization completed.
    -- Stationary point found.
 Normal termination of Gaussian 09 at Mon Jan 27 12:18:34 2020.

 ----------------------------------------------------------------------
 #N Geom=AllCheck Guess=TCheck SCRF=Check GenChk RB3LYP/6-31G(2df,p) Fr
 eq
 ----------------------------------------------------------------------

 Structure from the checkpoint file:  "/scratch/puck/g09_31531df0-2e19-4a28-ab2e-083662a8d2f1/Gau-153446.chk"
 -----
 titel
 -----
 Charge =  0 Multiplicity = 1

                         Standard orientation:
 ---------------------------------------------------------------------
 Center     Atomic      Atomic             Coordinates (Angstroms)
 Number     Number       Type             X           Y           Z
 ---------------------------------------------------------------------
      1          6           0        1.933857    0.538184    0.273212
      2          8           0        1.758762   -0.453716   -0.790995
      3          6           0        0.394366    0.026880   -0.942733
      4          6           0       -0.956646   -0.668188   -0.810560
      5          6           0       -1.780041    0.619125   -0.413283
      6          6           0       -0.787488    1.487673    0.489445
      7          6           0        0.403288    0.529525    0.490434
      8          6           0       -0.018428   -0.757958    1.250511
      9          8           0       -0.850670   -1.494460    0.335031
     10          1           0        2.578931    0.167522    1.074411
     11          1           0        2.330857    1.479035   -0.129326
     12          1           0        0.368218    0.815507   -1.706378
     13          1           0       -1.379415   -1.247478   -1.631482
     14          1           0       -2.111648    1.179046   -1.292049
     15          1           0       -2.666575    0.301858    0.139037
     16          1           0       -0.556453    2.442019    0.008816
     17          1           0       -1.208105    1.695423    1.476753
     18          1           0        0.833638   -1.384846    1.529117
     19          1           0       -0.587630   -0.514116    2.156650
 ---------------------------------------------------------------------

 SCF Done:  E(RB3LYP) =  -423.137663414     A.U. after    1 cycles

 The electronic state is 1-A.
 Alpha  occ. eigenvalues --  -19.14124 -19.13415 -10.24136 -10.23785 -10.22789
 Alpha  occ. eigenvalues --  -10.22483 -10.19716 -10.19672 -10.19189  -1.05420
 Alpha  occ. eigenvalues --   -1.02243  -0.82958  -0.75617  -0.69724  -0.67498
 Alpha  occ. eigenvalues --   -0.63976  -0.57556  -0.55329  -0.51352  -0.49615
 Alpha  occ. eigenvalues --   -0.46720  -0.43567  -0.42577  -0.41708  -0.40433
 Alpha  occ. eigenvalues --   -0.39566  -0.38152  -0.35706  -0.35383  -0.32383
 Alpha  occ. eigenvalues --   -0.30380  -0.28427  -0.26047  -0.23955
 Alpha virt. eigenvalues --    0.06240   0.07787   0.10486   0.10747   0.12663
 Alpha virt. eigenvalues --    0.14303   0.14479   0.14888   0.15762   0.17183
 Alpha virt. eigenvalues --    0.17754   0.18022   0.19351   0.20633   0.21288

 Mulliken charges:
               1
     1  C   -0.200584
     2  O   -0.314119
     3  C    0.165659
     4  C    0.016700
     5  C   -0.224853
     6  C   -0.331267
     7  C    0.234327
     8  C   -0.096659
     9  O   -0.263090
    10  H    0.112266
    11  H    0.104559
    12  H    0.076282
    13  H    0.081889
    14  H    0.107000
    15  H    0.119418
    16  H    0.104632
    17  H    0.103308
    18  H    0.111126
    19  H    0.093405
 Sum of Mulliken charges =   0.00000

 Dipole moment (field-independent basis, Debye):
    X=             -0.6136    Y=              2.4638    Z=              0.5197  Tot=              2.5917
 Quadrupole moment (field-independent basis, Debye-Ang):
   XX=            -54.1754   YY=            -55.9890   ZZ=            -50.9835
   XY=              0.5666   XZ=              3.9204   YZ=             -0.5818

  Exact polarizability:  81.241  -0.028  68.233   4.306  -1.592  70.921
 Approx polarizability: 114.409  -0.427 103.980   4.130  -0.973 108.980

                      1                      2                      3
                      A                      A                      A
 Frequencies --    183.0381               280.4757               317.9776
 Red. masses --      2.5545                 4.5268                 2.2494
 Frc consts  --      0.0504                 0.2098                 0.1340
 IR Inten    --      1.8857                 4.7252                 0.0073

                      4                      5                      6
                      A                      A                      A
 Frequencies --    351.4178               406.0443               438.4797
 Red. masses --      2.1309                 2.7464                 2.7302
 Frc consts  --      0.1550                 0.2668                 0.3093
 IR Inten    --      1.1578                 0.1407                 6.6075

                      7                      8                      9
                      A                      A                      A
 Frequencies --    602.4381               617.4535               709.6627
 Red. masses --      4.8689                 4.8274                 3.9132
 Frc consts  --      1.0411                 1.0844                 1.1612
 IR Inten    --      4.3583                 4.3988                 5.5089

                     10                     11                     12
                      A                      A                      A
 Frequencies --    782.9975               820.9660               841.8805
 Red. masses --      2.1011                 2.5696                 3.2718
 Frc consts  --      0.7590                 1.0204                 1.3663
 IR Inten    --      2.6351                 1.6170                 5.5241

                     13                     14                     15
                      A                      A                      A
 Frequencies --    857.7057               879.0357               892.5449
 Red. masses --      2.6178                 3.0577                 3.2424
 Frc consts  --      1.1346                 1.3921                 1.5218
 IR Inten    --     17.3660                24.1935                11.9972

                     16                     17                     18
                      A                      A                      A
 Frequencies --    943.9976               949.8727               977.2887
 Red. masses --      3.2122                 3.1123                 1.8824
 Frc consts  --      1.6865                 1.6545                 1.0593
 IR Inten    --     18.1557                16.8712                 1.9172

                     19                     20                     21
                      A                      A                      A
 Frequencies --    989.3780              1019.3607              1031.9486
 Red. masses --      2.0465                 2.5385                 2.1784
 Frc consts  --      1.1803                 1.5541                 1.3668
 IR Inten    --     25.3233                10.1636                 0.7890

                     22                     23                     24
                      A                      A                      A
 Frequencies --   1067.6346              1075.6532              1118.9182
 Red. masses --      2.2500                 3.3304                 1.5818
 Frc consts  --      1.5111                 2.2703                 1.1668
 IR Inten    --     58.4525                14.9094                33.0637

                     25                     26                     27
                      A                      A                      A
 Frequencies --   1146.7703              1170.9700              1196.0439
 Red. masses --      1.4246                 1.6327                 1.4694
 Frc consts  --      1.1038                 1.3190                 1.2384
 IR Inten    --      3.4990                 4.6457                 0.3811

                     28                     29                     30
                      A                      A                      A
 Frequencies --   1216.0317              1234.3126              1269.0068
 Red. masses --      1.3913                 1.3001                 1.6755
 Frc consts  --      1.2122                 1.1670                 1.5897
 IR Inten    --      2.3895                 2.7489                 2.8232

                     31                     32                     33
                      A                      A                      A
 Frequencies --   1276.7556              1285.8927              1303.6725
 Red. masses --      1.4255                 1.4334                 1.4377
 Frc consts  --      1.3691                 1.3964                 1.4397
 IR Inten    --      3.7106                 0.9326                 0.4131

                     34                     35                     36
                      A                      A                      A
 Frequencies --   1322.9149              1339.7397              1383.6384
 Red. masses --      1.4963                 2.0041                 1.2817
 Frc consts  --      1.5429                 2.1194                 1.4457
 IR Inten    --      4.6913                 0.0859                 2.0649

                     37                     38                     39
                      A                      A                      A
 Frequencies --   1398.9417              1474.6911              1500.9950
 Red. masses --      1.3479                 1.0857                 1.1009
 Frc consts  --      1.5542                 1.3911                 1.4614
 IR Inten    --      6.0920                 1.9248                 2.6574

                     40                     41                     42
                      A                      A                      A
 Frequencies --   1514.6587              1524.2672              3014.9441
 Red. masses --      1.1048                 1.0972                 1.0740
 Frc consts  --      1.4933                 1.5020                 5.7519
 IR Inten    --      0.7452                 0.8335                50.4735

                     43                     44                     45
                      A                      A                      A
 Frequencies --   3017.1961              3023.4914              3056.3155
 Red. masses --      1.0628                 1.0715                 1.0590
 Frc consts  --      5.7003                 5.7709                 5.8281
 IR Inten    --     58.7514                46.4741                33.3406

                     46                     47                     48
                      A                      A                      A
 Frequencies --   3068.1726              3075.7702              3095.1310
 Red. masses --      1.0619                 1.1025                 1.1055
 Frc consts  --      5.8895                 6.1452                 6.2397
 IR Inten    --     36.6973                22.1846                42.8144

                     49                     50                     51
                      A                      A                      A
 Frequencies --   3100.7095              3125.2235              3126.7549
 Red. masses --      1.1069                 1.0927                 1.1020
 Frc consts  --      6.2703                 6.2880                 6.3478
 IR Inten    --     13.4823                26.6097                34.7725

 - Thermochemistry -
 -------------------
 Temperature   298.150 Kelvin.  Pressure   1.00000 Atm.
 Atom     1 has atomic number  6 and mass  12.00000

 Molecular mass:   126.06808 amu.
 Principal axes and moments of inertia in atomic units:
                           1         2         3
     Eigenvalues --   648.12112 965.526431075.91082
           X            0.99910  -0.01686   0.03905
           Y            0.01881   0.99858  -0.04992
           Z           -0.03815   0.05061   0.99799
 This molecule is an asymmetric top.
 Rotational symmetry number  1.
 Warning -- assumption of classical behavior for rotation
           may cause significant error
 Rotational temperatures (Kelvin)      0.13364     0.08971     0.08050
 Rotational constants (GHZ):           2.78457     1.86918     1.67741
 Zero-point vibrational energy     427181.6 (Joules/Mol)
                                  102.09884 (Kcal/Mol)
 Warning -- explicit consideration of   8 degrees of freedom as
           vibrations may cause significant error
 Vibrational temperatures:    263.35   403.54   457.50   505.61   584.21
          (Kelvin)            630.87   866.77   888.38  1021.05  1126.56
                             1181.19  1211.28  1234.05  1264.73  1284.17
                             1358.20  1366.65  1406.10  1423.49  1466.63
                             1484.74  1536.09  1547.62  1609.87  1649.94
                             1684.76  1720.84  1749.60  1775.90  1825.82
                             1836.96  1850.11  1875.69  1903.38  1927.58
                             1990.74  2012.76  2121.75  2159.59  2179.25
                             2193.08  4337.83  4341.07  4350.12  4397.35
                             4414.41  4425.34  4453.20  4461.22  4496.49
                             4498.70

 Zero-point correction=                           0.162705 (Hartree/Particle)
 Thermal correction to Energy=                    0.169228
 Thermal correction to Enthalpy=                  0.170172
 Thermal correction to Gibbs Free Energy=         0.132180
 Sum of electronic and zero-point Energies=           -422.974959
 Sum of electronic and thermal Energies=              -422.968435
 Sum of electronic and thermal Enthalpies=            -422.967491
 Sum of electronic and thermal Free Energies=         -423.005483

                     E (Thermal)             CV                S
                      KCal/Mol        Cal/Mol-Kelvin    Cal/Mol-Kelvin
 Total                  106.192             27.607             79.961
 Electronic               0.000              0.000              0.000
 Translational            0.889              2.981             40.409
 Rotational               0.889              2.981             28.001
 Vibrational            104.415             21.645             11.552
 Vibration     1          0.631              1.863              2.297
 Vibration     2          0.680              1.710              1.531
 Vibration     3          0.704              1.639              1.320
 Vibration     4          0.728              1.572              1.160
 Vibration     5          0.771              1.457              0.941
 Vibration     6          0.799              1.386              0.831
 Vibration     7          0.961              1.027              0.445
 Vibration     8          0.977              0.995              0.421

 Optimization completed.
    -- Stationary point found.
 Normal termination of Gaussian 09 at Mon Jan 27 13:06:19 2020.
