 Gaussian 09, Revision D.01,
 Gaussian 09:  ES64L-G09RevD.01 24-Apr-2013

 -----------------------------
 # b3lyp 6-31G(2df,p) opt Freq
 -----------------------------

 -----
 titel
 -----
 Symbolic Z-matrix:
 Charge =  0 Multiplicity = 1

 SCF Done:  E(RB3LYP) =  -423.132198585     A.U. after   12 cycles
 Optimization completed.
    -- Stationary point found.
 Normal termination of Gaussian 09 at Mon Jan 27 22:02:36 2020.

 ----------------------------------------------------------------------
 #N Geom=AllCheck Guess=TCheck SCRF=Check GenChk RB3LYP/6-31G(2df,p) Fr
 eq
 ----------------------------------------------------------------------

 Structure from the checkpoint file:  "/scratch/puck/g09_c4b91cfa-2ce5-4fbd-b9a1-f5082af6c679/Gau-176396.chk"
 -----
 titel
 -----
 Charge =  0 Multiplicity = 1

                         Standard orientation:
 ---------------------------------------------------------------------
 Center     Atomic      Atomic             Coordinates (Angstroms)
 Number     Number       Type             X           Y           Z
 ---------------------------------------------------------------------
      1          6           0        2.823021   -0.220698    0.035925
      2          6           0        1.339597   -0.010960   -0.044833
      3          6           0        0.620235    1.159745   -0.727527
      4          6           0       -0.643984    0.685967    0.026784
      5          8           0       -1.715638    1.507787    0.303310
      6          6           0        0.315694   -0.088695    1.062745
      7          6           0        0.342210   -1.173753   -0.000431
      8          6           0       -0.972742   -0.689948   -0.616486
      9          8           0       -2.121637   -1.321566   -0.109815
     10          1           0        3.328501    0.672798    0.420080
     11          1           0        3.068551   -1.054788    0.701778
     12          1           0        3.248362   -0.446152   -0.948932
     13          1           0        0.990540    2.117876   -0.342131
     14          1           0        0.570627    1.198806   -1.822913
     15          1           0       -1.382605    2.347684    0.636720
     16          1           0        0.421916   -0.117107    2.138198
     17          1           0        0.672796   -2.199633    0.105455
     18          1           0       -1.081693   -0.706336   -1.706379
     19          1           0       -2.082985   -1.272871    0.853115
 ---------------------------------------------------------------------

 SCF Done:  E(RB3LYP) =  -423.132198585     A.U. after    1 cycles

 The electronic state is 1-A.
 Alpha  occ. eigenvalues --  -19.15012 -19.12889 -10.24172 -10.22642 -10.20292
 Alpha  occ. eigenvalues --  -10.18790 -10.18626 -10.18441 -10.18317  -1.04096
 Alpha  occ. eigenvalues --   -1.01159  -0.92087  -0.74168  -0.71501  -0.67372
 Alpha  occ. eigenvalues --   -0.61952  -0.55834  -0.53588  -0.53550  -0.47380
 Alpha  occ. eigenvalues --   -0.46216  -0.44455  -0.42093  -0.41203  -0.39304
 Alpha  occ. eigenvalues --   -0.38833  -0.38188  -0.37105  -0.34511  -0.31427
 Alpha  occ. eigenvalues --   -0.28565  -0.25782  -0.25000  -0.24231
 Alpha virt. eigenvalues --    0.06678   0.08867   0.10643   0.12082   0.12426
 Alpha virt. eigenvalues --    0.13057   0.13545   0.14650   0.15377   0.16594
 Alpha virt. eigenvalues --    0.18135   0.19058   0.19970   0.21096   0.23433

 Mulliken charges:
               1
     1  C   -0.500686
     2  C    0.348183
     3  C   -0.354260
     4  C    0.339853
     5  O   -0.468642
     6  C   -0.259794
     7  C   -0.144841
     8  C    0.124127
     9  O   -0.440983
    10  H    0.117034
    11  H    0.120177
    12  H    0.122347
    13  H    0.084092
    14  H    0.092616
    15  H    0.283582
    16  H    0.089710
    17  H    0.087710
    18  H    0.079066
    19  H    0.280707
 Sum of Mulliken charges =   0.00000

 Dipole moment (field-independent basis, Debye):
    X=              2.4280    Y=              1.2254    Z=              1.3102  Tot=              3.0188
 Quadrupole moment (field-independent basis, Debye-Ang):
   XX=            -59.4759   YY=            -49.8674   ZZ=            -50.3988
   XY=             -1.8606   XZ=             -2.3581   YZ=             -0.1367

  Exact polarizability:  83.189   0.604  74.338  -0.725  -0.675  68.166
 Approx polarizability: 112.978   1.817 110.456  -1.982   1.286 108.720

                      1                      2                      3
                      A                      A                      A
 Frequencies --    178.0236               206.6307               209.1703
 Red. masses --      2.5691                 1.5803                 1.5529
 Frc consts  --      0.0480                 0.0398                 0.0400
 IR Inten    --      6.7090                14.4162                 3.4896

                      4                      5                      6
                      A                      A                      A
 Frequencies --    223.0329               251.2060               307.2673
 Red. masses --      2.5745                 2.1271                 1.7069
 Frc consts  --      0.0755                 0.0791                 0.0950
 IR Inten    --      1.4647                 7.4546                28.9717

                      7                      8                      9
                      A                      A                      A
 Frequencies --    313.5743               402.9837               438.1618
 Red. masses --      1.2458                 2.9185                 2.2817
 Frc consts  --      0.0722                 0.2792                 0.2581
 IR Inten    --     94.6765                17.8062                 6.0222

                     10                     11                     12
                      A                      A                      A
 Frequencies --    461.2845               491.9967               602.9715
 Red. masses --      2.9084                 4.4626                 4.0030
 Frc consts  --      0.3646                 0.6365                 0.8575
 IR Inten    --      6.7581                 1.9126                15.3353

                     13                     14                     15
                      A                      A                      A
 Frequencies --    676.7935               751.3600               793.1672
 Red. masses --      3.6848                 3.6473                 2.9975
 Frc consts  --      0.9944                 1.2132                 1.1111
 IR Inten    --      6.4132                 4.8764                 8.1235

                     16                     17                     18
                      A                      A                      A
 Frequencies --    826.7688               884.6656               887.6422
 Red. masses --      1.3465                 1.8978                 2.6066
 Frc consts  --      0.5423                 0.8751                 1.2101
 IR Inten    --      6.2756                11.9129                13.4408

                     19                     20                     21
                      A                      A                      A
 Frequencies --    913.9291               951.0519               984.7768
 Red. masses --      2.0304                 1.8481                 1.7944
 Frc consts  --      0.9992                 0.9849                 1.0253
 IR Inten    --      2.3939                 8.0869                 4.1358

                     22                     23                     24
                      A                      A                      A
 Frequencies --   1011.3580              1030.0264              1051.0356
 Red. masses --      2.3943                 2.0212                 1.7242
 Frc consts  --      1.4429                 1.2634                 1.1222
 IR Inten    --     15.7526                15.9059                 4.6779

                     25                     26                     27
                      A                      A                      A
 Frequencies --   1087.0308              1093.4342              1120.5680
 Red. masses --      1.7755                 1.9347                 1.9599
 Frc consts  --      1.2361                 1.3629                 1.4500
 IR Inten    --      8.7391                39.6562                58.3109

                     28                     29                     30
                      A                      A                      A
 Frequencies --   1154.1578              1190.5591              1220.8613
 Red. masses --      1.7441                 1.6114                 1.7188
 Frc consts  --      1.3688                 1.3457                 1.5094
 IR Inten    --     16.7980                16.0717                72.3769

                     31                     32                     33
                      A                      A                      A
 Frequencies --   1243.4285              1269.6059              1294.9972
 Red. masses --      1.7024                 1.7874                 2.2559
 Frc consts  --      1.5508                 1.6975                 2.2289
 IR Inten    --      6.6717                28.5466                 1.4768

                     34                     35                     36
                      A                      A                      A
 Frequencies --   1320.6653              1386.3617              1404.5957
 Red. masses --      2.4384                 2.0329                 1.6742
 Frc consts  --      2.5058                 2.3020                 1.9460
 IR Inten    --    162.3991                15.7045                 0.9828

                     37                     38                     39
                      A                      A                      A
 Frequencies --   1425.5374              1446.8565              1486.8596
 Red. masses --      1.8720                 1.5426                 1.0444
 Frc consts  --      2.2414                 1.9027                 1.3604
 IR Inten    --      3.0217                84.4784                 3.6111

                     40                     41                     42
                      A                      A                      A
 Frequencies --   1498.0858              1505.1835              3013.4580
 Red. masses --      1.0839                 1.1798                 1.0554
 Frc consts  --      1.4332                 1.5748                 5.6470
 IR Inten    --      6.1004                 5.5436                46.0936

                     43                     44                     45
                      A                      A                      A
 Frequencies --   3022.6467              3055.0735              3066.3350
 Red. masses --      1.0361                 1.0868                 1.1063
 Frc consts  --      5.5772                 5.9765                 6.1285
 IR Inten    --     44.2726                31.9278                51.2450

                     46                     47                     48
                      A                      A                      A
 Frequencies --   3082.1170              3094.7694              3192.5003
 Red. masses --      1.1009                 1.1003                 1.0911
 Frc consts  --      6.1618                 6.2091                 6.5519
 IR Inten    --     26.8820                20.4760                11.8951

                     49                     50                     51
                      A                      A                      A
 Frequencies --   3214.0961              3784.4187              3807.7177
 Red. masses --      1.0985                 1.0650                 1.0659
 Frc consts  --      6.6858                 8.9869                 9.1051
 IR Inten    --      5.7274                10.6065                23.3423

 - Thermochemistry -
 -------------------
 Temperature   298.150 Kelvin.  Pressure   1.00000 Atm.
 Atom     1 has atomic number  6 and mass  12.00000

 Molecular mass:   126.06808 amu.
 Principal axes and moments of inertia in atomic units:
                           1         2         3
     Eigenvalues --   604.402951213.949151533.49507
           X            0.99998  -0.00584  -0.00278
           Y            0.00579   0.99978  -0.02003
           Z            0.00289   0.02001   0.99980
 This molecule is an asymmetric top.
 Rotational symmetry number  1.
 Warning -- assumption of classical behavior for rotation
           may cause significant error
 Rotational temperatures (Kelvin)      0.14330     0.07135     0.05648
 Rotational constants (GHZ):           2.98599     1.48667     1.17688
 Zero-point vibrational energy     414690.3 (Joules/Mol)
                                   99.11335 (Kcal/Mol)
 Warning -- explicit consideration of  12 degrees of freedom as
           vibrations may cause significant error
 Vibrational temperatures:    256.14   297.30   300.95   320.89   361.43
          (Kelvin)            442.09   451.16   579.80   630.42   663.68
                              707.87   867.54   973.75  1081.04  1141.19
                             1189.53  1272.83  1277.12  1314.94  1368.35
                             1416.87  1455.12  1481.98  1512.20  1563.99
                             1573.21  1612.25  1660.57  1712.95  1756.54
                             1789.01  1826.68  1863.21  1900.14  1994.66
                             2020.90  2051.03  2081.70  2139.26  2155.41
                             2165.62  4335.69  4348.91  4395.56  4411.77
                             4434.47  4452.68  4593.29  4624.36  5444.93
                             5478.45

 Zero-point correction=                           0.157947 (Hartree/Particle)
 Thermal correction to Energy=                    0.166454
 Thermal correction to Enthalpy=                  0.167398
 Thermal correction to Gibbs Free Energy=         0.125657
 Sum of electronic and zero-point Energies=           -422.974251
 Sum of electronic and thermal Energies=              -422.965744
 Sum of electronic and thermal Enthalpies=            -422.964800
 Sum of electronic and thermal Free Energies=         -423.006542

                     E (Thermal)             CV                S
                      KCal/Mol        Cal/Mol-Kelvin    Cal/Mol-Kelvin
 Total                  104.452             33.844             87.853
 Electronic               0.000              0.000              0.000
 Translational            0.889              2.981             40.409
 Rotational               0.889              2.981             28.511
 Vibrational            102.674             27.882             18.933
 Vibration     1          0.628              1.869              2.349
 Vibration     2          0.641              1.830              2.073
 Vibration     3          0.642              1.827              2.051
 Vibration     4          0.649              1.806              1.934
 Vibration     5          0.663              1.761              1.722
 Vibration     6          0.697              1.660              1.377
 Vibration     7          0.701              1.648              1.343
 Vibration     8          0.768              1.464              0.952
 Vibration     9          0.798              1.387              0.832
 Vibration    10          0.819              1.336              0.762
 Vibration    11          0.848              1.268              0.678
 Vibration    12          0.961              1.025              0.445

 Normal termination of Gaussian 09 at Mon Jan 27 22:54:06 2020.
