 Gaussian 09, Revision D.01,
 Gaussian 09:  ES64L-G09RevD.01 24-Apr-2013

 -----------------------------
 # b3lyp 6-31G(2df,p) opt Freq
 -----------------------------

 -----
 titel
 -----
 Symbolic Z-matrix:
 Charge =  0 Multiplicity = 1

 SCF Done:  E(RB3LYP) =  -423.178208130     A.U. after   13 cycles
 Optimization completed.
    -- Stationary point found.
 Normal termination of Gaussian 09 at Mon Jan 27 11:29:46 2020.

 ----------------------------------------------------------------------
 #N Geom=AllCheck Guess=TCheck SCRF=Check GenChk RB3LYP/6-31G(2df,p) Fr
 eq
 ----------------------------------------------------------------------

 Structure from the checkpoint file:  "/scratch/puck/g09_5823e139-3415-4805-abf0-dc661c6ac235/Gau-60848.chk"
 -----
 titel
 -----
 Charge =  0 Multiplicity = 1

                         Standard orientation:
 ---------------------------------------------------------------------
 Center     Atomic      Atomic             Coordinates (Angstroms)
 Number     Number       Type             X           Y           Z
 ---------------------------------------------------------------------
      1          6           0       -1.164057    1.508978   -0.623292
      2          6           0       -1.208800    0.722541    0.668486
      3          6           0       -1.766339   -0.688039    0.638287
      4          8           0       -1.092651   -1.364364   -0.428812
      5          6           0        0.141681   -0.719235   -0.695668
      6          6           0        1.365115   -1.184421    0.116044
      7          8           0        2.213411   -0.043676    0.199579
      8          6           0        1.422780    1.153354    0.190270
      9          6           0        0.028914    0.713398   -0.196971
     10          1           0       -1.736936    1.150228   -1.474380
     11          1           0       -1.115610    2.589826   -0.536751
     12          1           0       -1.226938    1.265781    1.606841
     13          1           0       -1.578403   -1.184076    1.602632
     14          1           0       -2.840546   -0.750083    0.430618
     15          1           0        0.324264   -0.813373   -1.771799
     16          1           0        1.040676   -1.526124    1.112360
     17          1           0        1.934377   -1.988117   -0.357736
     18          1           0        1.449569    1.637754    1.176819
     19          1           0        1.867712    1.843043   -0.537682
 ---------------------------------------------------------------------

 SCF Done:  E(RB3LYP) =  -423.178208130     A.U. after    1 cycles

 The electronic state is 1-A.
 Alpha  occ. eigenvalues --  -19.14158 -19.13587 -10.23211 -10.23197 -10.23128
 Alpha  occ. eigenvalues --  -10.22284 -10.19949 -10.19785 -10.19508  -1.04461
 Alpha  occ. eigenvalues --   -1.02484  -0.86881  -0.75574  -0.72309  -0.67796
 Alpha  occ. eigenvalues --   -0.60537  -0.58131  -0.56514  -0.50524  -0.49979
 Alpha  occ. eigenvalues --   -0.46221  -0.45866  -0.45354  -0.42358  -0.40470
 Alpha  occ. eigenvalues --   -0.40149  -0.39030  -0.36446  -0.32693  -0.31576
 Alpha  occ. eigenvalues --   -0.29793  -0.28691  -0.25521  -0.24137
 Alpha virt. eigenvalues --    0.08032   0.09382   0.09673   0.11369   0.12441
 Alpha virt. eigenvalues --    0.13143   0.14704   0.15242   0.15948   0.17397
 Alpha virt. eigenvalues --    0.17774   0.19228   0.19756   0.20963   0.22487

 Mulliken charges:
               1
     1  C   -0.377570
     2  C   -0.102450
     3  C   -0.100563
     4  O   -0.274408
     5  C    0.043963
     6  C   -0.102036
     7  O   -0.265533
     8  C   -0.166820
     9  C    0.310207
    10  H    0.122072
    11  H    0.116670
    12  H    0.093673
    13  H    0.098219
    14  H    0.109709
    15  H    0.088228
    16  H    0.090922
    17  H    0.110027
    18  H    0.097673
    19  H    0.108016
 Sum of Mulliken charges =   0.00000

 Dipole moment (field-independent basis, Debye):
    X=             -1.0582    Y=              1.3042    Z=              0.5359  Tot=              1.7629
 Quadrupole moment (field-independent basis, Debye-Ang):
   XX=            -57.7952   YY=            -52.2534   ZZ=            -51.4375
   XY=             -1.6337   XZ=             -2.2345   YZ=             -0.5271

  Exact polarizability:  78.479  -1.158  76.497  -2.829  -1.690  66.807
 Approx polarizability: 109.295  -0.387 108.052  -4.946  -1.039 103.508

                      1                      2                      3
                      A                      A                      A
 Frequencies --     93.1348               170.9341               201.8516
 Red. masses --      3.3122                 2.6530                 2.2157
 Frc consts  --      0.0169                 0.0457                 0.0532
 IR Inten    --      2.3604                 3.8880                 3.3077

                      4                      5                      6
                      A                      A                      A
 Frequencies --    303.5046               364.4648               401.6959
 Red. masses --      2.6236                 2.5627                 2.7886
 Frc consts  --      0.1424                 0.2006                 0.2651
 IR Inten    --      0.3939                 1.2652                 5.4436

                      7                      8                      9
                      A                      A                      A
 Frequencies --    518.3937               568.2352               669.1060
 Red. masses --      3.7589                 5.1963                 3.0853
 Frc consts  --      0.5952                 0.9886                 0.8138
 IR Inten    --      1.1935                 0.5782                 4.1245

                     10                     11                     12
                      A                      A                      A
 Frequencies --    717.5610               780.0287               830.8414
 Red. masses --      4.4735                 2.9778                 2.1163
 Frc consts  --      1.3571                 1.0675                 0.8607
 IR Inten    --      4.8362                 0.6037                 2.0870

                     13                     14                     15
                      A                      A                      A
 Frequencies --    867.3332               906.3404               923.9930
 Red. masses --      2.2232                 1.5954                 3.3884
 Frc consts  --      0.9854                 0.7722                 1.7045
 IR Inten    --      6.5337                 4.0905                 8.5655

                     16                     17                     18
                      A                      A                      A
 Frequencies --    949.0775               957.9225               998.2413
 Red. masses --      2.0218                 3.0094                 1.8787
 Frc consts  --      1.0730                 1.6270                 1.1030
 IR Inten    --     14.0096                27.3295                21.9591

                     19                     20                     21
                      A                      A                      A
 Frequencies --   1051.8432              1065.1132              1072.4125
 Red. masses --      1.7383                 2.1269                 1.8789
 Frc consts  --      1.1331                 1.4216                 1.2731
 IR Inten    --     40.9276                 4.9945                19.4349

                     22                     23                     24
                      A                      A                      A
 Frequencies --   1081.0545              1089.4540              1109.9033
 Red. masses --      2.3472                 1.9337                 3.2368
 Frc consts  --      1.6162                 1.3522                 2.3493
 IR Inten    --     30.0621                 4.0385                31.6850

                     25                     26                     27
                      A                      A                      A
 Frequencies --   1122.7909              1135.1238              1202.8179
 Red. masses --      2.3913                 2.6374                 1.2201
 Frc consts  --      1.7762                 2.0023                 1.0400
 IR Inten    --     10.9557                40.4629                 1.1874

                     28                     29                     30
                      A                      A                      A
 Frequencies --   1219.4321              1231.7546              1256.0525
 Red. masses --      1.1967                 1.1351                 1.8183
 Frc consts  --      1.0485                 1.0147                 1.6902
 IR Inten    --      2.0792                12.5519                 8.8793

                     31                     32                     33
                      A                      A                      A
 Frequencies --   1288.2756              1303.8595              1329.8939
 Red. masses --      1.6818                 1.9280                 1.2327
 Frc consts  --      1.6446                 1.9311                 1.2845
 IR Inten    --      0.8602                 7.2457                 0.8174

                     34                     35                     36
                      A                      A                      A
 Frequencies --   1362.1894              1374.1876              1405.1745
 Red. masses --      1.3417                 1.4565                 1.4113
 Frc consts  --      1.4668                 1.6205                 1.6418
 IR Inten    --      6.9170                 5.7208                 4.1594

                     37                     38                     39
                      A                      A                      A
 Frequencies --   1422.9274              1489.3094              1511.3836
 Red. masses --      1.7824                 1.5982                 1.0903
 Frc consts  --      2.1263                 2.0886                 1.4674
 IR Inten    --      7.9642                 0.8226                 1.6564

                     40                     41                     42
                      A                      A                      A
 Frequencies --   1521.2011              1527.6697              2973.8799
 Red. masses --      1.0889                 1.0900                 1.0700
 Frc consts  --      1.4845                 1.4987                 5.5755
 IR Inten    --      0.2895                 0.7490                30.4996

                     43                     44                     45
                      A                      A                      A
 Frequencies --   2988.6863              2997.0678              3038.7482
 Red. masses --      1.0685                 1.0642                 1.1008
 Frc consts  --      5.6232                 5.6322                 5.9887
 IR Inten    --     96.7773                57.7806                33.3119

                     46                     47                     48
                      A                      A                      A
 Frequencies --   3049.4349              3056.8433              3095.8933
 Red. masses --      1.0854                 1.0947                 1.0941
 Frc consts  --      5.9467                 6.0270                 6.1787
 IR Inten    --     40.5689                41.9157                42.7907

                     49                     50                     51
                      A                      A                      A
 Frequencies --   3115.8768              3173.8732              3204.0659
 Red. masses --      1.0544                 1.0917                 1.1150
 Frc consts  --      6.0315                 6.4793                 6.7442
 IR Inten    --     14.5167                 8.1722                 8.5047

 - Thermochemistry -
 -------------------
 Temperature   298.150 Kelvin.  Pressure   1.00000 Atm.
 Atom     1 has atomic number  6 and mass  12.00000

 Molecular mass:   126.06808 amu.
 Principal axes and moments of inertia in atomic units:
                           1         2         3
     Eigenvalues --   636.799051007.327421362.85699
           X            0.99970  -0.02280  -0.00948
           Y            0.02262   0.99958  -0.01828
           Z            0.00989   0.01805   0.99979
 This molecule is an asymmetric top.
 Rotational symmetry number  1.
 Warning -- assumption of classical behavior for rotation
           may cause significant error
 Rotational temperatures (Kelvin)      0.13601     0.08598     0.06355
 Rotational constants (GHZ):           2.83408     1.79161     1.32423
 Zero-point vibrational energy     425217.7 (Joules/Mol)
                                  101.62948 (Kcal/Mol)
 Warning -- explicit consideration of   8 degrees of freedom as
           vibrations may cause significant error
 Vibrational temperatures:    134.00   245.94   290.42   436.67   524.38
          (Kelvin)            577.95   745.85   817.56   962.69  1032.41
                             1122.29  1195.39  1247.90  1304.02  1329.42
                             1365.51  1378.24  1436.24  1513.37  1532.46
                             1542.96  1555.39  1567.48  1596.90  1615.44
                             1633.19  1730.58  1754.49  1772.22  1807.18
                             1853.54  1875.96  1913.42  1959.88  1977.15
                             2021.73  2047.27  2142.78  2174.54  2188.67
                             2197.97  4278.74  4300.05  4312.11  4372.08
                             4387.45  4398.11  4454.29  4483.05  4566.49
                             4609.93

 Zero-point correction=                           0.161957 (Hartree/Particle)
 Thermal correction to Energy=                    0.169186
 Thermal correction to Enthalpy=                  0.170130
 Thermal correction to Gibbs Free Energy=         0.130204
 Sum of electronic and zero-point Energies=           -423.016251
 Sum of electronic and thermal Energies=              -423.009022
 Sum of electronic and thermal Enthalpies=            -423.008078
 Sum of electronic and thermal Free Energies=         -423.048004

                     E (Thermal)             CV                S
                      KCal/Mol        Cal/Mol-Kelvin    Cal/Mol-Kelvin
 Total                  106.166             28.558             84.030
 Electronic               0.000              0.000              0.000
 Translational            0.889              2.981             40.409
 Rotational               0.889              2.981             28.260
 Vibrational            104.388             22.597             15.361
 Vibration     1          0.602              1.954              3.593
 Vibration     2          0.626              1.878              2.425
 Vibration     3          0.639              1.837              2.116
 Vibration     4          0.695              1.667              1.398
 Vibration     5          0.738              1.545              1.103
 Vibration     6          0.767              1.466              0.956
 Vibration     7          0.873              1.209              0.614
 Vibration     8          0.924              1.100              0.508

 Optimization completed.
    -- Stationary point found.
 Normal termination of Gaussian 09 at Mon Jan 27 13:53:38 2020.
