 Gaussian 09, Revision D.01,
 Gaussian 09:  ES64L-G09RevD.01 24-Apr-2013

 -----------------------------
 # b3lyp 6-31G(2df,p) opt Freq
 -----------------------------

 -----
 titel
 -----
 Symbolic Z-matrix:
 Charge =  0 Multiplicity = 1

 SCF Done:  E(RB3LYP) =  -423.160966896     A.U. after   14 cycles
 Optimization completed.
    -- Stationary point found.
 Normal termination of Gaussian 09 at Tue Jan 28 13:30:25 2020.

 ----------------------------------------------------------------------
 #N Geom=AllCheck Guess=TCheck SCRF=Check GenChk RB3LYP/6-31G(2df,p) Fr
 eq
 ----------------------------------------------------------------------

 Structure from the checkpoint file:  "/scratch/puck/g09_473e3570-6db6-453f-95e5-e4edbea741ed/Gau-32017.chk"
 -----
 titel
 -----
 Charge =  0 Multiplicity = 1

                         Standard orientation:
 ---------------------------------------------------------------------
 Center     Atomic      Atomic             Coordinates (Angstroms)
 Number     Number       Type             X           Y           Z
 ---------------------------------------------------------------------
      1          6           0       -3.103212   -0.776327   -0.025074
      2          8           0       -2.195679    0.225251   -0.424785
      3          6           0       -1.035876    0.296770    0.386511
      4          6           0        0.005099   -0.823634    0.103463
      5          6           0        1.337893   -0.094175   -0.077047
      6          6           0        2.549389   -0.706056   -0.637227
      7          8           0        2.444925   -0.469923    0.767343
      8          6           0        1.007493    1.352345   -0.168549
      9          6           0       -0.283750    1.568361    0.072769
     10          1           0       -3.427084   -0.637339    1.018772
     11          1           0       -3.975794   -0.701996   -0.678563
     12          1           0       -2.679199   -1.787497   -0.119870
     13          1           0       -1.347844    0.290046    1.445669
     14          1           0        0.081712   -1.570294    0.896600
     15          1           0       -0.285834   -1.328495   -0.823039
     16          1           0        2.525464   -1.753037   -0.940714
     17          1           0        3.278530   -0.091639   -1.165835
     18          1           0        1.758854    2.105055   -0.376082
     19          1           0       -0.784985    2.528878    0.073514
 ---------------------------------------------------------------------

 SCF Done:  E(RB3LYP) =  -423.160966896     A.U. after    1 cycles

 The electronic state is 1-A.
 Alpha  occ. eigenvalues --  -19.14596 -19.14042 -10.24314 -10.23810 -10.23020
 Alpha  occ. eigenvalues --  -10.22520 -10.18920 -10.18816 -10.18420  -1.06488
 Alpha  occ. eigenvalues --   -1.03358  -0.83858  -0.72130  -0.71016  -0.66480
 Alpha  occ. eigenvalues --   -0.63899  -0.57144  -0.54641  -0.51225  -0.49539
 Alpha  occ. eigenvalues --   -0.47300  -0.45527  -0.43988  -0.43206  -0.41194
 Alpha  occ. eigenvalues --   -0.37842  -0.37230  -0.36041  -0.35366  -0.32139
 Alpha  occ. eigenvalues --   -0.31362  -0.26644  -0.26433  -0.24265
 Alpha virt. eigenvalues --    0.00097   0.09192   0.09692   0.11258   0.12428
 Alpha virt. eigenvalues --    0.12949   0.13861   0.15057   0.15717   0.16364
 Alpha virt. eigenvalues --    0.16849   0.17275   0.19255   0.21177   0.21933

 Mulliken charges:
               1
     1  C   -0.234052
     2  O   -0.247680
     3  C    0.081541
     4  C   -0.337337
     5  C    0.415954
     6  C   -0.247330
     7  O   -0.278891
     8  C   -0.141281
     9  C   -0.098950
    10  H    0.104634
    11  H    0.127578
    12  H    0.106460
    13  H    0.074834
    14  H    0.117297
    15  H    0.119596
    16  H    0.110658
    17  H    0.110356
    18  H    0.107155
    19  H    0.109458
 Sum of Mulliken charges =   0.00000

 Dipole moment (field-independent basis, Debye):
    X=             -0.8500    Y=             -0.4547    Z=             -0.6623  Tot=              1.1696
 Quadrupole moment (field-independent basis, Debye-Ang):
   XX=            -53.1309   YY=            -50.0133   ZZ=            -54.9438
   XY=              2.9367   XZ=             -6.6494   YZ=              1.2907

  Exact polarizability: 103.670  -2.292  75.152  -7.524   1.188  57.979
 Approx polarizability: 140.110  -8.634 106.594  -7.519   0.413  94.622

                      1                      2                      3
                      A                      A                      A
 Frequencies --     39.0316               102.4727               165.1175
 Red. masses --      3.0036                 2.5513                 2.8592
 Frc consts  --      0.0027                 0.0158                 0.0459
 IR Inten    --      1.5718                 2.5207                 2.0325

                      4                      5                      6
                      A                      A                      A
 Frequencies --    193.4841               279.9122               318.3981
 Red. masses --      1.3205                 2.9133                 2.7033
 Frc consts  --      0.0291                 0.1345                 0.1615
 IR Inten    --      1.0774                 2.4817                 2.3107

                      7                      8                      9
                      A                      A                      A
 Frequencies --    352.2971               409.7847               450.8618
 Red. masses --      3.8038                 2.5018                 2.8095
 Frc consts  --      0.2782                 0.2475                 0.3365
 IR Inten    --      6.9091                 5.7460                 0.9893

                     10                     11                     12
                      A                      A                      A
 Frequencies --    492.7046               592.0160               709.3127
 Red. masses --      3.8165                 3.5804                 3.4329
 Frc consts  --      0.5459                 0.7393                 1.0176
 IR Inten    --      1.3870                 1.6295                13.0518

                     13                     14                     15
                      A                      A                      A
 Frequencies --    794.4426               801.4961               835.9170
 Red. masses --      4.4603                 1.9503                 2.6208
 Frc consts  --      1.6586                 0.7382                 1.0790
 IR Inten    --     24.0776                 6.0839                15.0767

                     16                     17                     18
                      A                      A                      A
 Frequencies --    863.5124               907.0227               970.0331
 Red. masses --      2.5236                 1.3725                 4.1849
 Frc consts  --      1.1087                 0.6653                 2.3201
 IR Inten    --      4.9031                 2.6727                12.6287

                     19                     20                     21
                      A                      A                      A
 Frequencies --    975.7614               987.5229              1035.0638
 Red. masses --      1.3552                 2.6791                 2.5263
 Frc consts  --      0.7602                 1.5394                 1.5947
 IR Inten    --      2.4438                 3.1748                41.5629

                     22                     23                     24
                      A                      A                      A
 Frequencies --   1059.9134              1116.2370              1127.7214
 Red. masses --      2.7276                 1.2080                 1.2734
 Frc consts  --      1.8054                 0.8868                 0.9541
 IR Inten    --     19.0403                 4.1399                 5.3692

                     25                     26                     27
                      A                      A                      A
 Frequencies --   1145.1667              1163.2742              1181.7747
 Red. masses --      3.6825                 1.4003                 1.2965
 Frc consts  --      2.8453                 1.1165                 1.0668
 IR Inten    --    156.9118                12.9398                 3.1058

                     28                     29                     30
                      A                      A                      A
 Frequencies --   1199.8660              1217.3069              1246.5424
 Red. masses --      1.3236                 1.5267                 2.1389
 Frc consts  --      1.1227                 1.3329                 1.9582
 IR Inten    --      1.6628                30.0508                12.6543

                     31                     32                     33
                      A                      A                      A
 Frequencies --   1263.5824              1330.2858              1339.8173
 Red. masses --      1.4119                 1.7257                 1.9022
 Frc consts  --      1.3282                 1.7993                 2.0119
 IR Inten    --      6.5749                 5.6175                 7.2372

                     34                     35                     36
                      A                      A                      A
 Frequencies --   1379.0143              1429.8039              1466.7119
 Red. masses --      1.3866                 2.3900                 1.0966
 Frc consts  --      1.5536                 2.8787                 1.3899
 IR Inten    --     38.9006                34.5383                 1.5863

                     37                     38                     39
                      A                      A                      A
 Frequencies --   1478.8642              1489.1037              1509.7336
 Red. masses --      1.1179                 1.0771                 1.0605
 Frc consts  --      1.4405                 1.4072                 1.4242
 IR Inten    --      2.6921                 2.6736                 5.8216

                     40                     41                     42
                      A                      A                      A
 Frequencies --   1528.5269              1682.6951              2943.0249
 Red. masses --      1.3600                 6.9192                 1.0810
 Frc consts  --      1.8721                11.5429                 5.5166
 IR Inten    --      2.8077                 0.0107                42.7891

                     43                     44                     45
                      A                      A                      A
 Frequencies --   2972.7547              3019.1490              3058.6680
 Red. masses --      1.0382                 1.1018                 1.0616
 Frc consts  --      5.4058                 5.9172                 5.8518
 IR Inten    --     66.0026                50.5924                12.3924

                     46                     47                     48
                      A                      A                      A
 Frequencies --   3069.1144              3113.9885              3116.8261
 Red. masses --      1.0502                 1.0961                 1.1029
 Frc consts  --      5.8284                 6.2625                 6.3128
 IR Inten    --     33.5530                27.1667                14.6953

                     49                     50                     51
                      A                      A                      A
 Frequencies --   3153.1574              3196.6305              3220.6376
 Red. masses --      1.1191                 1.0856                 1.1052
 Frc consts  --      6.5555                 6.5360                 6.7541
 IR Inten    --     23.5772                 2.8902                11.2342

 - Thermochemistry -
 -------------------
 Temperature   298.150 Kelvin.  Pressure   1.00000 Atm.
 Atom     1 has atomic number  6 and mass  12.00000

 Molecular mass:   126.06808 amu.
 Principal axes and moments of inertia in atomic units:
                           1         2         3
     Eigenvalues --   455.526341780.993502044.29769
           X            0.99964   0.01834  -0.01982
           Y           -0.01803   0.99971   0.01580
           Z            0.02010  -0.01544   0.99968
 This molecule is an asymmetric top.
 Rotational symmetry number  1.
 Warning -- assumption of classical behavior for rotation
           may cause significant error
 Rotational temperatures (Kelvin)      0.19014     0.04863     0.04237
 Rotational constants (GHZ):           3.96188     1.01333     0.88282
 Zero-point vibrational energy     415678.7 (Joules/Mol)
                                   99.34960 (Kcal/Mol)
 Warning -- explicit consideration of  11 degrees of freedom as
           vibrations may cause significant error
 Vibrational temperatures:     56.16   147.44   237.57   278.38   402.73
          (Kelvin)            458.10   506.88   589.59   648.69   708.89
                              851.78  1020.54  1143.02  1153.17  1202.70
                             1242.40  1305.00  1395.66  1403.90  1420.82
                             1489.22  1524.98  1606.01  1622.54  1647.64
                             1673.69  1700.31  1726.34  1751.43  1793.49
                             1818.01  1913.98  1927.70  1984.09  2057.17
                             2110.27  2127.75  2142.49  2172.17  2199.21
                             2421.02  4234.35  4277.13  4343.88  4400.74
                             4415.77  4480.33  4484.41  4536.68  4599.23
                             4633.77

 Zero-point correction=                           0.158324 (Hartree/Particle)
 Thermal correction to Energy=                    0.166949
 Thermal correction to Enthalpy=                  0.167893
 Thermal correction to Gibbs Free Energy=         0.124286
 Sum of electronic and zero-point Energies=           -423.002643
 Sum of electronic and thermal Energies=              -422.994018
 Sum of electronic and thermal Enthalpies=            -422.993074
 Sum of electronic and thermal Free Energies=         -423.036681

                     E (Thermal)             CV                S
                      KCal/Mol        Cal/Mol-Kelvin    Cal/Mol-Kelvin
 Total                  104.762             32.138             91.778
 Electronic               0.000              0.000              0.000
 Translational            0.889              2.981             40.409
 Rotational               0.889              2.981             28.896
 Vibrational            102.985             26.176             22.473
 Vibration     1          0.594              1.981              5.308
 Vibration     2          0.605              1.947              3.407
 Vibration     3          0.624              1.885              2.490
 Vibration     4          0.635              1.849              2.194
 Vibration     5          0.680              1.711              1.534
 Vibration     6          0.705              1.638              1.318
 Vibration     7          0.729              1.571              1.156
 Vibration     8          0.774              1.449              0.927
 Vibration     9          0.810              1.359              0.793
 Vibration    10          0.848              1.266              0.677
 Vibration    11          0.949              1.049              0.464

 Optimization completed.
    -- Stationary point found.
 Normal termination of Gaussian 09 at Tue Jan 28 14:09:54 2020.
