 Gaussian 09, Revision D.01,
 Gaussian 09:  ES64L-G09RevD.01 24-Apr-2013

 -----------------------------
 # b3lyp 6-31G(2df,p) opt Freq
 -----------------------------

 -----
 titel
 -----
 Symbolic Z-matrix:
 Charge =  0 Multiplicity = 1

 SCF Done:  E(RB3LYP) =  -423.127555274     A.U. after   14 cycles
 Optimization completed.
    -- Stationary point found.
 Normal termination of Gaussian 09 at Tue Jan 28 08:53:01 2020.

 ----------------------------------------------------------------------
 #N Geom=AllCheck Guess=TCheck SCRF=Check GenChk RB3LYP/6-31G(2df,p) Fr
 eq
 ----------------------------------------------------------------------

 Structure from the checkpoint file:  "/scratch/puck/g09_e098fdab-d51a-46ce-84cb-b6f31d297c64/Gau-103715.chk"
 -----
 titel
 -----
 Charge =  0 Multiplicity = 1

                         Standard orientation:
 ---------------------------------------------------------------------
 Center     Atomic      Atomic             Coordinates (Angstroms)
 Number     Number       Type             X           Y           Z
 ---------------------------------------------------------------------
      1          6           0        1.955453   -0.829311   -0.491989
      2          6           0        0.820930   -0.205825    0.296352
      3          6           0        0.979661    1.286888    0.547533
      4          8           0        0.945984    2.044506   -0.649126
      5          6           0        0.107301   -1.011632    1.355323
      6          6           0       -0.594969   -0.707163    0.037333
      7          8           0       -0.702599   -1.747729   -0.898785
      8          6           0       -1.688891    0.232264    0.005977
      9          6           0       -2.610651    1.005315   -0.050243
     10          1           0        1.725908   -1.852499   -0.790446
     11          1           0        2.147367   -0.238603   -1.392184
     12          1           0        2.870904   -0.835597    0.110575
     13          1           0        0.219400    1.634741    1.260333
     14          1           0        1.961791    1.472457    0.997318
     15          1           0        0.048347    1.977115   -0.995284
     16          1           0        0.407418   -2.045837    1.487851
     17          1           0       -0.241346   -0.510769    2.252400
     18          1           0       -1.470189   -2.278933   -0.658754
     19          1           0       -3.429688    1.680492   -0.090245
 ---------------------------------------------------------------------

 SCF Done:  E(RB3LYP) =  -423.127555274     A.U. after    1 cycles

 The electronic state is 1-A.
 Alpha  occ. eigenvalues --  -19.15493 -19.12892 -10.26605 -10.22523 -10.20466
 Alpha  occ. eigenvalues --  -10.19416 -10.19355 -10.18673 -10.17126  -1.04258
 Alpha  occ. eigenvalues --   -1.01110  -0.86940  -0.76150  -0.71712  -0.67790
 Alpha  occ. eigenvalues --   -0.63818  -0.57423  -0.55188  -0.51530  -0.49679
 Alpha  occ. eigenvalues --   -0.48274  -0.44860  -0.42829  -0.41856  -0.39759
 Alpha  occ. eigenvalues --   -0.37805  -0.36662  -0.35174  -0.32840  -0.31590
 Alpha  occ. eigenvalues --   -0.28384  -0.27889  -0.26366  -0.24665
 Alpha virt. eigenvalues --    0.02645   0.03810   0.08504   0.09279   0.11605
 Alpha virt. eigenvalues --    0.12011   0.12614   0.13647   0.15343   0.16484
 Alpha virt. eigenvalues --    0.17573   0.18433   0.20075   0.20775   0.22304

 Mulliken charges:
               1
     1  C   -0.457604
     2  C    0.253240
     3  C   -0.124322
     4  O   -0.422386
     5  C   -0.400374
     6  C    0.175908
     7  O   -0.446700
     8  C    0.302721
     9  C   -0.483830
    10  H    0.132282
    11  H    0.137207
    12  H    0.112520
    13  H    0.093119
    14  H    0.107633
    15  H    0.289034
    16  H    0.120079
    17  H    0.119922
    18  H    0.289109
    19  H    0.202443
 Sum of Mulliken charges =   0.00000

 Dipole moment (field-independent basis, Debye):
    X=             -1.6759    Y=             -1.1224    Z=              1.4779  Tot=              2.5005
 Quadrupole moment (field-independent basis, Debye-Ang):
   XX=            -49.2110   YY=            -52.4130   ZZ=            -54.5333
   XY=             -3.0122   XZ=              2.0749   YZ=             -0.3482

  Exact polarizability:  93.334 -10.814  78.446   1.996  -1.653  64.102
 Approx polarizability: 135.516 -21.274 117.180   4.148  -3.766  97.843

                      1                      2                      3
                      A                      A                      A
 Frequencies --     85.8248               115.7632               158.9243
 Red. masses --      4.7313                 4.2330                 2.8954
 Frc consts  --      0.0205                 0.0334                 0.0431
 IR Inten    --      1.9713                 0.3866                 0.3579

                      4                      5                      6
                      A                      A                      A
 Frequencies --    190.2525               205.5193               264.1669
 Red. masses --      1.0699                 3.4812                 3.2400
 Frc consts  --      0.0228                 0.0866                 0.1332
 IR Inten    --      1.0690                 2.1816                 1.1660

                      7                      8                      9
                      A                      A                      A
 Frequencies --    286.7987               297.2494               343.7030
 Red. masses --      1.1804                 3.2434                 2.1373
 Frc consts  --      0.0572                 0.1688                 0.1488
 IR Inten    --     87.2703                10.1010                10.7648

                     10                     11                     12
                      A                      A                      A
 Frequencies --    410.1649               427.8412               447.2562
 Red. masses --      1.6623                 2.0964                 2.4155
 Frc consts  --      0.1648                 0.2261                 0.2847
 IR Inten    --     38.2270                32.3642                 0.6977

                     13                     14                     15
                      A                      A                      A
 Frequencies --    505.8981               564.4358               572.4140
 Red. masses --      4.0894                 3.4761                 5.5757
 Frc consts  --      0.6166                 0.6525                 1.0764
 IR Inten    --     26.5624                 7.0977                 6.4476

                     16                     17                     18
                      A                      A                      A
 Frequencies --    594.8789               670.6403               677.1657
 Red. masses --      1.2366                 4.8406                 1.2585
 Frc consts  --      0.2578                 1.2827                 0.3400
 IR Inten    --     45.7610                 2.8801                36.0607

                     19                     20                     21
                      A                      A                      A
 Frequencies --    777.3699               883.1724               903.7794
 Red. masses --      4.1848                 3.2678                 1.3838
 Frc consts  --      1.4900                 1.5018                 0.6660
 IR Inten    --      5.6043                19.3528                 5.3936

                     22                     23                     24
                      A                      A                      A
 Frequencies --    923.3645               963.6458               988.6903
 Red. masses --      1.6438                 1.3711                 1.9269
 Frc consts  --      0.8257                 0.7501                 1.1098
 IR Inten    --      5.8195                 6.5979                 8.2467

                     25                     26                     27
                      A                      A                      A
 Frequencies --   1051.5876              1072.9506              1107.1052
 Red. masses --      1.4724                 3.1096                 1.7595
 Frc consts  --      0.9593                 2.1092                 1.2706
 IR Inten    --     13.3506                83.9092                14.9163

                     28                     29                     30
                      A                      A                      A
 Frequencies --   1127.9502              1207.2606              1219.8684
 Red. masses --      3.1291                 2.5764                 1.6867
 Frc consts  --      2.3456                 2.2124                 1.4788
 IR Inten    --     36.7309                65.5251                34.8982

                     31                     32                     33
                      A                      A                      A
 Frequencies --   1307.1438              1309.6519              1377.7062
 Red. masses --      1.4819                 3.0428                 1.5352
 Frc consts  --      1.4918                 3.0749                 1.7169
 IR Inten    --     24.4966                14.2319                12.4419

                     34                     35                     36
                      A                      A                      A
 Frequencies --   1398.2887              1414.8240              1422.9503
 Red. masses --      1.2788                 1.3634                 1.3064
 Frc consts  --      1.4732                 1.6079                 1.5585
 IR Inten    --      5.4443                13.9742                39.9371

                     37                     38                     39
                      A                      A                      A
 Frequencies --   1471.0382              1488.5834              1498.5925
 Red. masses --      1.3020                 1.0953                 1.0786
 Frc consts  --      1.6600                 1.4300                 1.4271
 IR Inten    --      8.0488                 1.2922                 2.3506

                     40                     41                     42
                      A                      A                      A
 Frequencies --   1505.6926              2220.4675              3006.5604
 Red. masses --      1.0801                 6.0196                 1.0638
 Frc consts  --      1.4427                17.4866                 5.6654
 IR Inten    --      6.6705                 6.7247                41.2561

                     43                     44                     45
                      A                      A                      A
 Frequencies --   3038.4976              3065.9255              3105.4112
 Red. masses --      1.0410                 1.0992                 1.0967
 Frc consts  --      5.6628                 6.0875                 6.2312
 IR Inten    --     26.8816                40.0015                14.4461

                     46                     47                     48
                      A                      A                      A
 Frequencies --   3127.4152              3147.4694              3220.6880
 Red. masses --      1.0537                 1.0992                 1.1178
 Frc consts  --      6.0718                 6.4159                 6.8314
 IR Inten    --      8.1553                 8.7475                 4.8331

                     49                     50                     51
                      A                      A                      A
 Frequencies --   3498.5336              3792.6706              3796.7173
 Red. masses --      1.1596                 1.0658                 1.0663
 Frc consts  --      8.3621                 9.0329                 9.0565
 IR Inten    --     83.6316                27.0021                26.4749

 - Thermochemistry -
 -------------------
 Temperature   298.150 Kelvin.  Pressure   1.00000 Atm.
 Atom     1 has atomic number  6 and mass  12.00000

 Molecular mass:   126.06808 amu.
 Principal axes and moments of inertia in atomic units:
                           1         2         3
     Eigenvalues --   940.745951093.379831582.35551
           X            0.99037  -0.13840  -0.00253
           Y            0.13841   0.99037   0.00302
           Z            0.00209  -0.00334   0.99999
 This molecule is an asymmetric top.
 Rotational symmetry number  1.
 Warning -- assumption of classical behavior for rotation
           may cause significant error
 Rotational temperatures (Kelvin)      0.09207     0.07922     0.05474
 Rotational constants (GHZ):           1.91842     1.65061     1.14054
 Zero-point vibrational energy     408288.3 (Joules/Mol)
                                   97.58324 (Kcal/Mol)
 Warning -- explicit consideration of  16 degrees of freedom as
           vibrations may cause significant error
 Vibrational temperatures:    123.48   166.56   228.66   273.73   295.70
          (Kelvin)            380.08   412.64   427.68   494.51   590.14
                              615.57   643.50   727.87   812.10   823.57
                              855.90   964.90   974.29  1118.46  1270.69
                             1300.34  1328.51  1386.47  1422.50  1513.00
                             1543.73  1592.88  1622.87  1736.98  1755.12
                             1880.69  1884.29  1982.21  2011.82  2035.61
                             2047.31  2116.49  2141.74  2156.14  2166.35
                             3194.75  4325.76  4371.71  4411.18  4467.99
                             4499.65  4528.50  4633.85  5033.60  5456.80
                             5462.62

 Zero-point correction=                           0.155509 (Hartree/Particle)
 Thermal correction to Energy=                    0.165630
 Thermal correction to Enthalpy=                  0.166574
 Thermal correction to Gibbs Free Energy=         0.121159
 Sum of electronic and zero-point Energies=           -422.972046
 Sum of electronic and thermal Energies=              -422.961926
 Sum of electronic and thermal Enthalpies=            -422.960981
 Sum of electronic and thermal Free Energies=         -423.006396

                     E (Thermal)             CV                S
                      KCal/Mol        Cal/Mol-Kelvin    Cal/Mol-Kelvin
 Total                  103.934             38.161             95.584
 Electronic               0.000              0.000              0.000
 Translational            0.889              2.981             40.409
 Rotational               0.889              2.981             28.878
 Vibrational            102.157             32.199             26.298
 Vibration     1          0.601              1.959              3.753
 Vibration     2          0.608              1.936              3.170
 Vibration     3          0.621              1.893              2.563
 Vibration     4          0.634              1.853              2.225
 Vibration     5          0.640              1.832              2.083
 Vibration     6          0.671              1.739              1.634
 Vibration     7          0.684              1.698              1.493
 Vibration     8          0.691              1.679              1.432
 Vibration     9          0.722              1.588              1.195
 Vibration    10          0.774              1.448              0.926
 Vibration    11          0.789              1.410              0.866
 Vibration    12          0.806              1.367              0.804
 Vibration    13          0.861              1.237              0.644
 Vibration    14          0.920              1.108              0.515
 Vibration    15          0.929              1.091              0.500
 Vibration    16          0.953              1.043              0.459

 Normal termination of Gaussian 09 at Tue Jan 28 09:35:28 2020.
