 Gaussian 09, Revision D.01,
 Gaussian 09:  ES64L-G09RevD.01 24-Apr-2013

 -----------------------------
 # b3lyp 6-31G(2df,p) opt Freq
 -----------------------------

 -----
 titel
 -----
 Symbolic Z-matrix:
 Charge =  0 Multiplicity = 1

 SCF Done:  E(RB3LYP) =  -423.157736935     A.U. after   14 cycles
 Optimization completed.
    -- Stationary point found.
 Normal termination of Gaussian 09 at Mon Jan 27 17:14:06 2020.

 ----------------------------------------------------------------------
 #N Geom=AllCheck Guess=TCheck SCRF=Check GenChk RB3LYP/6-31G(2df,p) Fr
 eq
 ----------------------------------------------------------------------

 Structure from the checkpoint file:  "/scratch/puck/g09_38c754cf-61d0-4a44-ad6a-a5818bb69f99/Gau-179308.chk"
 -----
 titel
 -----
 Charge =  0 Multiplicity = 1

                         Standard orientation:
 ---------------------------------------------------------------------
 Center     Atomic      Atomic             Coordinates (Angstroms)
 Number     Number       Type             X           Y           Z
 ---------------------------------------------------------------------
      1          8           0       -0.190565    2.032724   -0.067109
      2          6           0        0.328132    0.748109   -0.029161
      3          6           0        1.328079    0.237596    1.063678
      4          6           0        1.587482   -0.861964   -0.004802
      5          6           0        1.358796    0.254608   -1.074578
      6          6           0        0.239097   -1.622006   -0.017573
      7          6           0       -0.681237   -0.394935   -0.052283
      8          6           0       -2.020822   -0.286441   -0.620858
      9          8           0       -1.812689   -0.255049    0.807840
     10          1           0       -0.932792    2.045895    0.552564
     11          1           0        2.170126    0.921401    1.185667
     12          1           0        0.926830   -0.065803    2.034750
     13          1           0        2.497303   -1.458550    0.001508
     14          1           0        2.211079    0.931161   -1.162624
     15          1           0        0.991842   -0.033982   -2.063909
     16          1           0        0.119076   -2.267844   -0.892356
     17          1           0        0.077765   -2.220379    0.883782
     18          1           0       -2.346906    0.654379   -1.060543
     19          1           0       -2.525461   -1.177480   -0.991229
 ---------------------------------------------------------------------

 SCF Done:  E(RB3LYP) =  -423.157736935     A.U. after    1 cycles

 The electronic state is 1-A.
 Alpha  occ. eigenvalues --  -19.15307 -19.14359 -10.24013 -10.23808 -10.23180
 Alpha  occ. eigenvalues --  -10.19891 -10.18866 -10.18607 -10.18100  -1.07262
 Alpha  occ. eigenvalues --   -1.02812  -0.88673  -0.72250  -0.68127  -0.66285
 Alpha  occ. eigenvalues --   -0.65069  -0.56692  -0.54887  -0.52679  -0.49825
 Alpha  occ. eigenvalues --   -0.46424  -0.44978  -0.43476  -0.41975  -0.39190
 Alpha  occ. eigenvalues --   -0.37453  -0.36787  -0.35094  -0.33666  -0.32146
 Alpha  occ. eigenvalues --   -0.31606  -0.30087  -0.27231  -0.25017
 Alpha virt. eigenvalues --    0.08175   0.09654   0.09802   0.12130   0.12792
 Alpha virt. eigenvalues --    0.13313   0.13845   0.15628   0.16085   0.16447
 Alpha virt. eigenvalues --    0.16896   0.18082   0.20803   0.21535   0.21976

 Mulliken charges:
               1
     1  O   -0.496422
     2  C    0.367413
     3  C   -0.296441
     4  C   -0.034309
     5  C   -0.272354
     6  C   -0.318451
     7  C    0.431820
     8  C   -0.288792
     9  O   -0.312028
    10  H    0.286291
    11  H    0.102955
    12  H    0.099783
    13  H    0.071903
    14  H    0.108003
    15  H    0.093495
    16  H    0.104698
    17  H    0.116387
    18  H    0.119076
    19  H    0.116971
 Sum of Mulliken charges =   0.00000

 Dipole moment (field-independent basis, Debye):
    X=              0.4419    Y=             -1.1203    Z=             -0.7083  Tot=              1.3972
 Quadrupole moment (field-independent basis, Debye-Ang):
   XX=            -51.9054   YY=            -54.6023   ZZ=            -53.2298
   XY=             -1.5126   XZ=              2.6976   YZ=              2.4289

  Exact polarizability:  82.699  -0.145  72.236   3.420   0.682  68.024
 Approx polarizability: 113.906  -1.188 105.185   1.460   0.349 107.883

                      1                      2                      3
                      A                      A                      A
 Frequencies --    126.4963               227.5415               275.1179
 Red. masses --      3.4092                 4.9037                 2.8893
 Frc consts  --      0.0321                 0.1496                 0.1288
 IR Inten    --      1.3297                12.3392                12.8455

                      4                      5                      6
                      A                      A                      A
 Frequencies --    361.1338               399.5123               417.7748
 Red. masses --      3.5057                 1.6459                 1.9963
 Frc consts  --      0.2694                 0.1548                 0.2053
 IR Inten    --      1.5965                17.9296                 4.1330

                      7                      8                      9
                      A                      A                      A
 Frequencies --    447.2084               451.9217               549.2161
 Red. masses --      1.4860                 3.2628                 3.1874
 Frc consts  --      0.1751                 0.3926                 0.5665
 IR Inten    --     60.0452                 9.6826                 7.3499

                     10                     11                     12
                      A                      A                      A
 Frequencies --    563.6434               649.0969               739.4850
 Red. masses --      2.4944                 4.6646                 3.1259
 Frc consts  --      0.4669                 1.1579                 1.0071
 IR Inten    --      8.6972                 8.1289                 4.5551

                     13                     14                     15
                      A                      A                      A
 Frequencies --    815.9236               835.5012               855.5265
 Red. masses --      2.5865                 3.1075                 2.1900
 Frc consts  --      1.0145                 1.2781                 0.9444
 IR Inten    --     11.2446                10.0523                 7.3127

                     16                     17                     18
                      A                      A                      A
 Frequencies --    892.0294               911.8132               933.3181
 Red. masses --      2.4943                 1.7573                 1.9261
 Frc consts  --      1.1694                 0.8608                 0.9885
 IR Inten    --      0.3637                 5.3784                 6.2502

                     19                     20                     21
                      A                      A                      A
 Frequencies --    954.9315               990.4083               995.3053
 Red. masses --      3.7605                 2.0072                 1.4839
 Frc consts  --      2.0204                 1.1600                 0.8661
 IR Inten    --     27.1807                 1.2409                 4.8080

                     22                     23                     24
                      A                      A                      A
 Frequencies --   1015.0775              1065.6235              1089.0605
 Red. masses --      1.6103                 1.4320                 1.5060
 Frc consts  --      0.9776                 0.9581                 1.0524
 IR Inten    --      3.6208                 0.7681                 6.8771

                     25                     26                     27
                      A                      A                      A
 Frequencies --   1119.7986              1131.7510              1153.6689
 Red. masses --      1.2869                 1.3988                 1.5424
 Frc consts  --      0.9508                 1.0556                 1.2095
 IR Inten    --      8.0199                 9.3286                 1.1577

                     28                     29                     30
                      A                      A                      A
 Frequencies --   1166.9170              1172.7763              1186.8181
 Red. masses --      1.4610                 2.4900                 1.3505
 Frc consts  --      1.1722                 2.0178                 1.1208
 IR Inten    --      0.9269                55.8520                 0.7112

                     31                     32                     33
                      A                      A                      A
 Frequencies --   1225.8725              1248.3386              1272.1092
 Red. masses --      1.5865                 1.6151                 1.9360
 Frc consts  --      1.4047                 1.4829                 1.8459
 IR Inten    --     26.2493                 1.4420                15.2253

                     34                     35                     36
                      A                      A                      A
 Frequencies --   1302.9892              1343.6526              1385.4457
 Red. masses --      1.6396                 2.8193                 1.8507
 Frc consts  --      1.6401                 2.9989                 2.0930
 IR Inten    --     18.3237                86.4950                11.7706

                     37                     38                     39
                      A                      A                      A
 Frequencies --   1436.6555              1484.1553              1485.9824
 Red. masses --      2.1724                 1.1009                 1.1027
 Frc consts  --      2.6417                 1.4288                 1.4347
 IR Inten    --     22.5914                 2.9938                 2.5221

                     40                     41                     42
                      A                      A                      A
 Frequencies --   1524.0222              1535.6265              3052.9980
 Red. masses --      1.2107                 1.5761                 1.0589
 Frc consts  --      1.6567                 2.1898                 5.8151
 IR Inten    --      1.0315                12.5867                26.9403

                     43                     44                     45
                      A                      A                      A
 Frequencies --   3056.2865              3061.8547              3087.1978
 Red. masses --      1.0574                 1.0592                 1.0507
 Frc consts  --      5.8195                 5.8504                 5.9000
 IR Inten    --     55.4874                 3.0722                24.0100

                     46                     47                     48
                      A                      A                      A
 Frequencies --   3101.6568              3124.9537              3129.9733
 Red. masses --      1.1062                 1.1085                 1.1062
 Frc consts  --      6.2698                 6.3776                 6.3851
 IR Inten    --     16.8129                13.2100                28.6794

                     49                     50                     51
                      A                      A                      A
 Frequencies --   3136.8320              3176.1368              3756.9055
 Red. masses --      1.0920                 1.1193                 1.0651
 Frc consts  --      6.3310                 6.6525                 8.8574
 IR Inten    --     44.1104                15.2826                28.2677

 - Thermochemistry -
 -------------------
 Temperature   298.150 Kelvin.  Pressure   1.00000 Atm.
 Atom     1 has atomic number  8 and mass  15.99491

 Molecular mass:   126.06808 amu.
 Principal axes and moments of inertia in atomic units:
                           1         2         3
     Eigenvalues --   701.40383 970.273941259.43813
           X            0.99959  -0.00978   0.02684
           Y            0.00925   0.99976   0.01986
           Z           -0.02703  -0.01960   0.99944
 This molecule is an asymmetric top.
 Rotational symmetry number  1.
 Warning -- assumption of classical behavior for rotation
           may cause significant error
 Rotational temperatures (Kelvin)      0.12349     0.08927     0.06877
 Rotational constants (GHZ):           2.57304     1.86003     1.43297
 Zero-point vibrational energy     421229.3 (Joules/Mol)
                                  100.67622 (Kcal/Mol)
 Warning -- explicit consideration of  10 degrees of freedom as
           vibrations may cause significant error
 Vibrational temperatures:    182.00   327.38   395.83   519.59   574.81
          (Kelvin)            601.08   643.43   650.21   790.20   810.96
                              933.90  1063.95  1173.93  1202.10  1230.91
                             1283.43  1311.89  1342.83  1373.93  1424.97
                             1432.02  1460.47  1533.19  1566.91  1611.14
                             1628.34  1659.87  1678.93  1687.36  1707.56
                             1763.75  1796.08  1830.28  1874.71  1933.21
                             1993.34  2067.02  2135.37  2137.99  2192.73
                             2209.42  4392.58  4397.31  4405.32  4441.78
                             4462.59  4496.11  4503.33  4513.20  4569.75
                             5405.34

 Zero-point correction=                           0.160438 (Hartree/Particle)
 Thermal correction to Energy=                    0.167797
 Thermal correction to Enthalpy=                  0.168741
 Thermal correction to Gibbs Free Energy=         0.129122
 Sum of electronic and zero-point Energies=           -422.997299
 Sum of electronic and thermal Energies=              -422.989940
 Sum of electronic and thermal Enthalpies=            -422.988996
 Sum of electronic and thermal Free Energies=         -423.028615

                     E (Thermal)             CV                S
                      KCal/Mol        Cal/Mol-Kelvin    Cal/Mol-Kelvin
 Total                  105.294             30.635             83.385
 Electronic               0.000              0.000              0.000
 Translational            0.889              2.981             40.409
 Rotational               0.889              2.981             28.240
 Vibrational            103.516             24.673             14.736
 Vibration     1          0.611              1.927              2.999
 Vibration     2          0.651              1.799              1.898
 Vibration     3          0.677              1.719              1.564
 Vibration     4          0.735              1.552              1.117
 Vibration     5          0.766              1.471              0.964
 Vibration     6          0.781              1.432              0.900
 Vibration     7          0.806              1.367              0.804
 Vibration     8          0.811              1.357              0.790
 Vibration     9          0.904              1.141              0.546
 Vibration    10          0.919              1.110              0.517

 Optimization completed.
    -- Stationary point found.
 Normal termination of Gaussian 09 at Mon Jan 27 18:01:14 2020.
