 Gaussian 09, Revision D.01,
 Gaussian 09:  ES64L-G09RevD.01 24-Apr-2013

 -----------------------------
 # b3lyp 6-31G(2df,p) opt Freq
 -----------------------------

 -----
 titel
 -----
 Symbolic Z-matrix:
 Charge =  0 Multiplicity = 1

 SCF Done:  E(RB3LYP) =  -423.167552104     A.U. after   14 cycles
 Optimization completed.
    -- Stationary point found.
 Normal termination of Gaussian 09 at Mon Jan 27 12:58:30 2020.

 ----------------------------------------------------------------------
 #N Geom=AllCheck Guess=TCheck SCRF=Check GenChk RB3LYP/6-31G(2df,p) Fr
 eq
 ----------------------------------------------------------------------

 Structure from the checkpoint file:  "/scratch/puck/g09_9ff6ad04-0442-45f9-a960-ddf80bc47685/Gau-20536.chk"
 -----
 titel
 -----
 Charge =  0 Multiplicity = 1

                         Standard orientation:
 ---------------------------------------------------------------------
 Center     Atomic      Atomic             Coordinates (Angstroms)
 Number     Number       Type             X           Y           Z
 ---------------------------------------------------------------------
      1          8           0        1.916493    1.772795   -0.009188
      2          6           0        1.689696    0.603711    0.055773
      3          6           0        2.434512   -0.695019   -0.277435
      4          8           0        1.265281   -1.447471    0.101523
      5          6           0        0.495722   -0.271110    0.473882
      6          6           0       -0.794648   -0.104082   -0.298079
      7          6           0       -1.696774    1.114230    0.052458
      8          6           0       -2.935065    0.191233   -0.111416
      9          6           0       -1.994912   -1.036295    0.036130
     10          1           0        2.712198   -0.828308   -1.330721
     11          1           0        3.306529   -0.904145    0.356015
     12          1           0        0.303740   -0.251292    1.557576
     13          1           0       -0.578895   -0.130191   -1.371461
     14          1           0       -1.559226    1.425548    1.092948
     15          1           0       -1.618068    1.997735   -0.583640
     16          1           0       -3.744803    0.298683    0.613582
     17          1           0       -3.360119    0.258471   -1.116783
     18          1           0       -1.946556   -1.388784    1.071456
     19          1           0       -2.160185   -1.896310   -0.615536
 ---------------------------------------------------------------------

 SCF Done:  E(RB3LYP) =  -423.167552105     A.U. after    1 cycles

 The electronic state is 1-A.
 Alpha  occ. eigenvalues --  -19.15371 -19.14745 -10.28153 -10.24247 -10.24173
 Alpha  occ. eigenvalues --  -10.19715 -10.18681 -10.18573 -10.18533  -1.06947
 Alpha  occ. eigenvalues --   -1.04296  -0.85064  -0.73327  -0.71384  -0.66179
 Alpha  occ. eigenvalues --   -0.63979  -0.55846  -0.54771  -0.49886  -0.48179
 Alpha  occ. eigenvalues --   -0.47977  -0.47072  -0.44783  -0.41319  -0.39132
 Alpha  occ. eigenvalues --   -0.38899  -0.37985  -0.36187  -0.33876  -0.32995
 Alpha  occ. eigenvalues --   -0.31748  -0.31118  -0.26411  -0.25200
 Alpha virt. eigenvalues --   -0.03081   0.06260   0.08606   0.09757   0.10738
 Alpha virt. eigenvalues --    0.12503   0.14276   0.14903   0.17519   0.17618
 Alpha virt. eigenvalues --    0.17881   0.18847   0.19621   0.20642   0.21894

 Mulliken charges:
               1
     1  O   -0.273362
     2  C    0.333901
     3  C   -0.191155
     4  O   -0.294056
     5  C   -0.013994
     6  C    0.043108
     7  C   -0.230853
     8  C   -0.211896
     9  C   -0.232756
    10  H    0.133812
    11  H    0.131590
    12  H    0.098808
    13  H    0.075360
    14  H    0.105247
    15  H    0.110173
    16  H    0.100487
    17  H    0.106159
    18  H    0.103140
    19  H    0.106285
 Sum of Mulliken charges =   0.00000

 Dipole moment (field-independent basis, Debye):
    X=             -0.7333    Y=             -0.7918    Z=             -0.0358  Tot=              1.0798
 Quadrupole moment (field-independent basis, Debye-Ang):
   XX=            -50.4946   YY=            -61.3753   ZZ=            -50.3365
   XY=             -3.6490   XZ=             -0.3593   YZ=              0.4300

  Exact polarizability:  92.928  -1.358  74.021  -2.871   0.681  63.485
 Approx polarizability: 112.824   1.236 116.642  -4.278   0.413  98.402

                      1                      2                      3
                      A                      A                      A
 Frequencies --     56.1801                92.3241               107.2827
 Red. masses --      3.5989                 3.0681                 2.9087
 Frc consts  --      0.0067                 0.0154                 0.0197
 IR Inten    --      0.2268                 4.5228                 0.1991

                      4                      5                      6
                      A                      A                      A
 Frequencies --    141.4449               249.8404               325.3865
 Red. masses --      2.5014                 4.3429                 2.7661
 Frc consts  --      0.0295                 0.1597                 0.1725
 IR Inten    --      2.9331                 5.4529                 2.8064

                      7                      8                      9
                      A                      A                      A
 Frequencies --    378.5237               455.3872               549.1656
 Red. masses --      5.0324                 2.4244                 3.2479
 Frc consts  --      0.4248                 0.2962                 0.5771
 IR Inten    --      1.5678                 3.4899                10.2632

                     10                     11                     12
                      A                      A                      A
 Frequencies --    642.2171               710.3994               760.2684
 Red. masses --      1.7533                 5.6146                 1.5867
 Frc consts  --      0.4261                 1.6694                 0.5403
 IR Inten    --      3.8153                 0.7445                 1.0782

                     13                     14                     15
                      A                      A                      A
 Frequencies --    782.8170               854.0554               898.0416
 Red. masses --      1.2923                 2.3000                 2.3961
 Frc consts  --      0.4666                 0.9884                 1.1385
 IR Inten    --      1.1631                 3.0088                 2.0841

                     16                     17                     18
                      A                      A                      A
 Frequencies --    929.4557               938.7696               961.1594
 Red. masses --      2.2039                 2.6427                 1.6130
 Frc consts  --      1.1217                 1.3722                 0.8780
 IR Inten    --      3.7807                 0.1756                 1.5334

                     19                     20                     21
                      A                      A                      A
 Frequencies --    982.3083              1003.3927              1017.4272
 Red. masses --      1.8550                 8.3408                 5.2548
 Frc consts  --      1.0546                 4.9476                 3.2049
 IR Inten    --      1.9232               104.3469                12.5987

                     22                     23                     24
                      A                      A                      A
 Frequencies --   1049.8914              1085.5385              1100.2051
 Red. masses --      2.1810                 3.9678                 2.2740
 Frc consts  --      1.4165                 2.7548                 1.6217
 IR Inten    --     12.3990               101.0872                 1.4547

                     25                     26                     27
                      A                      A                      A
 Frequencies --   1138.1472              1174.4820              1203.0253
 Red. masses --      1.1538                 2.4042                 1.3163
 Frc consts  --      0.8806                 1.9540                 1.1224
 IR Inten    --      1.8290                 3.1372                 0.6657

                     28                     29                     30
                      A                      A                      A
 Frequencies --   1228.7899              1248.0297              1256.6812
 Red. masses --      1.4594                 1.4851                 1.3482
 Frc consts  --      1.2984                 1.3629                 1.2544
 IR Inten    --      1.2931                 6.6478                 0.3029

                     31                     32                     33
                      A                      A                      A
 Frequencies --   1258.8095              1273.2518              1285.5058
 Red. masses --      1.1368                 1.4168                 1.3954
 Frc consts  --      1.0613                 1.3533                 1.3586
 IR Inten    --      0.1498                 1.0263                 1.0261

                     34                     35                     36
                      A                      A                      A
 Frequencies --   1298.1189              1312.4299              1390.0622
 Red. masses --      1.4672                 1.3358                 1.4782
 Frc consts  --      1.4567                 1.3556                 1.6829
 IR Inten    --      2.8218                 0.7066                 2.9272

                     37                     38                     39
                      A                      A                      A
 Frequencies --   1478.5732              1482.2241              1486.5528
 Red. masses --      1.0886                 1.0997                 1.0830
 Frc consts  --      1.4022                 1.4234                 1.4101
 IR Inten    --      0.6612                 3.2519                 2.8004

                     40                     41                     42
                      A                      A                      A
 Frequencies --   1508.9731              1919.5214              2992.5128
 Red. masses --      1.1379                12.9636                 1.0803
 Frc consts  --      1.5265                28.1424                 5.7001
 IR Inten    --      0.7555               233.9003                25.0023

                     43                     44                     45
                      A                      A                      A
 Frequencies --   3015.7257              3048.9840              3052.9999
 Red. masses --      1.0567                 1.0809                 1.0607
 Frc consts  --      5.6620                 5.9203                 5.8249
 IR Inten    --     29.5732                 7.7646                40.6531

                     46                     47                     48
                      A                      A                      A
 Frequencies --   3059.0154              3061.2128              3061.4967
 Red. masses --      1.0669                 1.0753                 1.0912
 Frc consts  --      5.8821                 5.9372                 6.0257
 IR Inten    --     15.0020                41.2176                24.1436

                     49                     50                     51
                      A                      A                      A
 Frequencies --   3105.1141              3114.8224              3124.8111
 Red. masses --      1.1043                 1.1045                 1.1066
 Frc consts  --      6.2732                 6.3137                 6.3661
 IR Inten    --     10.1365                22.0560                56.8629

 - Thermochemistry -
 -------------------
 Temperature   298.150 Kelvin.  Pressure   1.00000 Atm.
 Atom     1 has atomic number  8 and mass  15.99491

 Molecular mass:   126.06808 amu.
 Principal axes and moments of inertia in atomic units:
                           1         2         3
     Eigenvalues --   544.633811640.953162070.92260
           X            0.99982  -0.01865  -0.00285
           Y            0.01866   0.99982   0.00455
           Z            0.00277  -0.00460   0.99999
 This molecule is an asymmetric top.
 Rotational symmetry number  1.
 Warning -- assumption of classical behavior for rotation
           may cause significant error
 Rotational temperatures (Kelvin)      0.15903     0.05278     0.04182
 Rotational constants (GHZ):           3.31368     1.09981     0.87147
 Zero-point vibrational energy     416607.6 (Joules/Mol)
                                   99.57161 (Kcal/Mol)
 Warning -- explicit consideration of   9 degrees of freedom as
           vibrations may cause significant error
 Vibrational temperatures:     80.83   132.83   154.36   203.51   359.46
          (Kelvin)            468.16   544.61   655.20   790.13   924.01
                             1022.11  1093.86  1126.30  1228.79  1292.08
                             1337.28  1350.68  1382.89  1413.32  1443.66
                             1463.85  1510.56  1561.85  1582.95  1637.54
                             1689.82  1730.88  1767.95  1795.63  1808.08
                             1811.14  1831.92  1849.55  1867.70  1888.29
                             1999.99  2127.33  2132.59  2138.82  2171.07
                             2761.76  4305.55  4338.95  4386.80  4392.58
                             4401.24  4404.40  4404.81  4467.56  4481.53
                             4495.90

 Zero-point correction=                           0.158677 (Hartree/Particle)
 Thermal correction to Energy=                    0.167173
 Thermal correction to Enthalpy=                  0.168117
 Thermal correction to Gibbs Free Energy=         0.124480
 Sum of electronic and zero-point Energies=           -423.008875
 Sum of electronic and thermal Energies=              -423.000379
 Sum of electronic and thermal Enthalpies=            -422.999435
 Sum of electronic and thermal Free Energies=         -423.043073

                     E (Thermal)             CV                S
                      KCal/Mol        Cal/Mol-Kelvin    Cal/Mol-Kelvin
 Total                  104.903             31.143             91.844
 Electronic               0.000              0.000              0.000
 Translational            0.889              2.981             40.409
 Rotational               0.889              2.981             29.005
 Vibrational            103.125             25.181             22.430
 Vibration     1          0.596              1.975              4.587
 Vibration     2          0.602              1.955              3.610
 Vibration     3          0.606              1.943              3.318
 Vibration     4          0.615              1.912              2.784
 Vibration     5          0.663              1.763              1.732
 Vibration     6          0.709              1.625              1.283
 Vibration     7          0.749              1.516              1.045
 Vibration     8          0.814              1.349              0.780
 Vibration     9          0.904              1.142              0.546

 Normal termination of Gaussian 09 at Mon Jan 27 13:40:23 2020.
