 Gaussian 09, Revision D.01,
 Gaussian 09:  ES64L-G09RevD.01 24-Apr-2013

 -----------------------------
 # b3lyp 6-31G(2df,p) opt Freq
 -----------------------------

 -----
 titel
 -----
 Symbolic Z-matrix:
 Charge =  0 Multiplicity = 1

 SCF Done:  E(RB3LYP) =  -423.169483179     A.U. after   14 cycles
 Optimization completed.
    -- Stationary point found.
 Normal termination of Gaussian 09 at Tue Jan 28 02:17:19 2020.

 ----------------------------------------------------------------------
 #N Geom=AllCheck Guess=TCheck SCRF=Check GenChk RB3LYP/6-31G(2df,p) Fr
 eq
 ----------------------------------------------------------------------

 Structure from the checkpoint file:  "/scratch/puck/g09_5209ef27-fc83-4ea9-8ef4-f3393d9fb5cb/Gau-4861.chk"
 -----
 titel
 -----
 Charge =  0 Multiplicity = 1

                         Standard orientation:
 ---------------------------------------------------------------------
 Center     Atomic      Atomic             Coordinates (Angstroms)
 Number     Number       Type             X           Y           Z
 ---------------------------------------------------------------------
      1          6           0        3.363679    0.273040   -0.597274
      2          6           0        1.995346   -0.291088   -0.316548
      3          8           0        1.657165   -0.517263    1.051873
      4          6           0        0.938356    0.508945    0.338135
      5          6           0       -0.499817    0.285603    0.120507
      6          6           0       -1.464125    1.203550    0.077343
      7          6           0       -2.790862    0.547105   -0.167886
      8          8           0       -2.510105   -0.847839   -0.238859
      9          6           0       -1.115060   -1.079994   -0.072891
     10          1           0        4.128054   -0.503414   -0.488131
     11          1           0        3.418232    0.658309   -1.621009
     12          1           0        3.599242    1.084249    0.096910
     13          1           0        1.676069   -1.092721   -0.984384
     14          1           0        1.207550    1.523292    0.634946
     15          1           0       -1.342318    2.272802    0.199416
     16          1           0       -3.512139    0.743657    0.641679
     17          1           0       -3.262058    0.884273   -1.105656
     18          1           0       -0.936592   -1.732912    0.793139
     19          1           0       -0.717631   -1.599675   -0.959340
 ---------------------------------------------------------------------

 SCF Done:  E(RB3LYP) =  -423.169483179     A.U. after    1 cycles

 The electronic state is 1-A.
 Alpha  occ. eigenvalues --  -19.15335 -19.13268 -10.24487 -10.24404 -10.23092
 Alpha  occ. eigenvalues --  -10.22895 -10.19529 -10.18857 -10.18854  -1.07283
 Alpha  occ. eigenvalues --   -1.03125  -0.80330  -0.75006  -0.73891  -0.66895
 Alpha  occ. eigenvalues --   -0.61312  -0.59253  -0.55714  -0.51765  -0.47649
 Alpha  occ. eigenvalues --   -0.47537  -0.45404  -0.43012  -0.41570  -0.41046
 Alpha  occ. eigenvalues --   -0.40090  -0.39323  -0.37319  -0.35654  -0.32556
 Alpha  occ. eigenvalues --   -0.31774  -0.27565  -0.26144  -0.22884
 Alpha virt. eigenvalues --    0.00468   0.09655   0.10482   0.10931   0.11932
 Alpha virt. eigenvalues --    0.12740   0.13097   0.13975   0.15158   0.16104
 Alpha virt. eigenvalues --    0.16776   0.17638   0.17821   0.20284   0.22216

 Mulliken charges:
               1
     1  C   -0.418639
     2  C    0.067717
     3  O   -0.257671
     4  C   -0.069942
     5  C    0.333566
     6  C   -0.234978
     7  C   -0.100121
     8  O   -0.268431
     9  C   -0.158039
    10  H    0.132723
    11  H    0.125279
    12  H    0.128792
    13  H    0.093732
    14  H    0.089515
    15  H    0.101408
    16  H    0.107197
    17  H    0.104655
    18  H    0.122398
    19  H    0.100838
 Sum of Mulliken charges =   0.00000

 Dipole moment (field-independent basis, Debye):
    X=              1.1181    Y=              1.8909    Z=             -1.2732  Tot=              2.5391
 Quadrupole moment (field-independent basis, Debye-Ang):
   XX=            -53.4946   YY=            -51.3852   ZZ=            -55.0115
   XY=             -3.1985   XZ=             -3.8273   YZ=              1.4818

  Exact polarizability: 107.814 -12.169  75.399  -2.118   2.151  58.474
 Approx polarizability: 137.641 -25.200 119.057  -0.229   1.064  92.625

                      1                      2                      3
                      A                      A                      A
 Frequencies --     56.5377                89.6485               117.5647
 Red. masses --      3.0440                 3.2460                 2.8162
 Frc consts  --      0.0057                 0.0154                 0.0229
 IR Inten    --      1.1787                 4.8864                 2.5016

                      4                      5                      6
                      A                      A                      A
 Frequencies --    147.0353               201.6538               270.4743
 Red. masses --      3.2950                 1.1352                 2.9088
 Frc consts  --      0.0420                 0.0272                 0.1254
 IR Inten    --      1.0530                 0.1835                 0.5478

                      7                      8                      9
                      A                      A                      A
 Frequencies --    322.6619               398.3004               433.3231
 Red. masses --      2.7094                 3.9648                 2.8818
 Frc consts  --      0.1662                 0.3706                 0.3188
 IR Inten    --      0.5109                 0.4870                 4.2123

                     10                     11                     12
                      A                      A                      A
 Frequencies --    545.1977               682.2942               771.5146
 Red. masses --      3.1347                 4.5354                 4.3994
 Frc consts  --      0.5490                 1.2440                 1.5429
 IR Inten    --      5.8685                 9.8228                 6.6129

                     13                     14                     15
                      A                      A                      A
 Frequencies --    784.8887               830.4122               872.4156
 Red. masses --      3.9300                 1.6219                 2.5188
 Frc consts  --      1.4265                 0.6590                 1.1295
 IR Inten    --     10.8294                20.2496                10.2985

                     16                     17                     18
                      A                      A                      A
 Frequencies --    907.0031               926.7481               968.5792
 Red. masses --      3.3656                 3.7170                 2.3784
 Frc consts  --      1.6313                 1.8809                 1.3146
 IR Inten    --     21.8005                 9.8605                 8.8021

                     19                     20                     21
                      A                      A                      A
 Frequencies --    981.2819              1023.8624              1040.1037
 Red. masses --      2.0448                 1.5611                 1.5237
 Frc consts  --      1.1601                 0.9642                 0.9712
 IR Inten    --     12.3430                 6.7079                20.9579

                     22                     23                     24
                      A                      A                      A
 Frequencies --   1063.5786              1081.9885              1116.3106
 Red. masses --      1.6406                 1.6545                 8.5584
 Frc consts  --      1.0934                 1.1412                 6.2837
 IR Inten    --      0.5473                 1.8317                66.2018

                     25                     26                     27
                      A                      A                      A
 Frequencies --   1165.5346              1170.7039              1174.4565
 Red. masses --      1.5181                 1.5784                 1.1370
 Frc consts  --      1.2150                 1.2746                 0.9240
 IR Inten    --      2.5768                 6.2937                 2.2049

                     28                     29                     30
                      A                      A                      A
 Frequencies --   1217.8997              1224.6335              1267.8887
 Red. masses --      2.0447                 1.0829                 1.5561
 Frc consts  --      1.7869                 0.9569                 1.4739
 IR Inten    --     13.8332                 0.1380                 3.9611

                     31                     32                     33
                      A                      A                      A
 Frequencies --   1308.0346              1356.0248              1377.8641
 Red. masses --      1.6319                 1.3079                 1.7168
 Frc consts  --      1.6450                 1.4169                 1.9203
 IR Inten    --      7.4648                13.2216                 9.1756

                     34                     35                     36
                      A                      A                      A
 Frequencies --   1398.9484              1409.6975              1463.5945
 Red. masses --      1.5235                 1.2752                 1.7560
 Frc consts  --      1.7567                 1.4930                 2.2162
 IR Inten    --      4.9614                 2.2377                 9.8551

                     37                     38                     39
                      A                      A                      A
 Frequencies --   1486.2924              1499.7689              1516.7006
 Red. masses --      1.1262                 1.2348                 1.0842
 Frc consts  --      1.4658                 1.6364                 1.4695
 IR Inten    --      6.9618                 4.2966                 2.5652

                     40                     41                     42
                      A                      A                      A
 Frequencies --   1529.2586              1722.5784              2965.7630
 Red. masses --      1.0873                 7.5060                 1.0577
 Frc consts  --      1.4982                13.1224                 5.4813
 IR Inten    --      0.6804                 0.8503               130.8051

                     43                     44                     45
                      A                      A                      A
 Frequencies --   2975.3201              2981.6993              3014.0487
 Red. masses --      1.0676                 1.1038                 1.0928
 Frc consts  --      5.5683                 5.7818                 5.8492
 IR Inten    --     26.6741                48.9925                34.3074

                     46                     47                     48
                      A                      A                      A
 Frequencies --   3036.8182              3094.3776              3102.6801
 Red. masses --      1.0353                 1.0884                 1.1001
 Frc consts  --      5.6255                 6.1403                 6.2397
 IR Inten    --     20.3896                 6.2109                14.5230

                     49                     50                     51
                      A                      A                      A
 Frequencies --   3104.5117              3124.8236              3210.9200
 Red. masses --      1.0880                 1.1003                 1.0951
 Frc consts  --      6.1785                 6.3301                 6.6523
 IR Inten    --     26.7425                33.6384                 6.2427

 - Thermochemistry -
 -------------------
 Temperature   298.150 Kelvin.  Pressure   1.00000 Atm.
 Atom     1 has atomic number  6 and mass  12.00000

 Molecular mass:   126.06808 amu.
 Principal axes and moments of inertia in atomic units:
                           1         2         3
     Eigenvalues --   384.828132078.383432224.40407
           X            0.99990  -0.00286  -0.01385
           Y            0.00333   0.99941   0.03425
           Z            0.01375  -0.03430   0.99932
 This molecule is an asymmetric top.
 Rotational symmetry number  1.
 Rotational temperatures (Kelvin)      0.22507     0.04167     0.03894
 Rotational constants (GHZ):           4.68973     0.86834     0.81134
 Zero-point vibrational energy     415907.0 (Joules/Mol)
                                   99.40416 (Kcal/Mol)
 Warning -- explicit consideration of  10 degrees of freedom as
           vibrations may cause significant error
 Vibrational temperatures:     81.35   128.98   169.15   211.55   290.13
          (Kelvin)            389.15   464.24   573.06   623.45   784.42
                              981.67  1110.04  1129.28  1194.78  1255.21
                             1304.97  1333.38  1393.57  1411.84  1473.11
                             1496.48  1530.25  1556.74  1606.12  1676.94
                             1684.38  1689.78  1752.28  1761.97  1824.21
                             1881.97  1951.01  1982.44  2012.77  2028.24
                             2105.78  2138.44  2157.83  2182.19  2200.26
                             2478.40  4267.07  4280.82  4289.99  4336.54
                             4369.30  4452.11  4464.06  4466.69  4495.92
                             4619.79

 Zero-point correction=                           0.158411 (Hartree/Particle)
 Thermal correction to Energy=                    0.167276
 Thermal correction to Enthalpy=                  0.168220
 Thermal correction to Gibbs Free Energy=         0.123933
 Sum of electronic and zero-point Energies=           -423.011073
 Sum of electronic and thermal Energies=              -423.002207
 Sum of electronic and thermal Enthalpies=            -423.001263
 Sum of electronic and thermal Free Energies=         -423.045550

                     E (Thermal)             CV                S
                      KCal/Mol        Cal/Mol-Kelvin    Cal/Mol-Kelvin
 Total                  104.967             31.882             93.210
 Electronic               0.000              0.000              0.000
 Translational            0.889              2.981             40.409
 Rotational               0.889              2.981             28.966
 Vibrational            103.190             25.921             23.835
 Vibration     1          0.596              1.975              4.575
 Vibration     2          0.602              1.957              3.668
 Vibration     3          0.608              1.935              3.140
 Vibration     4          0.617              1.906              2.710
 Vibration     5          0.639              1.838              2.118
 Vibration     6          0.674              1.728              1.593
 Vibration     7          0.708              1.630              1.297
 Vibration     8          0.765              1.474              0.969
 Vibration     9          0.794              1.398              0.848
 Vibration    10          0.900              1.150              0.554

 Optimization completed.
    -- Stationary point found.
 Normal termination of Gaussian 09 at Tue Jan 28 02:54:15 2020.
