 Gaussian 09, Revision D.01,
 Gaussian 09:  ES64L-G09RevD.01 24-Apr-2013

 -----------------------------
 # b3lyp 6-31G(2df,p) opt Freq
 -----------------------------

 -----
 titel
 -----
 Symbolic Z-matrix:
 Charge =  0 Multiplicity = 1

 SCF Done:  E(RB3LYP) =  -423.211137068     A.U. after   14 cycles
 Optimization completed.
    -- Stationary point found.
 Normal termination of Gaussian 09 at Mon Jan 27 13:16:13 2020.

 ----------------------------------------------------------------------
 #N Geom=AllCheck Guess=TCheck SCRF=Check GenChk RB3LYP/6-31G(2df,p) Fr
 eq
 ----------------------------------------------------------------------

 Structure from the checkpoint file:  "/scratch/puck/g09_57e19cbe-4b3c-4d88-a8be-83bd19006fce/Gau-169359.chk"
 -----
 titel
 -----
 Charge =  0 Multiplicity = 1

                         Standard orientation:
 ---------------------------------------------------------------------
 Center     Atomic      Atomic             Coordinates (Angstroms)
 Number     Number       Type             X           Y           Z
 ---------------------------------------------------------------------
      1          8           0        2.827356    0.319695    0.124510
      2          6           0        1.949038   -0.493370   -0.013601
      3          6           0        0.483727   -0.149766   -0.067204
      4          6           0        0.092300    1.196966   -0.704431
      5          6           0       -1.377000    1.376087   -0.201264
      6          6           0       -1.610808    0.093416    0.632796
      7          6           0       -1.594004   -1.108713   -0.324809
      8          8           0       -0.216097   -1.201698   -0.744314
      9          6           0       -0.234092   -0.092309    1.304260
     10          1           0        2.154670   -1.583655   -0.087991
     11          1           0        0.759775    1.991830   -0.364537
     12          1           0        0.165231    1.131083   -1.791975
     13          1           0       -1.478474    2.267916    0.423670
     14          1           0       -2.093716    1.467936   -1.021988
     15          1           0       -2.478550    0.120312    1.293550
     16          1           0       -1.886061   -2.044791    0.168516
     17          1           0       -2.235715   -0.963464   -1.201869
     18          1           0        0.081137    0.756207    1.915163
     19          1           0       -0.133339   -1.021215    1.871413
 ---------------------------------------------------------------------

 SCF Done:  E(RB3LYP) =  -423.211137068     A.U. after    1 cycles

 The electronic state is 1-A.
 Alpha  occ. eigenvalues --  -19.14345 -19.14169 -10.26919 -10.24311 -10.23291
 Alpha  occ. eigenvalues --  -10.20210 -10.19645 -10.19082 -10.18513  -1.05271
 Alpha  occ. eigenvalues --   -1.03964  -0.83846  -0.76739  -0.72396  -0.64276
 Alpha  occ. eigenvalues --   -0.63508  -0.57868  -0.53662  -0.51206  -0.49608
 Alpha  occ. eigenvalues --   -0.47775  -0.45409  -0.42821  -0.40782  -0.40010
 Alpha  occ. eigenvalues --   -0.38510  -0.37755  -0.36918  -0.35633  -0.34092
 Alpha  occ. eigenvalues --   -0.33819  -0.30906  -0.25600  -0.25008
 Alpha virt. eigenvalues --   -0.02734   0.07736   0.09651   0.11987   0.12688
 Alpha virt. eigenvalues --    0.14318   0.14858   0.15324   0.15706   0.16080
 Alpha virt. eigenvalues --    0.17424   0.18052   0.19758   0.20365   0.22253

 Mulliken charges:
               1
     1  O   -0.263122
     2  C    0.081847
     3  C    0.334704
     4  C   -0.244935
     5  C   -0.225118
     6  C   -0.051848
     7  C   -0.073736
     8  O   -0.323684
     9  C   -0.262305
    10  H    0.089500
    11  H    0.122347
    12  H    0.111885
    13  H    0.103466
    14  H    0.102551
    15  H    0.072703
    16  H    0.100080
    17  H    0.102333
    18  H    0.116036
    19  H    0.107296
 Sum of Mulliken charges =   0.00000

 Dipole moment (field-independent basis, Debye):
    X=             -2.9909    Y=             -0.0520    Z=              0.8442  Tot=              3.1082
 Quadrupole moment (field-independent basis, Debye-Ang):
   XX=            -58.8783   YY=            -53.1215   ZZ=            -52.3183
   XY=             -2.1926   XZ=             -0.5760   YZ=             -1.5575

  Exact polarizability:  85.230   1.722  74.446   0.664  -0.922  64.437
 Approx polarizability: 119.643   7.502 110.950   0.990   1.875  98.339

                      1                      2                      3
                      A                      A                      A
 Frequencies --     81.2527               161.6542               223.4523
 Red. masses --      3.7266                 2.9543                 2.5534
 Frc consts  --      0.0145                 0.0455                 0.0751
 IR Inten    --      6.9035                 1.8791                 3.9537

                      4                      5                      6
                      A                      A                      A
 Frequencies --    243.0837               367.8026               405.1022
 Red. masses --      2.8226                 1.8348                 2.8513
 Frc consts  --      0.0983                 0.1462                 0.2757
 IR Inten    --      6.2198                 0.9571                 0.7061

                      7                      8                      9
                      A                      A                      A
 Frequencies --    450.8943               486.7919               578.7715
 Red. masses --      3.2875                 2.7898                 4.2712
 Frc consts  --      0.3938                 0.3895                 0.8430
 IR Inten    --      3.0758                 1.5513                 2.2038

                     10                     11                     12
                      A                      A                      A
 Frequencies --    708.1971               773.1496               790.6652
 Red. masses --      4.4684                 2.8112                 2.9175
 Frc consts  --      1.3204                 0.9901                 1.0746
 IR Inten    --     34.4224                 0.2120                 0.7760

                     13                     14                     15
                      A                      A                      A
 Frequencies --    827.6690               854.3307               893.7955
 Red. masses --      1.9572                 2.5272                 2.3259
 Frc consts  --      0.7900                 1.0868                 1.0948
 IR Inten    --      0.8735                 5.0767                13.5170

                     16                     17                     18
                      A                      A                      A
 Frequencies --    933.1071               952.7009               964.2648
 Red. masses --      2.3754                 2.0854                 2.7991
 Frc consts  --      1.2185                 1.1152                 1.5334
 IR Inten    --      3.2852                 5.9867                 4.4584

                     19                     20                     21
                      A                      A                      A
 Frequencies --    974.4508               981.0427               999.7045
 Red. masses --      1.9630                 1.7411                 1.9069
 Frc consts  --      1.0982                 0.9873                 1.1228
 IR Inten    --      4.3298                12.7589                27.8080

                     22                     23                     24
                      A                      A                      A
 Frequencies --   1040.3760              1098.9771              1129.2882
 Red. masses --      2.2679                 1.3575                 1.7029
 Frc consts  --      1.4463                 0.9660                 1.2795
 IR Inten    --     49.2913                 9.8355                 6.4067

                     25                     26                     27
                      A                      A                      A
 Frequencies --   1154.4424              1162.2951              1193.9571
 Red. masses --      1.8263                 1.8612                 1.4008
 Frc consts  --      1.4341                 1.4814                 1.1765
 IR Inten    --      7.1462                 5.8449                19.6440

                     28                     29                     30
                      A                      A                      A
 Frequencies --   1220.4506              1250.0931              1255.8734
 Red. masses --      1.4977                 1.4765                 1.2073
 Frc consts  --      1.3144                 1.3594                 1.1219
 IR Inten    --     15.2255                 0.6783                 1.7694

                     31                     32                     33
                      A                      A                      A
 Frequencies --   1279.4596              1300.6601              1329.8672
 Red. masses --      2.0819                 1.5910                 1.5014
 Frc consts  --      2.0080                 1.5858                 1.5645
 IR Inten    --      0.5617                 0.4327                 1.5532

                     34                     35                     36
                      A                      A                      A
 Frequencies --   1342.4638              1378.1885              1403.5744
 Red. masses --      1.9442                 1.3849                 1.2810
 Frc consts  --      2.0644                 1.5498                 1.4869
 IR Inten    --      2.2598                 0.0710                 9.3504

                     37                     38                     39
                      A                      A                      A
 Frequencies --   1482.0806              1488.5716              1507.6074
 Red. masses --      1.0890                 1.0948                 1.0994
 Frc consts  --      1.4093                 1.4293                 1.4722
 IR Inten    --      3.2005                 3.2528                 2.0044

                     40                     41                     42
                      A                      A                      A
 Frequencies --   1534.6193              1829.0226              2899.0434
 Red. masses --      1.0978                10.7815                 1.0841
 Frc consts  --      1.5233                21.2503                 5.3684
 IR Inten    --      0.6745               153.7710                96.1214

                     43                     44                     45
                      A                      A                      A
 Frequencies --   3014.0111              3054.3142              3056.7126
 Red. masses --      1.0589                 1.0752                 1.0909
 Frc consts  --      5.6673                 5.9096                 6.0053
 IR Inten    --     71.6742                10.7273                52.9245

                     46                     47                     48
                      A                      A                      A
 Frequencies --   3068.5926              3076.5568              3095.0198
 Red. masses --      1.0579                 1.0599                 1.1063
 Frc consts  --      5.8692                 5.9107                 6.2439
 IR Inten    --     22.5432                15.5825                13.7491

                     49                     50                     51
                      A                      A                      A
 Frequencies --   3108.4271              3126.3668              3130.8217
 Red. masses --      1.0882                 1.1072                 1.1078
 Frc consts  --      6.1948                 6.3762                 6.3978
 IR Inten    --     33.3908                11.6441                25.9308

 - Thermochemistry -
 -------------------
 Temperature   298.150 Kelvin.  Pressure   1.00000 Atm.
 Atom     1 has atomic number  8 and mass  15.99491

 Molecular mass:   126.06808 amu.
 Principal axes and moments of inertia in atomic units:
                           1         2         3
     Eigenvalues --   577.734631233.690801404.70829
           X            0.99992  -0.01270  -0.00050
           Y            0.01266   0.99844  -0.05435
           Z            0.00119   0.05433   0.99852
 This molecule is an asymmetric top.
 Rotational symmetry number  1.
 Warning -- assumption of classical behavior for rotation
           may cause significant error
 Rotational temperatures (Kelvin)      0.14992     0.07021     0.06166
 Rotational constants (GHZ):           3.12382     1.46288     1.28478
 Zero-point vibrational energy     422662.3 (Joules/Mol)
                                  101.01871 (Kcal/Mol)
 Warning -- explicit consideration of   9 degrees of freedom as
           vibrations may cause significant error
 Vibrational temperatures:    116.90   232.58   321.50   349.74   529.19
          (Kelvin)            582.85   648.74   700.38   832.72  1018.94
                             1112.39  1137.59  1190.83  1229.19  1285.97
                             1342.53  1370.72  1387.36  1402.02  1411.50
                             1438.35  1496.87  1581.18  1624.79  1660.98
                             1672.28  1717.84  1755.95  1798.60  1806.92
                             1840.85  1871.36  1913.38  1931.50  1982.90
                             2019.43  2132.38  2141.72  2169.11  2207.97
                             2631.55  4171.07  4336.48  4394.47  4397.92
                             4415.01  4426.47  4453.04  4472.33  4498.14
                             4504.55

 Zero-point correction=                           0.160984 (Hartree/Particle)
 Thermal correction to Energy=                    0.168523
 Thermal correction to Enthalpy=                  0.169467
 Thermal correction to Gibbs Free Energy=         0.128879
 Sum of electronic and zero-point Energies=           -423.050154
 Sum of electronic and thermal Energies=              -423.042614
 Sum of electronic and thermal Enthalpies=            -423.041670
 Sum of electronic and thermal Free Energies=         -423.082258

                     E (Thermal)             CV                S
                      KCal/Mol        Cal/Mol-Kelvin    Cal/Mol-Kelvin
 Total                  105.750             29.644             85.424
 Electronic               0.000              0.000              0.000
 Translational            0.889              2.981             40.409
 Rotational               0.889              2.981             28.395
 Vibrational            103.972             23.682             16.621
 Vibration     1          0.600              1.962              3.860
 Vibration     2          0.622              1.889              2.530
 Vibration     3          0.649              1.805              1.931
 Vibration     4          0.659              1.774              1.780
 Vibration     5          0.740              1.538              1.089
 Vibration     6          0.770              1.459              0.944
 Vibration     7          0.810              1.359              0.793
 Vibration     8          0.843              1.279              0.692
 Vibration     9          0.935              1.077              0.488

 Optimization completed.
    -- Stationary point found.
 Normal termination of Gaussian 09 at Mon Jan 27 14:02:57 2020.
