 Gaussian 09, Revision D.01,
 Gaussian 09:  ES64L-G09RevD.01 24-Apr-2013

 -----------------------------
 # b3lyp 6-31G(2df,p) opt Freq
 -----------------------------

 -----
 titel
 -----
 Symbolic Z-matrix:
 Charge =  0 Multiplicity = 1

 SCF Done:  E(RB3LYP) =  -423.088931973     A.U. after   14 cycles
 SCF Done:  E(RB3LYP) =  -423.088931995     A.U. after    6 cycles
 Optimization completed.
    -- Stationary point found.
 Normal termination of Gaussian 09 at Tue Jan 28 14:15:28 2020.

 ----------------------------------------------------------------------
 #N Geom=AllCheck Guess=TCheck SCRF=Check GenChk RB3LYP/6-31G(2df,p) Fr
 eq
 ----------------------------------------------------------------------

 Structure from the checkpoint file:  "/scratch/puck/g09_b3f581c4-0049-4f10-a071-8ce05b8e84fc/Gau-121179.chk"
 -----
 titel
 -----
 Charge =  0 Multiplicity = 1

                         Standard orientation:
 ---------------------------------------------------------------------
 Center     Atomic      Atomic             Coordinates (Angstroms)
 Number     Number       Type             X           Y           Z
 ---------------------------------------------------------------------
      1          6           0        3.368881   -0.382196    0.056569
      2          8           0        1.982606   -0.436029    0.298209
      3          6           0        1.266163    0.551476   -0.411442
      4          6           0       -0.190605    0.343735   -0.159537
      5          8           0       -1.082956    1.428607   -0.453362
      6          6           0       -1.116357    0.832344    0.856799
      7          6           0       -1.933359   -0.496303    0.799016
      8          6           0       -2.421506   -0.787346   -0.595951
      9          6           0       -0.970688   -1.009541   -0.263728
     10          1           0        3.801467    0.580358    0.371942
     11          1           0        3.832120   -1.184336    0.635760
     12          1           0        3.603523   -0.529971   -1.009508
     13          1           0        1.550065    1.567746   -0.093931
     14          1           0        1.473968    0.474965   -1.493882
     15          1           0       -0.980105    1.489836    1.707156
     16          1           0       -2.292794   -1.011055    1.679519
     17          1           0       -3.009209   -1.695221   -0.688737
     18          1           0       -2.715727    0.023371   -1.250400
     19          1           0       -0.475677   -1.969320   -0.307047
 ---------------------------------------------------------------------

 SCF Done:  E(RB3LYP) =  -423.088931995     A.U. after    1 cycles

 The electronic state is 1-A.
 Alpha  occ. eigenvalues --  -19.15184 -19.14635 -10.23900 -10.23609 -10.23473
 Alpha  occ. eigenvalues --  -10.22852 -10.19182 -10.18906 -10.18513  -1.07774
 Alpha  occ. eigenvalues --   -1.03873  -0.86409  -0.75215  -0.68175  -0.66191
 Alpha  occ. eigenvalues --   -0.61984  -0.56291  -0.53726  -0.52079  -0.49328
 Alpha  occ. eigenvalues --   -0.48562  -0.46518  -0.45434  -0.42403  -0.40471
 Alpha  occ. eigenvalues --   -0.38120  -0.37858  -0.34572  -0.33905  -0.32273
 Alpha  occ. eigenvalues --   -0.29620  -0.26307  -0.26155  -0.22771
 Alpha virt. eigenvalues --    0.06210   0.08347   0.10215   0.11294   0.13438
 Alpha virt. eigenvalues --    0.13735   0.14373   0.15530   0.16425   0.16537
 Alpha virt. eigenvalues --    0.16981   0.17768   0.18792   0.20130   0.22426

 Mulliken charges:
               1
     1  C   -0.220271
     2  O   -0.237101
     3  C   -0.192652
     4  C    0.415508
     5  O   -0.295366
     6  C   -0.056270
     7  C   -0.084000
     8  C   -0.291157
     9  C   -0.125031
    10  H    0.106503
    11  H    0.129331
    12  H    0.106532
    13  H    0.101572
    14  H    0.094793
    15  H    0.106158
    16  H    0.094199
    17  H    0.110706
    18  H    0.134509
    19  H    0.102038
 Sum of Mulliken charges =   0.00000

 Dipole moment (field-independent basis, Debye):
    X=              1.3130    Y=             -0.6735    Z=              0.5156  Tot=              1.5632
 Quadrupole moment (field-independent basis, Debye-Ang):
   XX=            -48.3331   YY=            -53.8070   ZZ=            -52.2572
   XY=              2.9841   XZ=             -2.5990   YZ=              1.9216

  Exact polarizability:  89.894   2.380  70.354  -1.796   2.483  67.014
 Approx polarizability: 111.931  -1.373 106.980  -4.824   1.207 106.758

                      1                      2                      3
                      A                      A                      A
 Frequencies --     67.3158                82.1606               115.7724
 Red. masses --      2.9459                 2.3179                 3.7267
 Frc consts  --      0.0079                 0.0092                 0.0294
 IR Inten    --      0.1529                 5.0163                 2.9820

                      4                      5                      6
                      A                      A                      A
 Frequencies --    222.2474               258.8432               329.7487
 Red. masses --      1.4104                 2.0309                 3.2228
 Frc consts  --      0.0410                 0.0802                 0.2065
 IR Inten    --      1.5392                 1.8402                 0.4306

                      7                      8                      9
                      A                      A                      A
 Frequencies --    362.6737               412.0196               496.7873
 Red. masses --      3.4708                 3.0958                 4.7304
 Frc consts  --      0.2690                 0.3096                 0.6878
 IR Inten    --      0.1142                 5.4524                 5.9448

                     10                     11                     12
                      A                      A                      A
 Frequencies --    594.4804               657.4022               733.6274
 Red. masses --      3.8439                 3.2381                 2.7847
 Frc consts  --      0.8004                 0.8245                 0.8830
 IR Inten    --      6.9983                 2.8005                 8.5842

                     13                     14                     15
                      A                      A                      A
 Frequencies --    756.7783               813.9018               846.1270
 Red. masses --      1.5003                 3.5582                 2.3218
 Frc consts  --      0.5062                 1.3888                 0.9794
 IR Inten    --      5.9148                 8.0955                 7.7129

                     16                     17                     18
                      A                      A                      A
 Frequencies --    882.6859               917.3413               933.4960
 Red. masses --      2.1882                 2.9117                 2.1064
 Frc consts  --      1.0045                 1.4436                 1.0814
 IR Inten    --     28.9145                 3.4052                 5.1257

                     19                     20                     21
                      A                      A                      A
 Frequencies --    985.6586               992.7759              1014.0473
 Red. masses --      1.8707                 2.8009                 1.6465
 Frc consts  --      1.0708                 1.6265                 0.9976
 IR Inten    --     30.8807                 7.3367                 1.0803

                     22                     23                     24
                      A                      A                      A
 Frequencies --   1049.2004              1055.4705              1066.0598
 Red. masses --      2.5027                 1.1932                 1.9486
 Frc consts  --      1.6232                 0.7832                 1.3047
 IR Inten    --      2.4565                 1.2006                 3.8204

                     25                     26                     27
                      A                      A                      A
 Frequencies --   1101.5958              1146.4440              1169.0991
 Red. masses --      1.2538                 2.5380                 2.0646
 Frc consts  --      0.8965                 1.9654                 1.6626
 IR Inten    --      3.3568                92.3014                39.8759

                     28                     29                     30
                      A                      A                      A
 Frequencies --   1172.6490              1190.5073              1226.3351
 Red. masses --      1.7727                 1.4790                 1.6813
 Frc consts  --      1.4362                 1.2351                 1.4898
 IR Inten    --     41.2068                 9.6187                43.0902

                     31                     32                     33
                      A                      A                      A
 Frequencies --   1238.2500              1269.3517              1283.5149
 Red. masses --      1.2479                 1.5525                 1.7480
 Frc consts  --      1.1273                 1.4738                 1.6966
 IR Inten    --      6.3561                 6.6408                 7.5339

                     34                     35                     36
                      A                      A                      A
 Frequencies --   1308.8611              1397.6460              1459.2064
 Red. masses --      2.6942                 1.3972                 1.2533
 Frc consts  --      2.7194                 1.6081                 1.5723
 IR Inten    --      4.7149                42.6025                 1.8911

                     37                     38                     39
                      A                      A                      A
 Frequencies --   1478.0309              1485.3595              1497.5471
 Red. masses --      1.1876                 1.0538                 1.5154
 Frc consts  --      1.5285                 1.3699                 2.0023
 IR Inten    --      2.4969                 4.6633                 5.7510

                     40                     41                     42
                      A                      A                      A
 Frequencies --   1504.9151              1520.9424              2944.1486
 Red. masses --      1.9435                 1.1000                 1.0608
 Frc consts  --      2.5934                 1.4993                 5.4174
 IR Inten    --      4.5844                 2.3706                38.3915

                     43                     44                     45
                      A                      A                      A
 Frequencies --   2971.8049              2992.2667              3016.0664
 Red. masses --      1.0393                 1.0950                 1.1033
 Frc consts  --      5.4081                 5.7765                 5.9132
 IR Inten    --     74.2313                48.6273                50.9559

                     46                     47                     48
                      A                      A                      A
 Frequencies --   3117.2907              3139.4842              3188.3209
 Red. masses --      1.0960                 1.0542                 1.0936
 Frc consts  --      6.2752                 6.1220                 6.5498
 IR Inten    --     26.8378                17.5494                13.6334

                     49                     50                     51
                      A                      A                      A
 Frequencies --   3207.1332              3218.8862              3232.1293
 Red. masses --      1.0916                 1.0990                 1.1120
 Frc consts  --      6.6152                 6.7092                 6.8444
 IR Inten    --     13.4474                 2.7783                 4.6557

 - Thermochemistry -
 -------------------
 Temperature   298.150 Kelvin.  Pressure   1.00000 Atm.
 Atom     1 has atomic number  6 and mass  12.00000

 Molecular mass:   126.06808 amu.
 Principal axes and moments of inertia in atomic units:
                           1         2         3
     Eigenvalues --   458.996611747.506181918.38077
           X            0.99987   0.01566  -0.00451
           Y           -0.01549   0.99925   0.03537
           Z            0.00506  -0.03530   0.99936
 This molecule is an asymmetric top.
 Rotational symmetry number  1.
 Warning -- assumption of classical behavior for rotation
           may cause significant error
 Rotational temperatures (Kelvin)      0.18870     0.04956     0.04515
 Rotational constants (GHZ):           3.93193     1.03275     0.94076
 Zero-point vibrational energy     413455.8 (Joules/Mol)
                                   98.81830 (Kcal/Mol)
 Warning -- explicit consideration of  10 degrees of freedom as
           vibrations may cause significant error
 Vibrational temperatures:     96.85   118.21   166.57   319.76   372.42
          (Kelvin)            474.43   521.81   592.80   714.77   855.32
                              945.85  1055.52  1088.83  1171.02  1217.39
                             1269.99  1319.85  1343.09  1418.14  1428.38
                             1458.99  1509.56  1518.58  1533.82  1584.95
                             1649.48  1682.07  1687.18  1712.87  1764.42
                             1781.56  1826.31  1846.69  1883.16  2010.90
                             2099.47  2126.55  2137.10  2154.63  2165.23
                             2188.29  4235.97  4275.76  4305.20  4339.44
                             4485.08  4517.01  4587.28  4614.34  4631.25
                             4650.31

 Zero-point correction=                           0.157477 (Hartree/Particle)
 Thermal correction to Energy=                    0.166026
 Thermal correction to Enthalpy=                  0.166970
 Thermal correction to Gibbs Free Energy=         0.123662
 Sum of electronic and zero-point Energies=           -422.931455
 Sum of electronic and thermal Energies=              -422.922906
 Sum of electronic and thermal Enthalpies=            -422.921962
 Sum of electronic and thermal Free Energies=         -422.965270

                     E (Thermal)             CV                S
                      KCal/Mol        Cal/Mol-Kelvin    Cal/Mol-Kelvin
 Total                  104.183             32.046             91.150
 Electronic               0.000              0.000              0.000
 Translational            0.889              2.981             40.409
 Rotational               0.889              2.981             28.822
 Vibrational            102.405             26.084             21.919
 Vibration     1          0.598              1.970              4.230
 Vibration     2          0.600              1.961              3.839
 Vibration     3          0.608              1.936              3.170
 Vibration     4          0.648              1.807              1.941
 Vibration     5          0.668              1.748              1.670
 Vibration     6          0.713              1.616              1.261
 Vibration     7          0.737              1.549              1.111
 Vibration     8          0.776              1.444              0.920
 Vibration     9          0.852              1.257              0.666
 Vibration    10          0.952              1.044              0.459

 Normal termination of Gaussian 09 at Tue Jan 28 14:53:12 2020.
