 Gaussian 09, Revision D.01,
 Gaussian 09:  ES64L-G09RevD.01 24-Apr-2013

 -----------------------------
 # b3lyp 6-31G(2df,p) opt Freq
 -----------------------------

 -----
 titel
 -----
 Symbolic Z-matrix:
 Charge =  0 Multiplicity = 1

 SCF Done:  E(RB3LYP) =  -423.178632998     A.U. after   13 cycles
 Optimization completed.
    -- Stationary point found.
 Normal termination of Gaussian 09 at Tue Jan 28 04:05:52 2020.

 ----------------------------------------------------------------------
 #N Geom=AllCheck Guess=TCheck SCRF=Check GenChk RB3LYP/6-31G(2df,p) Fr
 eq
 ----------------------------------------------------------------------

 Structure from the checkpoint file:  "/scratch/puck/g09_d0120576-d267-4238-a8a6-2483c653ae9f/Gau-176339.chk"
 -----
 titel
 -----
 Charge =  0 Multiplicity = 1

                         Standard orientation:
 ---------------------------------------------------------------------
 Center     Atomic      Atomic             Coordinates (Angstroms)
 Number     Number       Type             X           Y           Z
 ---------------------------------------------------------------------
      1          8           0        1.236794    1.787431    0.443467
      2          6           0        1.283002    0.402855    0.599642
      3          6           0        2.149222   -0.466803   -0.357908
      4          6           0        0.981337   -1.488573   -0.423395
      5          6           0        0.016350   -0.392993    0.114358
      6          8           0       -0.586259    0.347432   -0.963269
      7          6           0       -1.992545    0.486401   -0.747663
      8          6           0       -2.255147   -0.211573    0.555553
      9          6           0       -1.117918   -0.707761    1.030474
     10          1           0        0.705494    1.930699   -0.352639
     11          1           0        1.508102    0.189572    1.649913
     12          1           0        2.292938    0.044611   -1.313292
     13          1           0        3.116985   -0.813388    0.010363
     14          1           0        0.716342   -1.896585   -1.400197
     15          1           0        1.094204   -2.309425    0.290592
     16          1           0       -2.260864    1.552919   -0.718266
     17          1           0       -2.541739    0.034956   -1.588098
     18          1           0       -3.237872   -0.277120    1.004547
     19          1           0       -0.983671   -1.264465    1.949128
 ---------------------------------------------------------------------

 SCF Done:  E(RB3LYP) =  -423.178632998     A.U. after    1 cycles

 The electronic state is 1-A.
 Alpha  occ. eigenvalues --  -19.14780 -19.12533 -10.23821 -10.23576 -10.22286
 Alpha  occ. eigenvalues --  -10.19284 -10.18847 -10.18018 -10.17354  -1.04622
 Alpha  occ. eigenvalues --   -1.00806  -0.82856  -0.79176  -0.71090  -0.64662
 Alpha  occ. eigenvalues --   -0.61493  -0.57431  -0.55212  -0.52345  -0.48496
 Alpha  occ. eigenvalues --   -0.46750  -0.45488  -0.41534  -0.40917  -0.40445
 Alpha  occ. eigenvalues --   -0.38679  -0.38228  -0.34901  -0.33891  -0.32225
 Alpha  occ. eigenvalues --   -0.30296  -0.28286  -0.25512  -0.23025
 Alpha virt. eigenvalues --    0.00814   0.07542   0.10567   0.11024   0.12574
 Alpha virt. eigenvalues --    0.14127   0.14924   0.16339   0.16481   0.17068
 Alpha virt. eigenvalues --    0.17591   0.18403   0.19383   0.21031   0.22456

 Mulliken charges:
               1
     1  O   -0.435967
     2  C    0.118974
     3  C   -0.265398
     4  C   -0.274393
     5  C    0.368148
     6  O   -0.333443
     7  C   -0.137148
     8  C   -0.098688
     9  C   -0.165645
    10  H    0.284296
    11  H    0.082157
    12  H    0.109254
    13  H    0.096855
    14  H    0.110184
    15  H    0.100988
    16  H    0.112040
    17  H    0.111214
    18  H    0.110419
    19  H    0.106154
 Sum of Mulliken charges =   0.00000

 Dipole moment (field-independent basis, Debye):
    X=             -1.6985    Y=             -1.4680    Z=              0.0775  Tot=              2.2463
 Quadrupole moment (field-independent basis, Debye-Ang):
   XX=            -49.9160   YY=            -55.2774   ZZ=            -52.5284
   XY=             -3.6537   XZ=             -0.3958   YZ=             -3.6005

  Exact polarizability:  95.438  -7.171  69.137   3.404  -5.026  68.088
 Approx polarizability: 131.124 -11.702 103.335  10.106  -9.614 104.453

                      1                      2                      3
                      A                      A                      A
 Frequencies --     85.4783               112.7373               194.0609
 Red. masses --      2.9704                 3.1195                 2.5970
 Frc consts  --      0.0128                 0.0234                 0.0576
 IR Inten    --      1.9554                 2.8253                 0.5352

                      4                      5                      6
                      A                      A                      A
 Frequencies --    244.4725               342.1282               370.0528
 Red. masses --      3.9983                 2.6389                 2.8504
 Frc consts  --      0.1408                 0.1820                 0.2300
 IR Inten    --     12.3494                 2.2547                 1.9512

                      7                      8                      9
                      A                      A                      A
 Frequencies --    454.7425               484.9928               494.0037
 Red. masses --      2.4355                 2.0575                 1.6401
 Frc consts  --      0.2967                 0.2851                 0.2358
 IR Inten    --     19.1526                 8.6701                73.3837

                     10                     11                     12
                      A                      A                      A
 Frequencies --    595.4323               680.8788               714.0968
 Red. masses --      3.2037                 2.2177                 1.3008
 Frc consts  --      0.6692                 0.6057                 0.3908
 IR Inten    --      8.4204                 3.3213                14.5875

                     13                     14                     15
                      A                      A                      A
 Frequencies --    779.6371               786.3435               827.9071
 Red. masses --      4.0172                 1.9005                 4.4403
 Frc consts  --      1.4386                 0.6924                 1.7932
 IR Inten    --     11.7624                 7.5357                14.6119

                     16                     17                     18
                      A                      A                      A
 Frequencies --    875.8115               928.2524               948.9468
 Red. masses --      2.0608                 2.4970                 2.1217
 Frc consts  --      0.9313                 1.2677                 1.1257
 IR Inten    --      3.9893                 6.5436                 4.8171

                     19                     20                     21
                      A                      A                      A
 Frequencies --    956.1716               958.4160              1017.8284
 Red. masses --      2.5749                 1.2508                 3.8729
 Frc consts  --      1.3870                 0.6769                 2.3640
 IR Inten    --      1.7042                 0.4195                21.0320

                     22                     23                     24
                      A                      A                      A
 Frequencies --   1043.6933              1049.1653              1090.0780
 Red. masses --      1.8646                 2.1119                 1.9245
 Frc consts  --      1.1967                 1.3696                 1.3474
 IR Inten    --     16.3570                26.3521                37.6843

                     25                     26                     27
                      A                      A                      A
 Frequencies --   1110.1406              1141.1068              1157.1988
 Red. masses --      1.9248                 1.9105                 2.1121
 Frc consts  --      1.3977                 1.4657                 1.6664
 IR Inten    --     44.4790               102.9591                20.8418

                     28                     29                     30
                      A                      A                      A
 Frequencies --   1182.7730              1200.4996              1220.8588
 Red. masses --      1.8697                 1.0985                 1.6294
 Frc consts  --      1.5411                 0.9328                 1.4309
 IR Inten    --     21.5949                 3.1384                15.2433

                     31                     32                     33
                      A                      A                      A
 Frequencies --   1231.7913              1257.5932              1286.6657
 Red. masses --      1.3123                 1.4987                 1.5847
 Frc consts  --      1.1731                 1.3965                 1.5457
 IR Inten    --      1.9846                 2.9296                 1.2601

                     34                     35                     36
                      A                      A                      A
 Frequencies --   1341.2394              1370.6586              1380.5371
 Red. masses --      1.5134                 1.8567                 1.6498
 Frc consts  --      1.6041                 2.0551                 1.8525
 IR Inten    --      5.1881                 5.5902                 4.0067

                     37                     38                     39
                      A                      A                      A
 Frequencies --   1441.2265              1466.8330              1487.2415
 Red. masses --      1.2113                 1.0997                 1.1395
 Frc consts  --      1.4824                 1.3941                 1.4850
 IR Inten    --     67.3667                12.1078                 6.8727

                     40                     41                     42
                      A                      A                      A
 Frequencies --   1517.0252              1684.2071              2984.0790
 Red. masses --      1.0863                 6.6243                 1.0570
 Frc consts  --      1.4729                11.0708                 5.5458
 IR Inten    --      2.4446                 0.9607                86.2123

                     43                     44                     45
                      A                      A                      A
 Frequencies --   3005.6410              3055.8089              3063.7709
 Red. masses --      1.1050                 1.0823                 1.0625
 Frc consts  --      5.8816                 5.9548                 5.8760
 IR Inten    --     37.0498                24.0344                30.5124

                     46                     47                     48
                      A                      A                      A
 Frequencies --   3067.1947              3117.8646              3131.6329
 Red. masses --      1.0604                 1.1068                 1.1072
 Frc consts  --      5.8775                 6.3391                 6.3979
 IR Inten    --     26.4542                12.1993                33.3137

                     49                     50                     51
                      A                      A                      A
 Frequencies --   3207.8951              3231.8751              3739.1394
 Red. masses --      1.0855                 1.1064                 1.0644
 Frc consts  --      6.5817                 6.8089                 8.7679
 IR Inten    --      2.0812                 8.1253                36.3412

 - Thermochemistry -
 -------------------
 Temperature   298.150 Kelvin.  Pressure   1.00000 Atm.
 Atom     1 has atomic number  8 and mass  15.99491

 Molecular mass:   126.06808 amu.
 Principal axes and moments of inertia in atomic units:
                           1         2         3
     Eigenvalues --   630.655861239.763491415.01675
           X            0.99935  -0.03588  -0.00290
           Y            0.03571   0.99825  -0.04703
           Z            0.00458   0.04690   0.99889
 This molecule is an asymmetric top.
 Rotational symmetry number  1.
 Warning -- assumption of classical behavior for rotation
           may cause significant error
 Rotational temperatures (Kelvin)      0.13734     0.06986     0.06121
 Rotational constants (GHZ):           2.86169     1.45571     1.27542
 Zero-point vibrational energy     419397.7 (Joules/Mol)
                                  100.23846 (Kcal/Mol)
 Warning -- explicit consideration of  10 degrees of freedom as
           vibrations may cause significant error
 Vibrational temperatures:    122.98   162.20   279.21   351.74   492.25
          (Kelvin)            532.42   654.27   697.80   710.76   856.69
                              979.63  1027.42  1121.72  1131.37  1191.17
                             1260.10  1335.55  1365.32  1375.72  1378.95
                             1464.43  1501.64  1509.51  1568.38  1597.24
                             1641.80  1664.95  1701.74  1727.25  1756.54
                             1772.27  1809.39  1851.22  1929.74  1972.07
                             1986.28  2073.60  2110.44  2139.81  2182.66
                             2423.20  4293.42  4324.44  4396.62  4408.08
                             4413.00  4485.91  4505.72  4615.44  4649.94
                             5379.78

 Zero-point correction=                           0.159740 (Hartree/Particle)
 Thermal correction to Energy=                    0.167738
 Thermal correction to Enthalpy=                  0.168682
 Thermal correction to Gibbs Free Energy=         0.127151
 Sum of electronic and zero-point Energies=           -423.018893
 Sum of electronic and thermal Energies=              -423.010895
 Sum of electronic and thermal Enthalpies=            -423.009951
 Sum of electronic and thermal Free Energies=         -423.051482

                     E (Thermal)             CV                S
                      KCal/Mol        Cal/Mol-Kelvin    Cal/Mol-Kelvin
 Total                  105.257             31.366             87.409
 Electronic               0.000              0.000              0.000
 Translational            0.889              2.981             40.409
 Rotational               0.889              2.981             28.494
 Vibrational            103.480             25.404             18.506
 Vibration     1          0.601              1.959              3.761
 Vibration     2          0.607              1.939              3.221
 Vibration     3          0.635              1.848              2.189
 Vibration     4          0.660              1.772              1.770
 Vibration     5          0.721              1.591              1.202
 Vibration     6          0.742              1.534              1.080
 Vibration     7          0.813              1.350              0.782
 Vibration     8          0.841              1.283              0.697
 Vibration     9          0.850              1.263              0.673
 Vibration    10          0.953              1.042              0.458

 Optimization completed.
    -- Stationary point found.
 Normal termination of Gaussian 09 at Tue Jan 28 04:40:02 2020.
