 Gaussian 09, Revision D.01,
 Gaussian 09:  ES64L-G09RevD.01 24-Apr-2013

 -----------------------------
 # b3lyp 6-31G(2df,p) opt Freq
 -----------------------------

 -----
 titel
 -----
 Symbolic Z-matrix:
 Charge =  0 Multiplicity = 1

 SCF Done:  E(RB3LYP) =  -423.207917494     A.U. after   14 cycles
 Optimization completed.
    -- Stationary point found.
 Normal termination of Gaussian 09 at Tue Jan 28 01:55:43 2020.

 ----------------------------------------------------------------------
 #N Geom=AllCheck Guess=TCheck SCRF=Check GenChk RB3LYP/6-31G(2df,p) Fr
 eq
 ----------------------------------------------------------------------

 Structure from the checkpoint file:  "/scratch/puck/g09_a8db8737-c8e6-44b1-be20-8a2ab87b80b1/Gau-190828.chk"
 -----
 titel
 -----
 Charge =  0 Multiplicity = 1

                         Standard orientation:
 ---------------------------------------------------------------------
 Center     Atomic      Atomic             Coordinates (Angstroms)
 Number     Number       Type             X           Y           Z
 ---------------------------------------------------------------------
      1          6           0       -2.842457   -0.882377   -0.286801
      2          6           0       -1.960152    0.330325   -0.134115
      3          8           0       -1.271974    0.492901    1.116616
      4          6           0       -0.496259    0.278009   -0.074476
      5          6           0        0.402312    1.435866   -0.507902
      6          6           0        1.791493    1.044811    0.021238
      7          6           0        1.799877   -0.488526    0.011329
      8          8           0        2.772394   -1.191455    0.085746
      9          6           0        0.349469   -0.983684   -0.118717
     10          1           0       -3.770290   -0.751075    0.279347
     11          1           0       -3.111127   -1.027875   -1.338888
     12          1           0       -2.346956   -1.785989    0.074717
     13          1           0       -2.400074    1.259491   -0.505430
     14          1           0        0.417474    1.500689   -1.602748
     15          1           0        0.030371    2.385255   -0.118055
     16          1           0        2.638537    1.445410   -0.539157
     17          1           0        1.912407    1.359773    1.065933
     18          1           0        0.252665   -1.512740   -1.075084
     19          1           0        0.107935   -1.691040    0.677126
 ---------------------------------------------------------------------

 SCF Done:  E(RB3LYP) =  -423.207917494     A.U. after    1 cycles

 The electronic state is 1-A.
 Alpha  occ. eigenvalues --  -19.14849 -19.13128 -10.27181 -10.24643 -10.24139
 Alpha  occ. eigenvalues --  -10.19693 -10.19547 -10.19502 -10.18876  -1.07013
 Alpha  occ. eigenvalues --   -1.04278  -0.83348  -0.75161  -0.73195  -0.68273
 Alpha  occ. eigenvalues --   -0.61325  -0.56624  -0.54321  -0.49354  -0.48451
 Alpha  occ. eigenvalues --   -0.46451  -0.44241  -0.42861  -0.42470  -0.41461
 Alpha  occ. eigenvalues --   -0.39942  -0.39221  -0.37942  -0.35811  -0.34875
 Alpha  occ. eigenvalues --   -0.34373  -0.29729  -0.26715  -0.24098
 Alpha virt. eigenvalues --   -0.01990   0.08285   0.09323   0.11102   0.11401
 Alpha virt. eigenvalues --    0.12446   0.13712   0.14412   0.15591   0.16631
 Alpha virt. eigenvalues --    0.17245   0.17988   0.19250   0.19704   0.20727

 Mulliken charges:
               1
     1  C   -0.422205
     2  C   -0.005420
     3  O   -0.296964
     4  C    0.401959
     5  C   -0.299106
     6  C   -0.321821
     7  C    0.400765
     8  O   -0.308138
     9  C   -0.406178
    10  H    0.132654
    11  H    0.123369
    12  H    0.128336
    13  H    0.084248
    14  H    0.110924
    15  H    0.120669
    16  H    0.129262
    17  H    0.144242
    18  H    0.136208
    19  H    0.147198
 Sum of Mulliken charges =   0.00000

 Dipole moment (field-independent basis, Debye):
    X=             -2.1573    Y=              1.1952    Z=             -1.8437  Tot=              3.0792
 Quadrupole moment (field-independent basis, Debye-Ang):
   XX=            -58.9772   YY=            -52.9790   ZZ=            -53.6847
   XY=              6.5198   XZ=              1.9793   YZ=             -0.7702

  Exact polarizability:  93.658   1.030  74.018   1.455  -0.583  59.728
 Approx polarizability: 122.289  -5.678 106.089   1.207   0.537  98.742

                      1                      2                      3
                      A                      A                      A
 Frequencies --     57.9884               110.2941               161.1643
 Red. masses --      3.7827                 2.3526                 3.1646
 Frc consts  --      0.0075                 0.0169                 0.0484
 IR Inten    --      4.8180                 3.0294                 0.2903

                      4                      5                      6
                      A                      A                      A
 Frequencies --    182.2369               241.6158               356.9463
 Red. masses --      1.0634                 2.4244                 2.2658
 Frc consts  --      0.0208                 0.0834                 0.1701
 IR Inten    --      0.3758                 1.0784                 2.9167

                      7                      8                      9
                      A                      A                      A
 Frequencies --    393.0790               452.6884               470.6526
 Red. masses --      3.5248                 3.1287                 2.5669
 Frc consts  --      0.3209                 0.3778                 0.3350
 IR Inten    --      4.6576                 3.9314                 6.4848

                     10                     11                     12
                      A                      A                      A
 Frequencies --    478.0686               545.7772               601.2593
 Red. masses --      3.3600                 3.7943                 2.8101
 Frc consts  --      0.4524                 0.6659                 0.5985
 IR Inten    --      0.9787                 5.5024                 5.5695

                     13                     14                     15
                      A                      A                      A
 Frequencies --    714.3504               737.2459               797.6814
 Red. masses --      2.0951                 3.7155                 3.7094
 Frc consts  --      0.6299                 1.1899                 1.3906
 IR Inten    --      2.9351                13.8270                 2.4483

                     16                     17                     18
                      A                      A                      A
 Frequencies --    826.8473               876.1235               941.4670
 Red. masses --      2.6767                 2.1390                 1.9666
 Frc consts  --      1.0782                 0.9674                 1.0270
 IR Inten    --      3.7401                 4.1556                18.7919

                     19                     20                     21
                      A                      A                      A
 Frequencies --    965.9035               987.0202               995.5641
 Red. masses --      1.7438                 2.0382                 1.4523
 Frc consts  --      0.9585                 1.1699                 0.8481
 IR Inten    --      4.9764                 4.2351                 9.7183

                     22                     23                     24
                      A                      A                      A
 Frequencies --   1025.0151              1114.7389              1132.4910
 Red. masses --      2.1372                 2.2570                 3.0090
 Frc consts  --      1.3230                 1.6524                 2.2737
 IR Inten    --      9.7238                13.8261                55.7459

                     25                     26                     27
                      A                      A                      A
 Frequencies --   1152.0899              1167.0793              1194.9385
 Red. masses --      1.8828                 1.5801                 1.6031
 Frc consts  --      1.4724                 1.2681                 1.3486
 IR Inten    --     31.7565                 7.5173                 9.2836

                     28                     29                     30
                      A                      A                      A
 Frequencies --   1202.2901              1243.1658              1261.1227
 Red. masses --      1.6549                 1.5003                 1.8431
 Frc consts  --      1.4095                 1.3661                 1.7271
 IR Inten    --      7.9276                 2.9002                14.8429

                     31                     32                     33
                      A                      A                      A
 Frequencies --   1294.8791              1314.7675              1369.4825
 Red. masses --      1.3487                 1.5074                 1.4138
 Frc consts  --      1.3323                 1.5353                 1.5623
 IR Inten    --      1.5191                 5.9167                 8.4240

                     34                     35                     36
                      A                      A                      A
 Frequencies --   1408.8636              1427.1572              1449.7806
 Red. masses --      1.2674                 1.1048                 1.0832
 Frc consts  --      1.4821                 1.3258                 1.3414
 IR Inten    --      6.1189                 7.3404                 7.3711

                     37                     38                     39
                      A                      A                      A
 Frequencies --   1471.8832              1482.1370              1489.7785
 Red. masses --      1.2875                 1.0890                 1.0863
 Frc consts  --      1.6434                 1.4094                 1.4205
 IR Inten    --      2.4096                 4.1192                 6.2946

                     40                     41                     42
                      A                      A                      A
 Frequencies --   1520.0675              1851.9502              3035.3422
 Red. masses --      2.3215                12.7329                 1.0698
 Frc consts  --      3.1604                25.7298                 5.8072
 IR Inten    --      8.3884               233.2074                 6.0064

                     43                     44                     45
                      A                      A                      A
 Frequencies --   3038.8118              3041.1754              3043.5381
 Red. masses --      1.0381                 1.0644                 1.0662
 Frc consts  --      5.6478                 5.8002                 5.8190
 IR Inten    --     18.1711                16.4976                 9.3645

                     46                     47                     48
                      A                      A                      A
 Frequencies --   3073.9654              3101.1776              3112.8099
 Red. masses --      1.0861                 1.1004                 1.0944
 Frc consts  --      6.0465                 6.2355                 6.2480
 IR Inten    --     28.0519                16.1185                 8.5654

                     49                     50                     51
                      A                      A                      A
 Frequencies --   3117.5213              3118.3874              3132.6899
 Red. masses --      1.0957                 1.0981                 1.1001
 Frc consts  --      6.2744                 6.2913                 6.3609
 IR Inten    --      1.9859                14.0701                23.8601

 - Thermochemistry -
 -------------------
 Temperature   298.150 Kelvin.  Pressure   1.00000 Atm.
 Atom     1 has atomic number  6 and mass  12.00000

 Molecular mass:   126.06808 amu.
 Principal axes and moments of inertia in atomic units:
                           1         2         3
     Eigenvalues --   520.623491623.570361913.57354
           X            0.99898   0.04411   0.00986
           Y           -0.04399   0.99895  -0.01250
           Z           -0.01040   0.01205   0.99987
 This molecule is an asymmetric top.
 Rotational symmetry number  1.
 Warning -- assumption of classical behavior for rotation
           may cause significant error
 Rotational temperatures (Kelvin)      0.16637     0.05335     0.04526
 Rotational constants (GHZ):           3.46650     1.11159     0.94313
 Zero-point vibrational energy     414404.8 (Joules/Mol)
                                   99.04512 (Kcal/Mol)
 Warning -- explicit consideration of  12 degrees of freedom as
           vibrations may cause significant error
 Vibrational temperatures:     83.43   158.69   231.88   262.20   347.63
          (Kelvin)            513.57   565.55   651.32   677.16   687.83
                              785.25   865.08  1027.79  1060.73  1147.68
                             1189.65  1260.54  1354.56  1389.72  1420.10
                             1432.39  1474.77  1603.86  1629.40  1657.60
                             1679.16  1719.25  1729.83  1788.64  1814.47
                             1863.04  1891.65  1970.38  2027.04  2053.36
                             2085.91  2117.71  2132.46  2143.46  2187.04
                             2664.54  4367.17  4372.17  4375.57  4378.97
                             4422.75  4461.90  4478.63  4485.41  4486.66
                             4507.24

 Zero-point correction=                           0.157838 (Hartree/Particle)
 Thermal correction to Energy=                    0.166517
 Thermal correction to Enthalpy=                  0.167461
 Thermal correction to Gibbs Free Energy=         0.124126
 Sum of electronic and zero-point Energies=           -423.050079
 Sum of electronic and thermal Energies=              -423.041401
 Sum of electronic and thermal Enthalpies=            -423.040457
 Sum of electronic and thermal Free Energies=         -423.083791

                     E (Thermal)             CV                S
                      KCal/Mol        Cal/Mol-Kelvin    Cal/Mol-Kelvin
 Total                  104.491             32.718             91.206
 Electronic               0.000              0.000              0.000
 Translational            0.889              2.981             40.409
 Rotational               0.889              2.981             28.871
 Vibrational            102.713             26.756             21.926
 Vibration     1          0.596              1.974              4.525
 Vibration     2          0.606              1.941              3.264
 Vibration     3          0.622              1.890              2.536
 Vibration     4          0.630              1.864              2.305
 Vibration     5          0.658              1.777              1.791
 Vibration     6          0.732              1.561              1.135
 Vibration     7          0.760              1.485              0.988
 Vibration     8          0.811              1.355              0.788
 Vibration     9          0.828              1.315              0.736
 Vibration    10          0.835              1.299              0.715
 Vibration    11          0.901              1.149              0.553
 Vibration    12          0.959              1.029              0.447

 Optimization completed.
    -- Stationary point found.
 Normal termination of Gaussian 09 at Tue Jan 28 02:42:10 2020.
