 Gaussian 09, Revision D.01,
 Gaussian 09:  ES64L-G09RevD.01 24-Apr-2013

 -----------------------------
 # b3lyp 6-31G(2df,p) opt Freq
 -----------------------------

 -----
 titel
 -----
 Symbolic Z-matrix:
 Charge =  0 Multiplicity = 1

 SCF Done:  E(RB3LYP) =  -423.118415672     A.U. after   13 cycles
 Optimization completed.
    -- Stationary point found.
 Normal termination of Gaussian 09 at Mon Jan 27 16:25:00 2020.

 ----------------------------------------------------------------------
 #N Geom=AllCheck Guess=TCheck SCRF=Check GenChk RB3LYP/6-31G(2df,p) Fr
 eq
 ----------------------------------------------------------------------

 Structure from the checkpoint file:  "/scratch/puck/g09_3dd2e705-5e01-4c90-83c9-e76fe81fc9d4/Gau-56240.chk"
 -----
 titel
 -----
 Charge =  0 Multiplicity = 1

                         Standard orientation:
 ---------------------------------------------------------------------
 Center     Atomic      Atomic             Coordinates (Angstroms)
 Number     Number       Type             X           Y           Z
 ---------------------------------------------------------------------
      1          6           0        1.970591    1.471983   -0.121729
      2          6           0        1.195770    0.172208   -0.126051
      3          6           0        1.887609   -1.118458   -0.244706
      4          8           0        1.383549   -0.664383    1.018029
      5          6           0       -0.239381    0.290891   -0.601691
      6          8           0       -0.900395   -0.998361   -0.696456
      7          6           0       -1.783988   -0.637206    0.371753
      8          6           0       -2.647300    0.516602   -0.026871
      9          6           0       -1.233578    0.760661    0.464846
     10          1           0        1.462533    2.229959    0.484681
     11          1           0        2.967008    1.315407    0.297377
     12          1           0        2.075220    1.869715   -1.136772
     13          1           0        1.356746   -1.966442   -0.668211
     14          1           0        2.973270   -1.133185   -0.334744
     15          1           0       -0.263033    0.825598   -1.561491
     16          1           0       -2.014668   -1.390109    1.114950
     17          1           0       -2.905392    0.658374   -1.072938
     18          1           0       -3.423411    0.789568    0.681847
     19          1           0       -0.991840    1.362979    1.329419
 ---------------------------------------------------------------------

 SCF Done:  E(RB3LYP) =  -423.118415672     A.U. after    1 cycles

 The electronic state is 1-A.
 Alpha  occ. eigenvalues --  -19.14412 -19.13971 -10.24156 -10.24063 -10.23838
 Alpha  occ. eigenvalues --  -10.22492 -10.19618 -10.19078 -10.18583  -1.07075
 Alpha  occ. eigenvalues --   -1.04765  -0.83265  -0.76703  -0.69777  -0.65709
 Alpha  occ. eigenvalues --   -0.60458  -0.58669  -0.53457  -0.52323  -0.49295
 Alpha  occ. eigenvalues --   -0.48012  -0.45371  -0.44761  -0.42152  -0.40324
 Alpha  occ. eigenvalues --   -0.38539  -0.36915  -0.36448  -0.34346  -0.33445
 Alpha  occ. eigenvalues --   -0.28828  -0.27915  -0.26495  -0.23653
 Alpha virt. eigenvalues --    0.07837   0.09423   0.09710   0.11386   0.12186
 Alpha virt. eigenvalues --    0.12844   0.13909   0.14357   0.15679   0.15991
 Alpha virt. eigenvalues --    0.17135   0.17581   0.19420   0.20667   0.21721

 Mulliken charges:
               1
     1  C   -0.471211
     2  C    0.382491
     3  C   -0.221158
     4  O   -0.272421
     5  C    0.045439
     6  O   -0.296855
     7  C    0.115922
     8  C   -0.314080
     9  C   -0.117105
    10  H    0.126990
    11  H    0.133003
    12  H    0.124254
    13  H    0.131408
    14  H    0.105655
    15  H    0.079960
    16  H    0.109191
    17  H    0.114763
    18  H    0.116802
    19  H    0.106952
 Sum of Mulliken charges =   0.00000

 Dipole moment (field-independent basis, Debye):
    X=             -0.0175    Y=              1.5814    Z=             -0.4928  Tot=              1.6565
 Quadrupole moment (field-independent basis, Debye-Ang):
   XX=            -48.8663   YY=            -52.9803   ZZ=            -54.3173
   XY=             -0.2984   XZ=             -4.5694   YZ=             -0.1414

  Exact polarizability:  89.125  -2.672  73.081  -2.982  -0.295  62.056
 Approx polarizability: 111.986  -3.534 111.866  -3.593   0.109 100.917

                      1                      2                      3
                      A                      A                      A
 Frequencies --     84.0367               137.3407               172.1623
 Red. masses --      3.5606                 3.4276                 1.5563
 Frc consts  --      0.0148                 0.0381                 0.0272
 IR Inten    --      1.9563                 2.3304                 0.9342

                      4                      5                      6
                      A                      A                      A
 Frequencies --    191.4217               302.0252               332.7443
 Red. masses --      1.6467                 4.4606                 2.8826
 Frc consts  --      0.0356                 0.2397                 0.1880
 IR Inten    --      1.0769                 0.8269                 1.4788

                      7                      8                      9
                      A                      A                      A
 Frequencies --    363.2269               446.4807               484.3873
 Red. masses --      2.6806                 2.6840                 3.1786
 Frc consts  --      0.2084                 0.3152                 0.4394
 IR Inten    --      2.8608                 4.7467                 1.9874

                     10                     11                     12
                      A                      A                      A
 Frequencies --    526.5493               737.8593               766.9981
 Red. masses --      3.6067                 2.9547                 1.8740
 Frc consts  --      0.5892                 0.9478                 0.6495
 IR Inten    --     10.2049                 2.1554                17.0758

                     13                     14                     15
                      A                      A                      A
 Frequencies --    800.8868               847.7206               874.3399
 Red. masses --      2.2284                 3.5409                 2.3230
 Frc consts  --      0.8422                 1.4993                 1.0463
 IR Inten    --     10.4218                22.7085                 6.6173

                     16                     17                     18
                      A                      A                      A
 Frequencies --    903.0403               932.6356               945.5341
 Red. masses --      2.2771                 1.6353                 2.3393
 Frc consts  --      1.0941                 0.8381                 1.2322
 IR Inten    --     17.7778                 7.6291                15.3678

                     19                     20                     21
                      A                      A                      A
 Frequencies --    958.1503               982.7229              1018.9983
 Red. masses --      2.5282                 2.0843                 2.3055
 Frc consts  --      1.3675                 1.1860                 1.4105
 IR Inten    --      4.5995                24.8384                10.6063

                     22                     23                     24
                      A                      A                      A
 Frequencies --   1033.1236              1045.0312              1060.0822
 Red. masses --      2.1196                 1.2444                 1.7236
 Frc consts  --      1.3330                 0.8007                 1.1412
 IR Inten    --     47.0597                 1.0696                 1.9166

                     25                     26                     27
                      A                      A                      A
 Frequencies --   1068.4866              1086.1336              1111.3187
 Red. masses --      1.7836                 1.8312                 1.7912
 Frc consts  --      1.1997                 1.2728                 1.3034
 IR Inten    --      8.2664                31.6531                19.0704

                     28                     29                     30
                      A                      A                      A
 Frequencies --   1135.4262              1176.7592              1206.5463
 Red. masses --      1.3977                 1.3688                 2.0146
 Frc consts  --      1.0617                 1.1167                 1.7279
 IR Inten    --      4.0960                 1.6906                 2.2206

                     31                     32                     33
                      A                      A                      A
 Frequencies --   1233.7811              1245.1784              1298.1151
 Red. masses --      1.2689                 2.0490                 1.7330
 Frc consts  --      1.1381                 1.8717                 1.7206
 IR Inten    --      0.8398                12.6822                 3.4744

                     34                     35                     36
                      A                      A                      A
 Frequencies --   1340.5739              1389.4054              1394.7219
 Red. masses --      1.8990                 1.8672                 1.7161
 Frc consts  --      2.0108                 2.1237                 1.9668
 IR Inten    --     13.8729                 1.6275                 5.0260

                     37                     38                     39
                      A                      A                      A
 Frequencies --   1414.9876              1472.3671              1482.9381
 Red. masses --      1.6085                 1.2744                 1.0562
 Frc consts  --      1.8975                 1.6278                 1.3685
 IR Inten    --     12.3764                 4.3553                 4.9499

                     40                     41                     42
                      A                      A                      A
 Frequencies --   1493.6504              1519.4376              3010.9519
 Red. masses --      1.0524                 1.4757                 1.0832
 Frc consts  --      1.3834                 2.0073                 5.7860
 IR Inten    --      4.1210                 3.6157                44.0463

                     43                     44                     45
                      A                      A                      A
 Frequencies --   3036.1561              3090.0503              3097.5383
 Red. masses --      1.0371                 1.0533                 1.1000
 Frc consts  --      5.6329                 5.9256                 6.2182
 IR Inten    --     21.2396                28.8519                21.7347

                     46                     47                     48
                      A                      A                      A
 Frequencies --   3113.6675              3127.9780              3192.4640
 Red. masses --      1.0542                 1.1007                 1.0926
 Frc consts  --      6.0215                 6.3452                 6.5610
 IR Inten    --     14.6684                15.2140                17.1973

                     49                     50                     51
                      A                      A                      A
 Frequencies --   3193.3610              3203.7049              3214.5967
 Red. masses --      1.1162                 1.1107                 1.1012
 Frc consts  --      6.7067                 6.7164                 6.7043
 IR Inten    --      9.2793                 3.9423                11.9470

 - Thermochemistry -
 -------------------
 Temperature   298.150 Kelvin.  Pressure   1.00000 Atm.
 Atom     1 has atomic number  6 and mass  12.00000

 Molecular mass:   126.06808 amu.
 Principal axes and moments of inertia in atomic units:
                           1         2         3
     Eigenvalues --   516.096721379.397651586.61169
           X            0.99984   0.00677  -0.01670
           Y           -0.00683   0.99997  -0.00366
           Z            0.01667   0.00377   0.99985
 This molecule is an asymmetric top.
 Rotational symmetry number  1.
 Warning -- assumption of classical behavior for rotation
           may cause significant error
 Rotational temperatures (Kelvin)      0.16782     0.06279     0.05459
 Rotational constants (GHZ):           3.49690     1.30835     1.13748
 Zero-point vibrational energy     414492.9 (Joules/Mol)
                                   99.06617 (Kcal/Mol)
 Warning -- explicit consideration of  10 degrees of freedom as
           vibrations may cause significant error
 Vibrational temperatures:    120.91   197.60   247.70   275.41   434.55
          (Kelvin)            478.74   522.60   642.39   696.92   757.59
                             1061.61  1103.54  1152.30  1219.68  1257.98
                             1299.27  1341.85  1360.41  1378.56  1413.92
                             1466.11  1486.43  1503.56  1525.22  1537.31
                             1562.70  1598.94  1633.62  1693.09  1735.95
                             1775.13  1791.53  1867.70  1928.78  1999.04
                             2006.69  2035.85  2118.41  2133.61  2149.03
                             2186.13  4332.08  4368.35  4445.89  4456.66
                             4479.87  4500.46  4593.24  4594.53  4609.41
                             4625.08

 Zero-point correction=                           0.157872 (Hartree/Particle)
 Thermal correction to Energy=                    0.166142
 Thermal correction to Enthalpy=                  0.167086
 Thermal correction to Gibbs Free Energy=         0.125016
 Sum of electronic and zero-point Energies=           -422.960544
 Sum of electronic and thermal Energies=              -422.952274
 Sum of electronic and thermal Enthalpies=            -422.951330
 Sum of electronic and thermal Free Energies=         -422.993400

                     E (Thermal)             CV                S
                      KCal/Mol        Cal/Mol-Kelvin    Cal/Mol-Kelvin
 Total                  104.256             31.836             88.545
 Electronic               0.000              0.000              0.000
 Translational            0.889              2.981             40.409
 Rotational               0.889              2.981             28.515
 Vibrational            102.478             25.874             19.622
 Vibration     1          0.601              1.960              3.794
 Vibration     2          0.614              1.916              2.841
 Vibration     3          0.626              1.877              2.412
 Vibration     4          0.634              1.852              2.214
 Vibration     5          0.694              1.670              1.406
 Vibration     6          0.715              1.610              1.247
 Vibration     7          0.737              1.548              1.108
 Vibration     8          0.806              1.369              0.806
 Vibration     9          0.841              1.285              0.698
 Vibration    10          0.882              1.191              0.595

 Optimization completed.
    -- Stationary point found.
 Normal termination of Gaussian 09 at Mon Jan 27 17:04:17 2020.
