 Gaussian 09, Revision D.01,
 Gaussian 09:  ES64L-G09RevD.01 24-Apr-2013

 -----------------------------
 # b3lyp 6-31G(2df,p) opt Freq
 -----------------------------

 -----
 titel
 -----
 Symbolic Z-matrix:
 Charge =  0 Multiplicity = 1

 SCF Done:  E(RB3LYP) =  -423.137132322     A.U. after   13 cycles
 Optimization completed.
    -- Stationary point found.
 Normal termination of Gaussian 09 at Mon Jan 27 22:01:33 2020.

 ----------------------------------------------------------------------
 #N Geom=AllCheck Guess=TCheck SCRF=Check GenChk RB3LYP/6-31G(2df,p) Fr
 eq
 ----------------------------------------------------------------------

 Structure from the checkpoint file:  "/scratch/puck/g09_e596777b-7d3b-4e4f-9410-e90fadfeea41/Gau-175809.chk"
 -----
 titel
 -----
 Charge =  0 Multiplicity = 1

                         Standard orientation:
 ---------------------------------------------------------------------
 Center     Atomic      Atomic             Coordinates (Angstroms)
 Number     Number       Type             X           Y           Z
 ---------------------------------------------------------------------
      1          8           0        1.571909    1.540042   -0.082084
      2          6           0        0.500926    0.629169    0.024151
      3          6           0       -0.833754    1.370677    0.115151
      4          8           0       -1.925338    0.579804   -0.308890
      5          6           0       -1.835129   -0.757567    0.152431
      6          6           0       -0.414633   -1.289563    0.051133
      7          6           0        0.687709   -0.628079    0.934023
      8          6           0        1.728870   -1.144653   -0.097794
      9          6           0        0.556716   -0.582183   -0.953258
     10          1           0        1.598640    2.069639    0.722134
     11          1           0       -0.986140    1.735901    1.149045
     12          1           0       -0.802455    2.241106   -0.546990
     13          1           0       -2.195911   -0.840295    1.193548
     14          1           0       -2.516341   -1.338114   -0.478419
     15          1           0       -0.381783   -2.382628    0.034459
     16          1           0        0.751923   -0.648700    2.024827
     17          1           0        2.672695   -0.605540   -0.152794
     18          1           0        1.868355   -2.228557   -0.133094
     19          1           0        0.474229   -0.548379   -2.039945
 ---------------------------------------------------------------------

 SCF Done:  E(RB3LYP) =  -423.137132322     A.U. after    1 cycles

 The electronic state is 1-A.
 Alpha  occ. eigenvalues --  -19.14300 -19.13679 -10.24054 -10.22489 -10.22380
 Alpha  occ. eigenvalues --  -10.19842 -10.19617 -10.19500 -10.18311  -1.03946
 Alpha  occ. eigenvalues --   -1.02395  -0.90434  -0.74681  -0.69744  -0.63553
 Alpha  occ. eigenvalues --   -0.62668  -0.60621  -0.52990  -0.49985  -0.49268
 Alpha  occ. eigenvalues --   -0.48420  -0.46577  -0.43800  -0.41894  -0.38809
 Alpha  occ. eigenvalues --   -0.37502  -0.36753  -0.32785  -0.32318  -0.31447
 Alpha  occ. eigenvalues --   -0.30771  -0.28963  -0.27001  -0.24014
 Alpha virt. eigenvalues --    0.07022   0.09667   0.11797   0.12807   0.13514
 Alpha virt. eigenvalues --    0.14018   0.14391   0.15889   0.16652   0.17055
 Alpha virt. eigenvalues --    0.17655   0.17756   0.18946   0.19694   0.20639

 Mulliken charges:
               1
     1  O   -0.484313
     2  C    0.421891
     3  C   -0.165440
     4  O   -0.241499
     5  C   -0.116633
     6  C   -0.014810
     7  C   -0.134231
     8  C   -0.245543
     9  C   -0.095928
    10  H    0.281329
    11  H    0.074023
    12  H    0.116766
    13  H    0.084836
    14  H    0.109404
    15  H    0.072084
    16  H    0.062187
    17  H    0.112239
    18  H    0.086682
    19  H    0.076956
 Sum of Mulliken charges =   0.00000

 Dipole moment (field-independent basis, Debye):
    X=              0.3643    Y=             -0.4641    Z=              1.6220  Tot=              1.7260
 Quadrupole moment (field-independent basis, Debye-Ang):
   XX=            -57.8803   YY=            -50.0342   ZZ=            -51.8640
   XY=              2.1428   XZ=              0.9473   YZ=              3.2667

  Exact polarizability:  78.076   1.337  79.211  -0.649   1.822  66.703
 Approx polarizability: 108.113   4.162 113.431   0.280   1.540 107.371

                      1                      2                      3
                      A                      A                      A
 Frequencies --    185.4219               202.8427               221.4696
 Red. masses --      2.3344                 2.2905                 1.2479
 Frc consts  --      0.0473                 0.0555                 0.0361
 IR Inten    --     15.3834                 6.9495                71.1965

                      4                      5                      6
                      A                      A                      A
 Frequencies --    342.0411               365.3437               407.2428
 Red. masses --      2.1248                 4.3651                 3.1105
 Frc consts  --      0.1465                 0.3433                 0.3039
 IR Inten    --      2.7147                 9.8868                 8.0714

                      7                      8                      9
                      A                      A                      A
 Frequencies --    427.3377               495.0132               580.8175
 Red. masses --      3.1160                 7.2102                 3.7102
 Frc consts  --      0.3353                 1.0409                 0.7374
 IR Inten    --      0.1617                 2.0140                 0.8592

                     10                     11                     12
                      A                      A                      A
 Frequencies --    666.2528               761.0092               770.7661
 Red. masses --      4.0782                 2.8672                 3.3689
 Frc consts  --      1.0666                 0.9783                 1.1792
 IR Inten    --      0.8277                 0.5075                 8.1891

                     13                     14                     15
                      A                      A                      A
 Frequencies --    818.8133               851.9065               894.6253
 Red. masses --      2.5736                 2.7388                 2.5115
 Frc consts  --      1.0166                 1.1711                 1.1843
 IR Inten    --      2.8233                11.4800                15.6504

                     16                     17                     18
                      A                      A                      A
 Frequencies --    904.1466               963.3327              1009.6565
 Red. masses --      2.1764                 3.1318                 1.4816
 Frc consts  --      1.0483                 1.7123                 0.8899
 IR Inten    --      1.1744                13.2857                 1.3440

                     19                     20                     21
                      A                      A                      A
 Frequencies --   1015.2180              1024.8182              1052.5634
 Red. masses --      1.2424                 1.2685                 2.4755
 Frc consts  --      0.7544                 0.7849                 1.6159
 IR Inten    --      7.4852                 2.0325                27.7123

                     22                     23                     24
                      A                      A                      A
 Frequencies --   1070.8051              1088.5391              1099.5053
 Red. masses --      1.7728                 1.9322                 1.5358
 Frc consts  --      1.1976                 1.3489                 1.0939
 IR Inten    --      1.6091                 4.3579                 0.8384

                     25                     26                     27
                      A                      A                      A
 Frequencies --   1136.3320              1161.9823              1189.8400
 Red. masses --      1.9736                 3.6466                 2.1225
 Frc consts  --      1.5015                 2.9009                 1.7704
 IR Inten    --     78.6151                70.5209                30.2686

                     28                     29                     30
                      A                      A                      A
 Frequencies --   1196.3165              1207.9856              1228.4264
 Red. masses --      1.4316                 4.0177                 1.6522
 Frc consts  --      1.2072                 3.4542                 1.4690
 IR Inten    --      0.4144                16.2774                 9.0058

                     31                     32                     33
                      A                      A                      A
 Frequencies --   1243.2798              1248.2361              1265.3193
 Red. masses --      1.5627                 1.5100                 1.4271
 Frc consts  --      1.4232                 1.3862                 1.3461
 IR Inten    --      0.6971                 3.7597                59.9395

                     34                     35                     36
                      A                      A                      A
 Frequencies --   1299.7232              1346.0865              1381.5780
 Red. masses --      1.3412                 1.6701                 1.3324
 Frc consts  --      1.3349                 1.7830                 1.4984
 IR Inten    --      1.7184                17.8242                 0.2642

                     37                     38                     39
                      A                      A                      A
 Frequencies --   1382.7410              1426.7699              1499.4349
 Red. masses --      1.8783                 1.4084                 1.0792
 Frc consts  --      2.1159                 1.6892                 1.4295
 IR Inten    --      4.0297                11.5528                 0.0895

                     40                     41                     42
                      A                      A                      A
 Frequencies --   1507.5315              1510.3239              2920.4951
 Red. masses --      1.1066                 1.1240                 1.0721
 Frc consts  --      1.4817                 1.5107                 5.3876
 IR Inten    --      1.8476                 2.9027                74.6991

                     43                     44                     45
                      A                      A                      A
 Frequencies --   2945.2594              3061.4724              3064.0607
 Red. masses --      1.0723                 1.0869                 1.0622
 Frc consts  --      5.4806                 6.0019                 5.8756
 IR Inten    --     81.1977                 5.9584                46.8186

                     46                     47                     48
                      A                      A                      A
 Frequencies --   3073.1354              3080.2100              3083.5191
 Red. masses --      1.0871                 1.0894                 1.0897
 Frc consts  --      6.0491                 6.0898                 6.1046
 IR Inten    --     67.0986                42.2870                47.3975

                     49                     50                     51
                      A                      A                      A
 Frequencies --   3112.8451              3157.6810              3803.9224
 Red. masses --      1.0921                 1.1043                 1.0660
 Frc consts  --      6.2351                 6.4873                 9.0882
 IR Inten    --     38.0164                19.4395                22.7934

 - Thermochemistry -
 -------------------
 Temperature   298.150 Kelvin.  Pressure   1.00000 Atm.
 Atom     1 has atomic number  8 and mass  15.99491

 Molecular mass:   126.06808 amu.
 Principal axes and moments of inertia in atomic units:
                           1         2         3
     Eigenvalues --   658.63019 931.141441334.60968
           X            0.99995  -0.00772  -0.00563
           Y            0.00782   0.99982   0.01738
           Z            0.00549  -0.01743   0.99983
 This molecule is an asymmetric top.
 Rotational symmetry number  1.
 Warning -- assumption of classical behavior for rotation
           may cause significant error
 Rotational temperatures (Kelvin)      0.13151     0.09302     0.06490
 Rotational constants (GHZ):           2.74014     1.93820     1.35226
 Zero-point vibrational energy     423202.9 (Joules/Mol)
                                  101.14791 (Kcal/Mol)
 Warning -- explicit consideration of   9 degrees of freedom as
           vibrations may cause significant error
 Vibrational temperatures:    266.78   291.85   318.64   492.12   525.65
          (Kelvin)            585.93   614.84   712.21   835.67   958.59
                             1094.92  1108.96  1178.09  1225.70  1287.16
                             1300.86  1386.02  1452.67  1460.67  1474.48
                             1514.40  1540.65  1566.16  1581.94  1634.93
                             1671.83  1711.91  1721.23  1738.02  1767.43
                             1788.80  1795.93  1820.51  1870.01  1936.72
                             1987.78  1989.45  2052.80  2157.35  2169.00
                             2173.02  4201.94  4237.57  4404.77  4408.49
                             4421.55  4431.73  4436.49  4478.68  4543.19
                             5472.99

 Zero-point correction=                           0.161189 (Hartree/Particle)
 Thermal correction to Energy=                    0.168401
 Thermal correction to Enthalpy=                  0.169345
 Thermal correction to Gibbs Free Energy=         0.130003
 Sum of electronic and zero-point Energies=           -422.975943
 Sum of electronic and thermal Energies=              -422.968732
 Sum of electronic and thermal Enthalpies=            -422.967787
 Sum of electronic and thermal Free Energies=         -423.007130

                     E (Thermal)             CV                S
                      KCal/Mol        Cal/Mol-Kelvin    Cal/Mol-Kelvin
 Total                  105.673             29.625             82.803
 Electronic               0.000              0.000              0.000
 Translational            0.889              2.981             40.409
 Rotational               0.889              2.981             28.195
 Vibrational            103.896             23.664             14.200
 Vibration     1          0.631              1.860              2.273
 Vibration     2          0.639              1.836              2.107
 Vibration     3          0.648              1.808              1.947
 Vibration     4          0.721              1.591              1.203
 Vibration     5          0.739              1.544              1.099
 Vibration     6          0.772              1.454              0.936
 Vibration     7          0.789              1.411              0.867
 Vibration     8          0.851              1.261              0.671
 Vibration     9          0.938              1.073              0.484

 Optimization completed.
    -- Stationary point found.
 Normal termination of Gaussian 09 at Mon Jan 27 22:56:09 2020.
