 Gaussian 09, Revision D.01,
 Gaussian 09:  ES64L-G09RevD.01 24-Apr-2013

 -----------------------------
 # b3lyp 6-31G(2df,p) opt Freq
 -----------------------------

 -----
 titel
 -----
 Symbolic Z-matrix:
 Charge =  0 Multiplicity = 1

 SCF Done:  E(RB3LYP) =  -423.155143440     A.U. after   14 cycles
 Optimization completed.
    -- Stationary point found.
 Normal termination of Gaussian 09 at Mon Jan 27 23:03:55 2020.

 ----------------------------------------------------------------------
 #N Geom=AllCheck Guess=TCheck SCRF=Check GenChk RB3LYP/6-31G(2df,p) Fr
 eq
 ----------------------------------------------------------------------

 Structure from the checkpoint file:  "/scratch/puck/g09_ed8be180-fd9e-4bf0-afa1-023bf4a5a6c5/Gau-179107.chk"
 -----
 titel
 -----
 Charge =  0 Multiplicity = 1

                         Standard orientation:
 ---------------------------------------------------------------------
 Center     Atomic      Atomic             Coordinates (Angstroms)
 Number     Number       Type             X           Y           Z
 ---------------------------------------------------------------------
      1          8           0       -1.324252    2.002910   -0.254202
      2          6           0       -1.389393    0.740766    0.364109
      3          6           0       -1.823189   -0.426551   -0.533065
      4          6           0       -1.763045   -1.717654    0.237836
      5          6           0       -0.487730   -1.140147   -0.300250
      6          6           0       -0.008896    0.007145    0.607596
      7          6           0        1.211998    0.772826    0.085149
      8          6           0        2.472584   -0.021666    0.337596
      9          8           0        3.166000   -0.505493   -0.520118
     10          1           0       -0.954625    1.891605   -1.136915
     11          1           0       -1.992446    0.893891    1.265224
     12          1           0       -2.414692   -0.319756   -1.435570
     13          1           0       -1.953425   -1.724477    1.309329
     14          1           0       -2.145476   -2.588142   -0.285165
     15          1           0        0.139014   -1.674919   -1.004358
     16          1           0        0.166762   -0.286582    1.651082
     17          1           0        1.142691    0.964851   -0.989744
     18          1           0        1.284764    1.733817    0.609935
     19          1           0        2.719467   -0.157936    1.416922
 ---------------------------------------------------------------------

 SCF Done:  E(RB3LYP) =  -423.155143440     A.U. after    1 cycles

 The electronic state is 1-A.
 Alpha  occ. eigenvalues --  -19.14801 -19.14058 -10.27276 -10.24225 -10.20339
 Alpha  occ. eigenvalues --  -10.20055 -10.19831 -10.19785 -10.19660  -1.04717
 Alpha  occ. eigenvalues --   -1.03214  -0.89971  -0.78575  -0.70337  -0.64527
 Alpha  occ. eigenvalues --   -0.60303  -0.57969  -0.55913  -0.51937  -0.48602
 Alpha  occ. eigenvalues --   -0.47805  -0.45617  -0.44256  -0.42138  -0.41921
 Alpha  occ. eigenvalues --   -0.39344  -0.37831  -0.37261  -0.35807  -0.31848
 Alpha  occ. eigenvalues --   -0.30273  -0.28169  -0.26051  -0.24917
 Alpha virt. eigenvalues --   -0.02264   0.06196   0.09185   0.10417   0.11020
 Alpha virt. eigenvalues --    0.11663   0.13375   0.14458   0.15633   0.16227
 Alpha virt. eigenvalues --    0.16829   0.17423   0.19122   0.21385   0.21562

 Mulliken charges:
               1
     1  O   -0.423151
     2  C    0.120930
     3  C   -0.093775
     4  C   -0.294170
     5  C   -0.045878
     6  C   -0.057504
     7  C   -0.289630
     8  C    0.152661
     9  O   -0.240849
    10  H    0.283622
    11  H    0.089005
    12  H    0.090094
    13  H    0.109130
    14  H    0.118712
    15  H    0.102809
    16  H    0.071349
    17  H    0.104277
    18  H    0.127983
    19  H    0.074384
 Sum of Mulliken charges =   0.00000

 Dipole moment (field-independent basis, Debye):
    X=             -1.6091    Y=             -0.2013    Z=              0.4970  Tot=              1.6961
 Quadrupole moment (field-independent basis, Debye-Ang):
   XX=            -62.7128   YY=            -55.8200   ZZ=            -49.8337
   XY=              6.4646   XZ=              4.8485   YZ=             -1.4316

  Exact polarizability:  85.818   0.139  73.462  -0.543   0.107  69.894
 Approx polarizability: 116.419  -6.563 107.842  -6.226   1.615 112.571

                      1                      2                      3
                      A                      A                      A
 Frequencies --     40.1398                79.7862               123.7901
 Red. masses --      6.3380                 3.3292                 2.5961
 Frc consts  --      0.0060                 0.0125                 0.0234
 IR Inten    --      5.8023                 6.3098                 1.7577

                      4                      5                      6
                      A                      A                      A
 Frequencies --    173.8141               273.9889               285.1622
 Red. masses --      3.7786                 3.5045                 2.2662
 Frc consts  --      0.0673                 0.1550                 0.1086
 IR Inten    --      1.1620                 2.8686                 5.1878

                      7                      8                      9
                      A                      A                      A
 Frequencies --    330.4799               407.4596               468.6593
 Red. masses --      1.1811                 2.7977                 3.1610
 Frc consts  --      0.0760                 0.2737                 0.4091
 IR Inten    --    109.3886                 7.7871                 5.8996

                     10                     11                     12
                      A                      A                      A
 Frequencies --    492.6786               550.5078               754.8677
 Red. masses --      3.9209                 2.9154                 2.0742
 Frc consts  --      0.5607                 0.5206                 0.6964
 IR Inten    --      7.7860                 2.5061                 0.8629

                     13                     14                     15
                      A                      A                      A
 Frequencies --    779.6854               802.2641               824.7078
 Red. masses --      2.0096                 1.9226                 2.2570
 Frc consts  --      0.7198                 0.7291                 0.9044
 IR Inten    --      5.4700                 2.4532                15.4100

                     16                     17                     18
                      A                      A                      A
 Frequencies --    885.6713               924.8941               946.0740
 Red. masses --      2.0391                 1.8843                 2.2241
 Frc consts  --      0.9424                 0.9497                 1.1729
 IR Inten    --     18.5433                 9.9988                 5.5765

                     19                     20                     21
                      A                      A                      A
 Frequencies --    951.5910               999.7590              1033.0322
 Red. masses --      2.5213                 1.4720                 1.5737
 Frc consts  --      1.3451                 0.8669                 0.9895
 IR Inten    --      4.7267                 4.9921                12.3074

                     22                     23                     24
                      A                      A                      A
 Frequencies --   1053.0423              1062.0241              1082.3923
 Red. masses --      1.8934                 1.2153                 1.4518
 Frc consts  --      1.2370                 0.8076                 1.0021
 IR Inten    --     14.1833                 1.9937                 4.7627

                     25                     26                     27
                      A                      A                      A
 Frequencies --   1096.4153              1119.0439              1135.5783
 Red. masses --      1.6938                 3.6423                 2.3632
 Frc consts  --      1.1997                 2.6873                 1.7955
 IR Inten    --      1.0602                52.4335                58.0439

                     28                     29                     30
                      A                      A                      A
 Frequencies --   1190.6122              1211.3687              1220.1064
 Red. masses --      1.5766                 1.6791                 1.4704
 Frc consts  --      1.3167                 1.4517                 1.2897
 IR Inten    --     14.1989                10.3684                 9.9623

                     31                     32                     33
                      A                      A                      A
 Frequencies --   1240.2281              1272.4201              1291.6044
 Red. masses --      1.2725                 1.4628                 1.4748
 Frc consts  --      1.1532                 1.3954                 1.4496
 IR Inten    --     10.9765                 5.8989                 4.1186

                     34                     35                     36
                      A                      A                      A
 Frequencies --   1310.7047              1344.5783              1375.3752
 Red. masses --      1.6450                 2.1957                 1.5786
 Frc consts  --      1.6651                 2.3388                 1.7594
 IR Inten    --      2.4994                 1.0678                 4.1224

                     37                     38                     39
                      A                      A                      A
 Frequencies --   1426.6086              1433.5467              1461.2873
 Red. masses --      1.1898                 1.2463                 1.0981
 Frc consts  --      1.4267                 1.5090                 1.3816
 IR Inten    --      8.4623                62.5715                 8.2270

                     40                     41                     42
                      A                      A                      A
 Frequencies --   1492.3162              1831.0187              2855.4823
 Red. masses --      1.2089                10.0278                 1.0820
 Frc consts  --      1.5863                19.8081                 5.1978
 IR Inten    --      4.0142               177.2771               109.0732

                     43                     44                     45
                      A                      A                      A
 Frequencies --   3011.3724              3032.3988              3055.1425
 Red. masses --      1.0835                 1.0589                 1.0866
 Frc consts  --      5.7891                 5.7370                 5.9758
 IR Inten    --     31.3195                10.1969                50.1165

                     46                     47                     48
                      A                      A                      A
 Frequencies --   3095.3592              3103.9290              3172.0768
 Red. masses --      1.1027                 1.0580                 1.0895
 Frc consts  --      6.2249                 6.0054                 6.4588
 IR Inten    --     20.2171                22.5139                16.3548

                     49                     50                     51
                      A                      A                      A
 Frequencies --   3181.9975              3201.5718              3803.6927
 Red. masses --      1.0988                 1.1096                 1.0657
 Frc consts  --      6.5552                 6.7013                 9.0845
 IR Inten    --      3.0050                14.3344                12.2392

 - Thermochemistry -
 -------------------
 Temperature   298.150 Kelvin.  Pressure   1.00000 Atm.
 Atom     1 has atomic number  8 and mass  15.99491

 Molecular mass:   126.06808 amu.
 Principal axes and moments of inertia in atomic units:
                           1         2         3
     Eigenvalues --   671.236441587.133712030.52191
           X            0.99938   0.03395   0.00942
           Y           -0.03388   0.99940  -0.00738
           Z           -0.00967   0.00705   0.99993
 This molecule is an asymmetric top.
 Rotational symmetry number  1.
 Warning -- assumption of classical behavior for rotation
           may cause significant error
 Rotational temperatures (Kelvin)      0.12904     0.05457     0.04266
 Rotational constants (GHZ):           2.68868     1.13711     0.88881
 Zero-point vibrational energy     414460.0 (Joules/Mol)
                                   99.05833 (Kcal/Mol)
 Warning -- explicit consideration of  11 degrees of freedom as
           vibrations may cause significant error
 Vibrational temperatures:     57.75   114.79   178.11   250.08   394.21
          (Kelvin)            410.28   475.49   586.24   674.30   708.85
                              792.06  1086.08  1121.79  1154.28  1186.57
                             1274.28  1330.71  1361.19  1369.13  1438.43
                             1486.30  1515.09  1528.01  1557.32  1577.50
                             1610.05  1633.84  1713.02  1742.89  1755.46
                             1784.41  1830.73  1858.33  1885.81  1934.55
                             1978.86  2052.57  2062.55  2102.46  2147.11
                             2634.42  4108.40  4332.69  4362.94  4395.66
                             4453.53  4465.86  4563.91  4578.18  4606.34
                             5472.66

 Zero-point correction=                           0.157859 (Hartree/Particle)
 Thermal correction to Energy=                    0.166748
 Thermal correction to Enthalpy=                  0.167692
 Thermal correction to Gibbs Free Energy=         0.123192
 Sum of electronic and zero-point Energies=           -422.997284
 Sum of electronic and thermal Energies=              -422.988395
 Sum of electronic and thermal Enthalpies=            -422.987451
 Sum of electronic and thermal Free Energies=         -423.031951

                     E (Thermal)             CV                S
                      KCal/Mol        Cal/Mol-Kelvin    Cal/Mol-Kelvin
 Total                  104.636             32.764             93.658
 Electronic               0.000              0.000              0.000
 Translational            0.889              2.981             40.409
 Rotational               0.889              2.981             29.160
 Vibrational            102.859             26.803             24.089
 Vibration     1          0.594              1.981              5.252
 Vibration     2          0.600              1.963              3.896
 Vibration     3          0.610              1.929              3.040
 Vibration     4          0.627              1.875              2.394
 Vibration     5          0.676              1.721              1.571
 Vibration     6          0.683              1.701              1.503
 Vibration     7          0.713              1.615              1.258
 Vibration     8          0.772              1.454              0.936
 Vibration     9          0.826              1.320              0.741
 Vibration    10          0.848              1.266              0.677
 Vibration    11          0.906              1.139              0.543

 Normal termination of Gaussian 09 at Mon Jan 27 23:47:23 2020.
