 Gaussian 09, Revision D.01,
 Gaussian 09:  ES64L-G09RevD.01 24-Apr-2013

 -----------------------------
 # b3lyp 6-31G(2df,p) opt Freq
 -----------------------------

 -----
 titel
 -----
 Symbolic Z-matrix:
 Charge =  0 Multiplicity = 1

 SCF Done:  E(RB3LYP) =  -423.100077165     A.U. after   14 cycles
 Optimization completed.
    -- Stationary point found.
 Normal termination of Gaussian 09 at Tue Jan 28 01:54:05 2020.

 ----------------------------------------------------------------------
 #N Geom=AllCheck Guess=TCheck SCRF=Check GenChk RB3LYP/6-31G(2df,p) Fr
 eq
 ----------------------------------------------------------------------

 Structure from the checkpoint file:  "/scratch/puck/g09_12021b2e-aa78-4b52-8a7a-a6ce99f32418/Gau-122201.chk"
 -----
 titel
 -----
 Charge =  0 Multiplicity = 1

                         Standard orientation:
 ---------------------------------------------------------------------
 Center     Atomic      Atomic             Coordinates (Angstroms)
 Number     Number       Type             X           Y           Z
 ---------------------------------------------------------------------
      1          6           0        2.532338    0.702487    0.295740
      2          6           0        1.671118   -0.531588    0.257298
      3          8           0        1.139938   -0.916128   -1.051012
      4          6           0        0.252167   -0.517262   -0.043179
      5          6           0       -1.010762   -1.216259    0.476945
      6          6           0       -1.793569   -0.602124   -0.706507
      7          6           0       -0.898826    0.516764   -0.094170
      8          6           0       -0.905982    1.991209   -0.340501
      9          8           0       -1.280013    0.013164    1.258198
     10          1           0        2.640017    1.056539    1.326556
     11          1           0        3.532802    0.484478   -0.091934
     12          1           0        2.097645    1.503835   -0.306013
     13          1           0        2.053481   -1.383664    0.821455
     14          1           0       -1.138505   -2.174107    0.978557
     15          1           0       -1.558785   -0.950464   -1.715209
     16          1           0       -2.861896   -0.473048   -0.525092
     17          1           0       -1.918663    2.393027   -0.241594
     18          1           0       -0.257470    2.505363    0.374631
     19          1           0       -0.546941    2.202398   -1.352588
 ---------------------------------------------------------------------

 SCF Done:  E(RB3LYP) =  -423.100077165     A.U. after    1 cycles

 The electronic state is 1-A.
 Alpha  occ. eigenvalues --  -19.15028 -19.13409 -10.25232 -10.24497 -10.24387
 Alpha  occ. eigenvalues --  -10.23982 -10.19136 -10.18828 -10.18641  -1.07786
 Alpha  occ. eigenvalues --   -1.04807  -0.78397  -0.75195  -0.74371  -0.66088
 Alpha  occ. eigenvalues --   -0.62045  -0.60731  -0.52935  -0.48962  -0.47821
 Alpha  occ. eigenvalues --   -0.46726  -0.44182  -0.42667  -0.42026  -0.41073
 Alpha  occ. eigenvalues --   -0.40008  -0.37841  -0.37184  -0.33419  -0.32928
 Alpha  occ. eigenvalues --   -0.32205  -0.29279  -0.26110  -0.24234
 Alpha virt. eigenvalues --    0.08347   0.08757   0.10586   0.11424   0.12720
 Alpha virt. eigenvalues --    0.13314   0.13802   0.14588   0.15244   0.16032
 Alpha virt. eigenvalues --    0.16701   0.17400   0.17838   0.18132   0.19981

 Mulliken charges:
               1
     1  C   -0.418677
     2  C   -0.071058
     3  O   -0.313056
     4  C    0.482662
     5  C   -0.055620
     6  C   -0.266087
     7  C    0.296536
     8  C   -0.520251
     9  O   -0.345166
    10  H    0.130089
    11  H    0.130426
    12  H    0.127270
    13  H    0.098833
    14  H    0.099403
    15  H    0.113697
    16  H    0.103887
    17  H    0.134597
    18  H    0.136530
    19  H    0.135989
 Sum of Mulliken charges =   0.00000

 Dipole moment (field-independent basis, Debye):
    X=              0.3820    Y=              0.5743    Z=             -0.0978  Tot=              0.6966
 Quadrupole moment (field-independent basis, Debye-Ang):
   XX=            -50.9869   YY=            -50.0817   ZZ=            -57.0992
   XY=              1.3775   XZ=              5.1177   YZ=             -3.0120

  Exact polarizability:  87.978   1.787  75.842   3.823  -1.868  64.996
 Approx polarizability: 115.561  -0.119 107.702   0.449   1.109 109.957

                      1                      2                      3
                      A                      A                      A
 Frequencies --    139.2317               142.0487               176.4960
 Red. masses --      2.7326                 2.9355                 1.3454
 Frc consts  --      0.0312                 0.0349                 0.0247
 IR Inten    --      0.9908                 2.1454                 0.9252

                      4                      5                      6
                      A                      A                      A
 Frequencies --    206.4171               224.8814               281.2478
 Red. masses --      1.0659                 2.3056                 2.8069
 Frc consts  --      0.0268                 0.0687                 0.1308
 IR Inten    --      0.1631                 3.9040                 1.1136

                      7                      8                      9
                      A                      A                      A
 Frequencies --    318.3307               427.9296               454.3265
 Red. masses --      2.6788                 3.1430                 3.6866
 Frc consts  --      0.1599                 0.3391                 0.4483
 IR Inten    --      3.4470                 0.1827                10.3242

                     10                     11                     12
                      A                      A                      A
 Frequencies --    500.6025               589.3097               651.8590
 Red. masses --      3.3305                 3.1266                 3.7995
 Frc consts  --      0.4918                 0.6398                 0.9512
 IR Inten    --      0.2958                 6.9917                 3.3437

                     13                     14                     15
                      A                      A                      A
 Frequencies --    674.0842               746.4240               794.5534
 Red. masses --      3.8114                 4.3996                 3.6579
 Frc consts  --      1.0204                 1.4442                 1.3606
 IR Inten    --      9.0387                18.2223                22.4959

                     16                     17                     18
                      A                      A                      A
 Frequencies --    833.0740               872.4079               920.3422
 Red. masses --      2.8790                 2.5366                 2.2928
 Frc consts  --      1.1772                 1.1375                 1.1442
 IR Inten    --      4.7161                11.4775                 3.0133

                     19                     20                     21
                      A                      A                      A
 Frequencies --    951.1107               995.0502              1016.1160
 Red. masses --      1.9909                 2.7075                 1.2831
 Frc consts  --      1.0611                 1.5795                 0.7805
 IR Inten    --      7.0494                22.2178                 3.3277

                     22                     23                     24
                      A                      A                      A
 Frequencies --   1027.1659              1052.9017              1088.3669
 Red. masses --      1.7877                 2.1459                 1.9428
 Frc consts  --      1.1113                 1.4017                 1.3559
 IR Inten    --     26.9990                24.7300                19.1417

                     25                     26                     27
                      A                      A                      A
 Frequencies --   1104.2444              1130.4435              1153.4320
 Red. masses --      1.9326                 2.1287                 1.5969
 Frc consts  --      1.3884                 1.6027                 1.2518
 IR Inten    --      8.2544                 4.7567                 9.9325

                     28                     29                     30
                      A                      A                      A
 Frequencies --   1172.5096              1207.5880              1224.0034
 Red. masses --      1.8180                 1.7074                 1.5983
 Frc consts  --      1.4726                 1.4670                 1.4108
 IR Inten    --     31.3919                 5.4026                 3.4259

                     31                     32                     33
                      A                      A                      A
 Frequencies --   1229.6426              1325.8845              1369.5287
 Red. masses --      1.7559                 1.9857                 1.4380
 Frc consts  --      1.5642                 2.0567                 1.5891
 IR Inten    --      4.8164                13.8169                11.4504

                     34                     35                     36
                      A                      A                      A
 Frequencies --   1408.0736              1414.6350              1473.7275
 Red. masses --      1.3063                 1.5827                 1.1507
 Frc consts  --      1.5260                 1.8662                 1.4725
 IR Inten    --      0.7947                21.0383                 4.2373

                     37                     38                     39
                      A                      A                      A
 Frequencies --   1477.5821              1481.3708              1488.5656
 Red. masses --      1.0594                 1.1322                 1.0719
 Frc consts  --      1.3627                 1.4639                 1.3993
 IR Inten    --      3.1933                 5.4595                 8.9568

                     40                     41                     42
                      A                      A                      A
 Frequencies --   1495.1876              1571.8038              3039.5306
 Red. masses --      1.0496                 5.3385                 1.0360
 Frc consts  --      1.3825                 7.7708                 5.6394
 IR Inten    --      0.5026                20.9434                14.7294

                     43                     44                     45
                      A                      A                      A
 Frequencies --   3041.9399              3065.7152              3097.9729
 Red. masses --      1.0347                 1.0544                 1.0875
 Frc consts  --      5.6412                 5.8388                 6.1496
 IR Inten    --     15.1024                27.3626                14.7026

                     46                     47                     48
                      A                      A                      A
 Frequencies --   3103.1614              3115.7335              3118.7507
 Red. masses --      1.1007                 1.1013                 1.1015
 Frc consts  --      6.2450                 6.2992                 6.3123
 IR Inten    --     15.6636                11.8874                13.7587

                     49                     50                     51
                      A                      A                      A
 Frequencies --   3132.4356              3137.6700              3147.7918
 Red. masses --      1.1004                 1.0944                 1.1115
 Frc consts  --      6.3614                 6.3480                 6.4888
 IR Inten    --     22.4076                41.4747                21.2003

 - Thermochemistry -
 -------------------
 Temperature   298.150 Kelvin.  Pressure   1.00000 Atm.
 Atom     1 has atomic number  6 and mass  12.00000

 Molecular mass:   126.06808 amu.
 Principal axes and moments of inertia in atomic units:
                           1         2         3
     Eigenvalues --   680.399221202.767281430.27809
           X            0.99885   0.02813   0.03871
           Y           -0.02632   0.99857  -0.04644
           Z           -0.03996   0.04537   0.99817
 This molecule is an asymmetric top.
 Rotational symmetry number  1.
 Warning -- assumption of classical behavior for rotation
           may cause significant error
 Rotational temperatures (Kelvin)      0.12730     0.07201     0.06056
 Rotational constants (GHZ):           2.65247     1.50049     1.26181
 Zero-point vibrational energy     411594.3 (Joules/Mol)
                                   98.37341 (Kcal/Mol)
 Warning -- explicit consideration of  11 degrees of freedom as
           vibrations may cause significant error
 Vibrational temperatures:    200.32   204.38   253.94   296.99   323.55
          (Kelvin)            404.65   458.01   615.69   653.67   720.25
                              847.88   937.88   969.86  1073.94  1143.18
                             1198.61  1255.20  1324.17  1368.43  1431.65
                             1461.96  1477.86  1514.89  1565.92  1588.76
                             1626.45  1659.53  1686.98  1737.45  1761.07
                             1769.18  1907.65  1970.44  2025.90  2035.34
                             2120.36  2125.91  2131.36  2141.71  2151.24
                             2261.47  4373.20  4376.67  4410.87  4457.29
                             4464.75  4482.84  4487.18  4506.87  4514.40
                             4528.96

 Zero-point correction=                           0.156768 (Hartree/Particle)
 Thermal correction to Energy=                    0.165379
 Thermal correction to Enthalpy=                  0.166323
 Thermal correction to Gibbs Free Energy=         0.123957
 Sum of electronic and zero-point Energies=           -422.943309
 Sum of electronic and thermal Energies=              -422.934698
 Sum of electronic and thermal Enthalpies=            -422.933754
 Sum of electronic and thermal Free Energies=         -422.976120

                     E (Thermal)             CV                S
                      KCal/Mol        Cal/Mol-Kelvin    Cal/Mol-Kelvin
 Total                  103.777             33.138             89.167
 Electronic               0.000              0.000              0.000
 Translational            0.889              2.981             40.409
 Rotational               0.889              2.981             28.550
 Vibrational            101.999             27.177             20.209
 Vibration     1          0.615              1.914              2.814
 Vibration     2          0.616              1.911              2.776
 Vibration     3          0.628              1.871              2.365
 Vibration     4          0.641              1.831              2.075
 Vibration     5          0.650              1.803              1.919
 Vibration     6          0.681              1.708              1.526
 Vibration     7          0.705              1.639              1.319
 Vibration     8          0.789              1.409              0.865
 Vibration     9          0.813              1.351              0.783
 Vibration    10          0.856              1.249              0.657
 Vibration    11          0.947              1.055              0.468

 Normal termination of Gaussian 09 at Tue Jan 28 02:42:46 2020.
