 Gaussian 09, Revision D.01,
 Gaussian 09:  ES64L-G09RevD.01 24-Apr-2013

 -----------------------------
 # b3lyp 6-31G(2df,p) opt Freq
 -----------------------------

 -----
 titel
 -----
 Symbolic Z-matrix:
 Charge =  0 Multiplicity = 1

 SCF Done:  E(RB3LYP) =  -423.173726254     A.U. after   14 cycles
 Optimization completed.
    -- Stationary point found.
 Normal termination of Gaussian 09 at Tue Jan 28 01:56:05 2020.

 ----------------------------------------------------------------------
 #N Geom=AllCheck Guess=TCheck SCRF=Check GenChk RB3LYP/6-31G(2df,p) Fr
 eq
 ----------------------------------------------------------------------

 Structure from the checkpoint file:  "/scratch/puck/g09_ce23f570-c246-4aa3-9704-bf8b63283a08/Gau-64329.chk"
 -----
 titel
 -----
 Charge =  0 Multiplicity = 1

                         Standard orientation:
 ---------------------------------------------------------------------
 Center     Atomic      Atomic             Coordinates (Angstroms)
 Number     Number       Type             X           Y           Z
 ---------------------------------------------------------------------
      1          6           0       -2.660073    0.475756   -0.629119
      2          6           0       -1.814356   -0.647547   -0.069743
      3          6           0       -1.153190   -0.504687    1.286485
      4          6           0       -0.327680   -0.497775    0.031556
      5          6           0        0.808037   -1.480026   -0.304050
      6          6           0        1.732498   -0.245131   -0.287683
      7          8           0        2.883179   -0.069021   -0.007656
      8          6           0        0.532285    0.718259   -0.406796
      9          8           0        0.530232    1.917714    0.307447
     10          1           0       -2.717274    0.426559   -1.722375
     11          1           0       -3.683050    0.429639   -0.240330
     12          1           0       -2.241509    1.450148   -0.358759
     13          1           0       -2.165621   -1.648658   -0.311344
     14          1           0       -1.274132    0.443777    1.802545
     15          1           0       -1.101148   -1.372703    1.936006
     16          1           0        1.053759   -2.257233    0.423470
     17          1           0        0.725637   -1.931861   -1.298778
     18          1           0        0.334392    0.965606   -1.458092
     19          1           0        1.056534    1.792086    1.105433
 ---------------------------------------------------------------------

 SCF Done:  E(RB3LYP) =  -423.173726254     A.U. after    1 cycles

 The electronic state is 1-A.
 Alpha  occ. eigenvalues --  -19.15477 -19.14500 -10.27389 -10.24309 -10.20551
 Alpha  occ. eigenvalues --  -10.19920 -10.19847 -10.19107 -10.18076  -1.05688
 Alpha  occ. eigenvalues --   -1.03372  -0.88408  -0.80579  -0.71075  -0.67610
 Alpha  occ. eigenvalues --   -0.59058  -0.57022  -0.55133  -0.49210  -0.48652
 Alpha  occ. eigenvalues --   -0.46898  -0.45423  -0.42732  -0.42455  -0.40479
 Alpha  occ. eigenvalues --   -0.39613  -0.38720  -0.37133  -0.35965  -0.35145
 Alpha  occ. eigenvalues --   -0.29497  -0.28451  -0.27601  -0.24244
 Alpha virt. eigenvalues --   -0.02751   0.07751   0.08920   0.11065   0.11304
 Alpha virt. eigenvalues --    0.12922   0.13402   0.14932   0.15921   0.16190
 Alpha virt. eigenvalues --    0.17268   0.17721   0.19403   0.21494   0.24723

 Mulliken charges:
               1
     1  C   -0.417502
     2  C   -0.071645
     3  C   -0.344691
     4  C    0.291168
     5  C   -0.427248
     6  C    0.340251
     7  O   -0.295535
     8  C   -0.014386
     9  O   -0.421616
    10  H    0.116252
    11  H    0.119519
    12  H    0.137997
    13  H    0.085844
    14  H    0.118767
    15  H    0.112862
    16  H    0.132045
    17  H    0.129192
    18  H    0.115151
    19  H    0.293576
 Sum of Mulliken charges =   0.00000

 Dipole moment (field-independent basis, Debye):
    X=             -2.1545    Y=             -1.3849    Z=              0.1086  Tot=              2.5635
 Quadrupole moment (field-independent basis, Debye-Ang):
   XX=            -62.1941   YY=            -54.0338   ZZ=            -49.3102
   XY=              0.3454   XZ=              0.9366   YZ=              1.4301

  Exact polarizability:  90.074  -0.588  72.941   1.482   0.327  67.700
 Approx polarizability: 124.897   2.272 106.797   3.652   2.138 104.122

                      1                      2                      3
                      A                      A                      A
 Frequencies --     57.2709               121.2041               142.4728
 Red. masses --      4.6091                 2.6548                 2.0394
 Frc consts  --      0.0089                 0.0230                 0.0244
 IR Inten    --      7.8404                 7.9525                21.6851

                      4                      5                      6
                      A                      A                      A
 Frequencies --    181.2848               214.5496               250.8758
 Red. masses --      2.4771                 1.3876                 2.0025
 Frc consts  --      0.0480                 0.0376                 0.0743
 IR Inten    --      0.6552                 1.4931                 1.3500

                      7                      8                      9
                      A                      A                      A
 Frequencies --    274.3042               360.3288               405.8094
 Red. masses --      2.0393                 3.2483                 2.2051
 Frc consts  --      0.0904                 0.2485                 0.2140
 IR Inten    --     59.1775                 4.7068                 0.2084

                     10                     11                     12
                      A                      A                      A
 Frequencies --    438.4402               512.7289               545.9437
 Red. masses --      2.6534                 2.9953                 4.0328
 Frc consts  --      0.3005                 0.4639                 0.7082
 IR Inten    --      3.2579                 1.4392                 3.3609

                     13                     14                     15
                      A                      A                      A
 Frequencies --    632.3729               748.2368               757.1136
 Red. masses --      3.1408                 2.5670                 3.1223
 Frc consts  --      0.7400                 0.8467                 1.0545
 IR Inten    --      1.8127                 1.8571                14.1159

                     16                     17                     18
                      A                      A                      A
 Frequencies --    792.4987               871.7852               895.7367
 Red. masses --      2.3642                 1.4158                 2.7151
 Frc consts  --      0.8748                 0.6340                 1.2835
 IR Inten    --      2.7429                 5.2564                11.8905

                     19                     20                     21
                      A                      A                      A
 Frequencies --    919.3397               971.7614               986.8496
 Red. masses --      2.2026                 1.2519                 3.5004
 Frc consts  --      1.0968                 0.6965                 2.0085
 IR Inten    --      5.6085                 2.6082                10.3675

                     22                     23                     24
                      A                      A                      A
 Frequencies --   1049.7784              1066.0365              1080.3456
 Red. masses --      1.2635                 2.6961                 1.6373
 Frc consts  --      0.8204                 1.8052                 1.1259
 IR Inten    --      4.2095                72.2061                 7.8373

                     25                     26                     27
                      A                      A                      A
 Frequencies --   1116.3854              1125.9916              1149.7758
 Red. masses --      2.0469                 1.7515                 2.0767
 Frc consts  --      1.5031                 1.3083                 1.6175
 IR Inten    --     26.5144                 8.7548                50.5301

                     28                     29                     30
                      A                      A                      A
 Frequencies --   1166.4918              1185.1949              1212.0824
 Red. masses --      1.5684                 1.6007                 1.5979
 Frc consts  --      1.2574                 1.3248                 1.3831
 IR Inten    --      0.3760                 1.9724                 0.7562

                     31                     32                     33
                      A                      A                      A
 Frequencies --   1237.4057              1300.9019              1327.7901
 Red. masses --      1.8530                 1.6900                 1.7803
 Frc consts  --      1.6717                 1.6851                 1.8493
 IR Inten    --      9.0547                 9.3051                 2.0275

                     34                     35                     36
                      A                      A                      A
 Frequencies --   1405.9410              1416.5913              1428.7483
 Red. masses --      1.3398                 1.2374                 1.4535
 Frc consts  --      1.5604                 1.4630                 1.7482
 IR Inten    --     13.9193                17.4231                11.1615

                     37                     38                     39
                      A                      A                      A
 Frequencies --   1452.1374              1486.4735              1497.4468
 Red. masses --      1.1455                 1.4277                 1.0487
 Frc consts  --      1.4232                 1.8587                 1.3855
 IR Inten    --     14.9751                 2.7645                 2.4982

                     40                     41                     42
                      A                      A                      A
 Frequencies --   1506.3613              1883.7661              3028.5585
 Red. masses --      1.2370                12.7530                 1.0476
 Frc consts  --      1.6538                26.6635                 5.6612
 IR Inten    --      3.3244               287.0067                16.9331

                     43                     44                     45
                      A                      A                      A
 Frequencies --   3030.3627              3048.8805              3089.5172
 Red. masses --      1.0685                 1.0618                 1.1010
 Frc consts  --      5.7812                 5.8154                 6.1916
 IR Inten    --     27.4660                14.9947                23.8091

                     46                     47                     48
                      A                      A                      A
 Frequencies --   3104.2353              3111.2574              3117.3435
 Red. masses --      1.0979                 1.1033                 1.0536
 Frc consts  --      6.2334                 6.2921                 6.0324
 IR Inten    --      6.7293                 8.2245                12.7276

                     49                     50                     51
                      A                      A                      A
 Frequencies --   3130.1125              3205.3777              3799.6169
 Red. masses --      1.0902                 1.1164                 1.0661
 Frc consts  --      6.2933                 6.7583                 9.0682
 IR Inten    --     25.9442                 7.4704                29.5568

 - Thermochemistry -
 -------------------
 Temperature   298.150 Kelvin.  Pressure   1.00000 Atm.
 Atom     1 has atomic number  6 and mass  12.00000

 Molecular mass:   126.06808 amu.
 Principal axes and moments of inertia in atomic units:
                           1         2         3
     Eigenvalues --   614.419491457.478361744.53960
           X            0.99989  -0.01211   0.00888
           Y            0.01218   0.99990  -0.00737
           Z           -0.00879   0.00748   0.99993
 This molecule is an asymmetric top.
 Rotational symmetry number  1.
 Warning -- assumption of classical behavior for rotation
           may cause significant error
 Rotational temperatures (Kelvin)      0.14097     0.05943     0.04965
 Rotational constants (GHZ):           2.93731     1.23826     1.03451
 Zero-point vibrational energy     411765.5 (Joules/Mol)
                                   98.41432 (Kcal/Mol)
 Warning -- explicit consideration of  12 degrees of freedom as
           vibrations may cause significant error
 Vibrational temperatures:     82.40   174.39   204.99   260.83   308.69
          (Kelvin)            360.95   394.66   518.43   583.87   630.82
                              737.70   785.49   909.84  1076.54  1089.32
                             1140.23  1254.30  1288.76  1322.72  1398.15
                             1419.85  1510.40  1533.79  1554.37  1606.23
                             1620.05  1654.27  1678.32  1705.23  1743.91
                             1780.35  1871.71  1910.39  2022.83  2038.16
                             2055.65  2089.30  2138.70  2154.49  2167.32
                             2710.32  4357.41  4360.01  4386.65  4445.12
                             4466.30  4476.40  4485.16  4503.53  4611.82
                             5466.79

 Zero-point correction=                           0.156833 (Hartree/Particle)
 Thermal correction to Energy=                    0.166177
 Thermal correction to Enthalpy=                  0.167121
 Thermal correction to Gibbs Free Energy=         0.122566
 Sum of electronic and zero-point Energies=           -423.016893
 Sum of electronic and thermal Energies=              -423.007549
 Sum of electronic and thermal Enthalpies=            -423.006605
 Sum of electronic and thermal Free Energies=         -423.051160

                     E (Thermal)             CV                S
                      KCal/Mol        Cal/Mol-Kelvin    Cal/Mol-Kelvin
 Total                  104.278             34.562             93.775
 Electronic               0.000              0.000              0.000
 Translational            0.889              2.981             40.409
 Rotational               0.889              2.981             28.837
 Vibrational            102.500             28.600             24.529
 Vibration     1          0.596              1.975              4.549
 Vibration     2          0.609              1.932              3.081
 Vibration     3          0.616              1.911              2.770
 Vibration     4          0.630              1.865              2.315
 Vibration     5          0.644              1.819              2.005
 Vibration     6          0.663              1.761              1.724
 Vibration     7          0.677              1.721              1.569
 Vibration     8          0.735              1.554              1.121
 Vibration     9          0.771              1.458              0.942
 Vibration    10          0.799              1.386              0.832
 Vibration    11          0.868              1.222              0.627
 Vibration    12          0.901              1.149              0.553

 Optimization completed.
    -- Stationary point found.
 Normal termination of Gaussian 09 at Tue Jan 28 02:41:27 2020.
 Normal termination of Gaussian 09 at Tue Jan 28 01:49:09 2020.
