 Gaussian 09, Revision D.01,
 Gaussian 09:  ES64L-G09RevD.01 24-Apr-2013

 -----------------------------
 # b3lyp 6-31G(2df,p) opt Freq
 -----------------------------

 -----
 titel
 -----
 Symbolic Z-matrix:
 Charge =  0 Multiplicity = 1

 SCF Done:  E(RB3LYP) =  -423.125682264     A.U. after   14 cycles
 Optimization completed.
    -- Stationary point found.
 Normal termination of Gaussian 09 at Tue Jan 28 12:06:36 2020.

 ----------------------------------------------------------------------
 #N Geom=AllCheck Guess=TCheck SCRF=Check GenChk RB3LYP/6-31G(2df,p) Fr
 eq
 ----------------------------------------------------------------------

 Structure from the checkpoint file:  "/scratch/puck/g09_b8276aac-d53c-4805-9755-8519ea951d54/Gau-6245.chk"
 -----
 titel
 -----
 Charge =  0 Multiplicity = 1

                         Standard orientation:
 ---------------------------------------------------------------------
 Center     Atomic      Atomic             Coordinates (Angstroms)
 Number     Number       Type             X           Y           Z
 ---------------------------------------------------------------------
      1          8           0        2.888069   -0.155974   -0.729117
      2          6           0        1.748997   -0.692506   -0.068855
      3          6           0        0.549657    0.133924   -0.503863
      4          6           0        0.525547    1.570793    0.084987
      5          6           0       -0.478786    1.094535    1.167437
      6          6           0       -0.755029   -0.184608    0.326661
      7          8           0       -0.750426   -1.362655    1.118935
      8          6           0       -1.961592   -0.105029   -0.489014
      9          6           0       -2.949003   -0.075092   -1.175455
     10          1           0        3.662986   -0.635963   -0.423036
     11          1           0        1.589622   -1.748146   -0.336673
     12          1           0        1.863860   -0.653160    1.024355
     13          1           0        0.440165    0.060584   -1.588280
     14          1           0        1.486405    1.954480    0.430891
     15          1           0        0.085362    2.294823   -0.603563
     16          1           0        0.010903    0.806084    2.100472
     17          1           0       -1.338263    1.726473    1.394539
     18          1           0       -1.155781   -2.070132    0.606132
     19          1           0       -3.825151   -0.038115   -1.774767
 ---------------------------------------------------------------------

 SCF Done:  E(RB3LYP) =  -423.125682264     A.U. after    1 cycles

 The electronic state is 1-A.
 Alpha  occ. eigenvalues --  -19.14595 -19.13198 -10.25849 -10.22345 -10.18493
 Alpha  occ. eigenvalues --  -10.18380 -10.18190 -10.18087 -10.17724  -1.03010
 Alpha  occ. eigenvalues --   -1.01223  -0.84555  -0.75294  -0.71163  -0.66179
 Alpha  occ. eigenvalues --   -0.62533  -0.56197  -0.53988  -0.51511  -0.50831
 Alpha  occ. eigenvalues --   -0.48063  -0.45312  -0.42614  -0.40263  -0.39350
 Alpha  occ. eigenvalues --   -0.37082  -0.34921  -0.33119  -0.31597  -0.31007
 Alpha  occ. eigenvalues --   -0.28553  -0.27567  -0.26404  -0.25539
 Alpha virt. eigenvalues --    0.02909   0.04679   0.07930   0.08658   0.11234
 Alpha virt. eigenvalues --    0.12140   0.12412   0.14598   0.16103   0.16503
 Alpha virt. eigenvalues --    0.17268   0.19375   0.21178   0.21696   0.22516

 Mulliken charges:
               1
     1  O   -0.426162
     2  C   -0.086039
     3  C   -0.053231
     4  C   -0.217210
     5  C   -0.264357
     6  C    0.222429
     7  O   -0.465554
     8  C    0.282141
     9  C   -0.468099
    10  H    0.285908
    11  H    0.083118
    12  H    0.093394
    13  H    0.082093
    14  H    0.111974
    15  H    0.108951
    16  H    0.117764
    17  H    0.108721
    18  H    0.284062
    19  H    0.200096
 Sum of Mulliken charges =   0.00000

 Dipole moment (field-independent basis, Debye):
    X=             -0.0334    Y=             -0.9872    Z=             -0.1648  Tot=              1.0014
 Quadrupole moment (field-independent basis, Debye-Ang):
   XX=            -46.4392   YY=            -50.3553   ZZ=            -55.3154
   XY=             -2.5607   XZ=              5.9748   YZ=              2.0220

  Exact polarizability:  95.139  -0.275  68.697  11.047   0.454  69.056
 Approx polarizability: 130.384  -0.130  98.351  22.193  -2.369 108.762

                      1                      2                      3
                      A                      A                      A
 Frequencies --     78.1849               103.8886               136.1685
 Red. masses --      4.0112                 2.7390                 4.0361
 Frc consts  --      0.0144                 0.0174                 0.0441
 IR Inten    --      0.1149                 2.0789                 4.4486

                      4                      5                      6
                      A                      A                      A
 Frequencies --    188.6939               202.5255               254.9917
 Red. masses --      2.6164                 3.6387                 1.1280
 Frc consts  --      0.0549                 0.0879                 0.0432
 IR Inten    --      2.0890                 1.3614                78.2553

                      7                      8                      9
                      A                      A                      A
 Frequencies --    276.0850               291.2009               369.8050
 Red. masses --      1.2302                 2.9874                 2.6969
 Frc consts  --      0.0552                 0.1493                 0.2173
 IR Inten    --    101.8461                14.0426                11.3960

                     10                     11                     12
                      A                      A                      A
 Frequencies --    408.8864               450.6162               516.8110
 Red. masses --      4.0105                 3.9428                 4.4386
 Frc consts  --      0.3951                 0.4717                 0.6985
 IR Inten    --      1.6788                 2.3315                16.9664

                     13                     14                     15
                      A                      A                      A
 Frequencies --    585.2004               613.5779               651.5420
 Red. masses --      4.4603                 1.2304                 5.4041
 Frc consts  --      0.9000                 0.2729                 1.3516
 IR Inten    --      7.5009                52.1644                 2.3404

                     16                     17                     18
                      A                      A                      A
 Frequencies --    667.4046               731.1979               842.4684
 Red. masses --      1.2422                 1.3551                 2.6341
 Frc consts  --      0.3260                 0.4269                 1.1015
 IR Inten    --     33.4254                 0.7514                16.5234

                     19                     20                     21
                      A                      A                      A
 Frequencies --    892.8908               912.9999               952.5657
 Red. masses --      1.7528                 2.1450                 2.1983
 Frc consts  --      0.8233                 1.0534                 1.1753
 IR Inten    --      4.3826                 5.0940                 5.6677

                     22                     23                     24
                      A                      A                      A
 Frequencies --    955.9192              1011.4427              1055.2617
 Red. masses --      2.0147                 3.9941                 1.8755
 Frc consts  --      1.0847                 2.4074                 1.2305
 IR Inten    --      2.0058                 7.8397                32.2259

                     25                     26                     27
                      A                      A                      A
 Frequencies --   1070.0948              1102.7532              1161.6591
 Red. masses --      4.5375                 2.8269                 1.6815
 Frc consts  --      3.0613                 2.0254                 1.3369
 IR Inten    --     82.1865                70.6402                 8.8382

                     28                     29                     30
                      A                      A                      A
 Frequencies --   1168.6732              1199.8611              1241.1668
 Red. masses --      1.5614                 1.5744                 1.2239
 Frc consts  --      1.2565                 1.3354                 1.1108
 IR Inten    --     20.1189                13.4238                 1.0379

                     31                     32                     33
                      A                      A                      A
 Frequencies --   1251.2180              1266.5653              1274.7259
 Red. masses --      1.3704                 1.5912                 1.2890
 Frc consts  --      1.2641                 1.5039                 1.2340
 IR Inten    --     11.5103                 5.7771                14.1639

                     34                     35                     36
                      A                      A                      A
 Frequencies --   1284.5069              1352.9249              1370.7229
 Red. masses --      1.3831                 1.3819                 1.6234
 Frc consts  --      1.3445                 1.4903                 1.7972
 IR Inten    --     43.4799                16.0548                49.4944

                     37                     38                     39
                      A                      A                      A
 Frequencies --   1458.3370              1478.1553              1495.5057
 Red. masses --      1.4644                 1.0867                 1.1097
 Frc consts  --      1.8349                 1.3989                 1.4623
 IR Inten    --     11.2493                 2.0182                 3.2391

                     40                     41                     42
                      A                      A                      A
 Frequencies --   1516.4704              2227.4273              2980.3616
 Red. masses --      1.0923                 5.9464                 1.0565
 Frc consts  --      1.4800                17.3824                 5.5292
 IR Inten    --      1.7709                 1.4309                50.7099

                     43                     44                     45
                      A                      A                      A
 Frequencies --   3011.2391              3074.9154              3076.5961
 Red. masses --      1.1038                 1.0583                 1.0661
 Frc consts  --      5.8970                 5.8956                 5.9453
 IR Inten    --     38.7348                17.4760                35.9616

                     46                     47                     48
                      A                      A                      A
 Frequencies --   3085.8947              3125.3971              3140.2571
 Red. masses --      1.0810                 1.1078                 1.1080
 Frc consts  --      6.0650                 6.3758                 6.4374
 IR Inten    --     20.5221                 7.9299                29.0525

                     49                     50                     51
                      A                      A                      A
 Frequencies --   3499.3135              3811.8459              3829.7347
 Red. masses --      1.1614                 1.0663                 1.0664
 Frc consts  --      8.3788                 9.1284                 9.2151
 IR Inten    --     70.7555                27.2259                20.6043

 - Thermochemistry -
 -------------------
 Temperature   298.150 Kelvin.  Pressure   1.00000 Atm.
 Atom     1 has atomic number  8 and mass  15.99491

 Molecular mass:   126.06808 amu.
 Principal axes and moments of inertia in atomic units:
                           1         2         3
     Eigenvalues --   659.954071674.644561742.94933
           X            0.99986  -0.01187   0.01165
           Y            0.01030   0.99185   0.12700
           Z           -0.01306  -0.12686   0.99183
 This molecule is an asymmetric top.
 Rotational symmetry number  1.
 Warning -- assumption of classical behavior for rotation
           may cause significant error
 Rotational temperatures (Kelvin)      0.13124     0.05172     0.04969
 Rotational constants (GHZ):           2.73465     1.07769     1.03545
 Zero-point vibrational energy     410957.0 (Joules/Mol)
                                   98.22109 (Kcal/Mol)
 Warning -- explicit consideration of  14 degrees of freedom as
           vibrations may cause significant error
 Vibrational temperatures:    112.49   149.47   195.92   271.49   291.39
          (Kelvin)            366.88   397.22   418.97   532.07   588.30
                              648.34   743.57   841.97   882.80   937.42
                              960.25  1052.03  1212.12  1284.67  1313.60
                             1370.53  1375.35  1455.24  1518.28  1539.63
                             1586.61  1671.37  1681.46  1726.33  1785.76
                             1800.22  1822.30  1834.04  1848.12  1946.55
                             1972.16  2098.22  2126.73  2151.70  2181.86
                             3204.77  4288.07  4332.50  4424.11  4426.53
                             4439.91  4496.74  4518.12  5034.73  5484.39
                             5510.13

 Zero-point correction=                           0.156525 (Hartree/Particle)
 Thermal correction to Energy=                    0.166363
 Thermal correction to Enthalpy=                  0.167307
 Thermal correction to Gibbs Free Energy=         0.121993
 Sum of electronic and zero-point Energies=           -422.969157
 Sum of electronic and thermal Energies=              -422.959319
 Sum of electronic and thermal Enthalpies=            -422.958375
 Sum of electronic and thermal Free Energies=         -423.003689

                     E (Thermal)             CV                S
                      KCal/Mol        Cal/Mol-Kelvin    Cal/Mol-Kelvin
 Total                  104.394             36.619             95.372
 Electronic               0.000              0.000              0.000
 Translational            0.889              2.981             40.409
 Rotational               0.889              2.981             29.045
 Vibrational            102.617             30.658             25.918
 Vibration     1          0.599              1.964              3.936
 Vibration     2          0.605              1.946              3.380
 Vibration     3          0.614              1.917              2.857
 Vibration     4          0.633              1.855              2.241
 Vibration     5          0.639              1.836              2.110
 Vibration     6          0.665              1.754              1.696
 Vibration     7          0.678              1.718              1.558
 Vibration     8          0.687              1.690              1.467
 Vibration     9          0.742              1.534              1.081
 Vibration    10          0.773              1.451              0.931
 Vibration    11          0.809              1.360              0.794
 Vibration    12          0.872              1.213              0.617
 Vibration    13          0.942              1.063              0.476
 Vibration    14          0.973              1.003              0.427

 Optimization completed.
    -- Stationary point found.
 Normal termination of Gaussian 09 at Tue Jan 28 13:48:53 2020.
