 Gaussian 09, Revision D.01,
 Gaussian 09:  ES64L-G09RevD.01 24-Apr-2013

 -----------------------------
 # b3lyp 6-31G(2df,p) opt Freq
 -----------------------------

 -----
 titel
 -----
 Symbolic Z-matrix:
 Charge =  0 Multiplicity = 1

 SCF Done:  E(RB3LYP) =  -423.178158832     A.U. after   14 cycles
 Optimization completed.
    -- Stationary point found.
 Normal termination of Gaussian 09 at Tue Jan 28 03:15:05 2020.

 ----------------------------------------------------------------------
 #N Geom=AllCheck Guess=TCheck SCRF=Check GenChk RB3LYP/6-31G(2df,p) Fr
 eq
 ----------------------------------------------------------------------

 Structure from the checkpoint file:  "/scratch/puck/g09_39d2a465-b2be-4ef2-a49a-b4397344a7c7/Gau-111072.chk"
 -----
 titel
 -----
 Charge =  0 Multiplicity = 1

                         Standard orientation:
 ---------------------------------------------------------------------
 Center     Atomic      Atomic             Coordinates (Angstroms)
 Number     Number       Type             X           Y           Z
 ---------------------------------------------------------------------
      1          6           0        2.251619   -1.563397    0.133954
      2          6           0        1.027466   -0.730614   -0.122834
      3          6           0       -0.217039   -1.215201   -0.127193
      4          6           0       -1.454427   -0.381271   -0.375315
      5          8           0       -2.604669   -0.960493    0.231762
      6          6           0       -1.266305    1.080840    0.069775
      7          6           0        0.097630    1.640783   -0.311585
      8          8           0        1.099455    1.628521    0.714478
      9          6           0        1.239273    0.721966   -0.398939
     10          1           0        2.802628   -1.185671    1.004147
     11          1           0        1.994981   -2.610009    0.316715
     12          1           0        2.944599   -1.524701   -0.716210
     13          1           0       -0.401292   -2.274160    0.042623
     14          1           0       -1.687477   -0.404094   -1.448983
     15          1           0       -2.442249   -0.994993    1.181509
     16          1           0       -2.071577    1.695441   -0.342551
     17          1           0       -1.349987    1.123237    1.162145
     18          1           0        0.107976    2.543799   -0.920882
     19          1           0        2.074805    0.968298   -1.055609
 ---------------------------------------------------------------------

 SCF Done:  E(RB3LYP) =  -423.178158832     A.U. after    1 cycles

 The electronic state is 1-A.
 Alpha  occ. eigenvalues --  -19.14724 -19.13683 -10.23822 -10.23729 -10.23670
 Alpha  occ. eigenvalues --  -10.19606 -10.18711 -10.18580 -10.18276  -1.06564
 Alpha  occ. eigenvalues --   -1.01958  -0.81942  -0.76841  -0.70059  -0.67466
 Alpha  occ. eigenvalues --   -0.62809  -0.60113  -0.52383  -0.51763  -0.48258
 Alpha  occ. eigenvalues --   -0.46943  -0.45001  -0.42674  -0.41620  -0.40245
 Alpha  occ. eigenvalues --   -0.39859  -0.37965  -0.36696  -0.34711  -0.32750
 Alpha  occ. eigenvalues --   -0.30622  -0.27514  -0.26770  -0.23925
 Alpha virt. eigenvalues --   -0.00154   0.08198   0.09730   0.10497   0.11298
 Alpha virt. eigenvalues --    0.12493   0.12942   0.14464   0.15073   0.17420
 Alpha virt. eigenvalues --    0.17868   0.19973   0.20934   0.21507   0.23698

 Mulliken charges:
               1
     1  C   -0.491232
     2  C    0.319206
     3  C   -0.202190
     4  C    0.081701
     5  O   -0.431471
     6  C   -0.256518
     7  C    0.024970
     8  O   -0.257847
     9  C   -0.048467
    10  H    0.139145
    11  H    0.124292
    12  H    0.125816
    13  H    0.092899
    14  H    0.102892
    15  H    0.277119
    16  H    0.107613
    17  H    0.109033
    18  H    0.093769
    19  H    0.089271
 Sum of Mulliken charges =   0.00000

 Dipole moment (field-independent basis, Debye):
    X=              0.6412    Y=             -0.4012    Z=             -0.6196  Tot=              0.9778
 Quadrupole moment (field-independent basis, Debye-Ang):
   XX=            -56.5844   YY=            -53.4677   ZZ=            -51.5287
   XY=             -4.6659   XZ=             -3.9137   YZ=             -4.2477

  Exact polarizability:  94.042  -1.415  78.780  -0.973  -2.978  58.631
 Approx polarizability: 137.082   6.315 109.842   1.292  -0.641  95.628

                      1                      2                      3
                      A                      A                      A
 Frequencies --     84.4663               151.6987               194.0933
 Red. masses --      3.2692                 2.0906                 1.4729
 Frc consts  --      0.0137                 0.0283                 0.0327
 IR Inten    --      3.7838                 0.4611                 1.0999

                      4                      5                      6
                      A                      A                      A
 Frequencies --    214.8263               291.2517               320.4864
 Red. masses --      2.3372                 2.4536                 1.2307
 Frc consts  --      0.0635                 0.1226                 0.0745
 IR Inten    --      4.9138                 0.5442                79.2536

                      7                      8                      9
                      A                      A                      A
 Frequencies --    378.3160               410.6260               445.6547
 Red. masses --      4.0727                 3.9866                 3.3956
 Frc consts  --      0.3434                 0.3960                 0.3973
 IR Inten    --     12.4671                 8.8145                 4.7408

                     10                     11                     12
                      A                      A                      A
 Frequencies --    469.1140               530.8547               626.8748
 Red. masses --      3.4526                 3.9300                 3.1989
 Frc consts  --      0.4477                 0.6525                 0.7407
 IR Inten    --      4.8582                 3.2922                 2.7403

                     13                     14                     15
                      A                      A                      A
 Frequencies --    645.9951               785.8671               825.2691
 Red. masses --      3.4022                 3.5742                 2.3900
 Frc consts  --      0.8365                 1.3006                 0.9590
 IR Inten    --      4.6369                 4.2268                21.1373

                     16                     17                     18
                      A                      A                      A
 Frequencies --    865.0247               902.8341               947.5376
 Red. masses --      1.7441                 2.5883                 3.5692
 Frc consts  --      0.7689                 1.2430                 1.8880
 IR Inten    --      3.5399                15.4334                17.3990

                     19                     20                     21
                      A                      A                      A
 Frequencies --    959.9567              1003.8744              1032.1063
 Red. masses --      2.5456                 1.7512                 1.8616
 Frc consts  --      1.3821                 1.0398                 1.1684
 IR Inten    --     15.5543                 8.6813                45.2079

                     22                     23                     24
                      A                      A                      A
 Frequencies --   1065.5746              1068.5094              1089.3351
 Red. masses --      3.0908                 1.6800                 1.5485
 Frc consts  --      2.0677                 1.1301                 1.0827
 IR Inten    --     58.6054                15.0793                 9.0678

                     25                     26                     27
                      A                      A                      A
 Frequencies --   1130.0152              1142.8911              1179.0722
 Red. masses --      1.7100                 1.5954                 1.8131
 Frc consts  --      1.2865                 1.2278                 1.4851
 IR Inten    --      1.3131                 2.7632                12.2529

                     28                     29                     30
                      A                      A                      A
 Frequencies --   1215.3493              1262.6567              1283.1321
 Red. masses --      1.4640                 1.3670                 1.4061
 Frc consts  --      1.2741                 1.2840                 1.3639
 IR Inten    --      1.9011                 9.9244                 3.4390

                     31                     32                     33
                      A                      A                      A
 Frequencies --   1306.8875              1345.6431              1359.2128
 Red. masses --      1.2970                 1.4733                 1.4807
 Frc consts  --      1.3052                 1.5718                 1.6117
 IR Inten    --      1.3235                 7.6082                 0.3005

                     34                     35                     36
                      A                      A                      A
 Frequencies --   1389.1151              1411.5728              1421.6427
 Red. masses --      1.5157                 1.2618                 1.2478
 Frc consts  --      1.7232                 1.4813                 1.4858
 IR Inten    --      4.3674                 4.8027                78.1531

                     37                     38                     39
                      A                      A                      A
 Frequencies --   1463.8939              1473.4053              1478.1978
 Red. masses --      2.4889                 1.1963                 1.0728
 Frc consts  --      3.1425                 1.5301                 1.3812
 IR Inten    --      5.8111                 3.7381                 9.0742

                     40                     41                     42
                      A                      A                      A
 Frequencies --   1490.9109              1728.4546              3009.5694
 Red. masses --      1.0921                 7.6717                 1.0827
 Frc consts  --      1.4303                13.5039                 5.7777
 IR Inten    --     11.7739                 3.3854                20.6564

                     43                     44                     45
                      A                      A                      A
 Frequencies --   3019.1263              3039.9697              3068.2193
 Red. masses --      1.0378                 1.0621                 1.0985
 Frc consts  --      5.5737                 5.7830                 6.0927
 IR Inten    --     25.4878                21.9951                15.0415

                     46                     47                     48
                      A                      A                      A
 Frequencies --   3091.6207              3097.9684              3115.0114
 Red. masses --      1.0982                 1.0874                 1.0997
 Frc consts  --      6.1848                 6.1488                 6.2868
 IR Inten    --      7.8836                30.6645                12.0781

                     49                     50                     51
                      A                      A                      A
 Frequencies --   3117.0290              3151.3304              3792.5605
 Red. masses --      1.0924                 1.0898                 1.0659
 Frc consts  --      6.2535                 6.3767                 9.0333
 IR Inten    --     60.9123                12.7519                12.8160

 - Thermochemistry -
 -------------------
 Temperature   298.150 Kelvin.  Pressure   1.00000 Atm.
 Atom     1 has atomic number  6 and mass  12.00000

 Molecular mass:   126.06808 amu.
 Principal axes and moments of inertia in atomic units:
                           1         2         3
     Eigenvalues --   769.047191176.468221781.72805
           X            0.99463  -0.10326  -0.00701
           Y            0.10307   0.99438  -0.02412
           Z            0.00946   0.02327   0.99968
 This molecule is an asymmetric top.
 Rotational symmetry number  1.
 Warning -- assumption of classical behavior for rotation
           may cause significant error
 Rotational temperatures (Kelvin)      0.11262     0.07362     0.04861
 Rotational constants (GHZ):           2.34672     1.53403     1.01292
 Zero-point vibrational energy     418062.6 (Joules/Mol)
                                   99.91935 (Kcal/Mol)
 Warning -- explicit consideration of  11 degrees of freedom as
           vibrations may cause significant error
 Vibrational temperatures:    121.53   218.26   279.26   309.09   419.05
          (Kelvin)            461.11   544.31   590.80   641.20   674.95
                              763.78   901.93   929.44  1130.69  1187.38
                             1244.58  1298.98  1363.29  1381.16  1444.35
                             1484.97  1533.12  1537.34  1567.31  1625.84
                             1644.36  1696.42  1748.61  1816.68  1846.14
                             1880.32  1936.08  1955.60  1998.62  2030.94
                             2045.42  2106.21  2119.90  2126.79  2145.09
                             2486.86  4330.09  4343.84  4373.83  4414.48
                             4448.15  4457.28  4481.80  4484.70  4534.06
                             5456.64

 Zero-point correction=                           0.159232 (Hartree/Particle)
 Thermal correction to Energy=                    0.167719
 Thermal correction to Enthalpy=                  0.168663
 Thermal correction to Gibbs Free Energy=         0.126230
 Sum of electronic and zero-point Energies=           -423.018927
 Sum of electronic and thermal Energies=              -423.010440
 Sum of electronic and thermal Enthalpies=            -423.009496
 Sum of electronic and thermal Free Energies=         -423.051929

                     E (Thermal)             CV                S
                      KCal/Mol        Cal/Mol-Kelvin    Cal/Mol-Kelvin
 Total                  105.245             32.676             89.309
 Electronic               0.000              0.000              0.000
 Translational            0.889              2.981             40.409
 Rotational               0.889              2.981             28.868
 Vibrational            103.468             26.714             20.032
 Vibration     1          0.601              1.960              3.784
 Vibration     2          0.619              1.901              2.651
 Vibration     3          0.635              1.848              2.188
 Vibration     4          0.645              1.818              2.002
 Vibration     5          0.687              1.690              1.467
 Vibration     6          0.706              1.634              1.308
 Vibration     7          0.749              1.516              1.046
 Vibration     8          0.775              1.447              0.924
 Vibration     9          0.805              1.370              0.809
 Vibration    10          0.826              1.319              0.740
 Vibration    11          0.886              1.182              0.585

 Normal termination of Gaussian 09 at Tue Jan 28 03:57:23 2020.
