 Gaussian 09, Revision D.01,
 Gaussian 09:  ES64L-G09RevD.01 24-Apr-2013

 -----------------------------
 # b3lyp 6-31G(2df,p) opt Freq
 -----------------------------

 -----
 titel
 -----
 Symbolic Z-matrix:
 Charge =  0 Multiplicity = 1

 SCF Done:  E(RB3LYP) =  -423.206111169     A.U. after   14 cycles
 Optimization completed.
    -- Stationary point found.
 Normal termination of Gaussian 09 at Mon Jan 27 17:13:07 2020.

 ----------------------------------------------------------------------
 #N Geom=AllCheck Guess=TCheck SCRF=Check GenChk RB3LYP/6-31G(2df,p) Fr
 eq
 ----------------------------------------------------------------------

 Structure from the checkpoint file:  "/scratch/puck/g09_dd839512-c702-45db-90c8-d8474b4dc512/Gau-59082.chk"
 -----
 titel
 -----
 Charge =  0 Multiplicity = 1

                         Standard orientation:
 ---------------------------------------------------------------------
 Center     Atomic      Atomic             Coordinates (Angstroms)
 Number     Number       Type             X           Y           Z
 ---------------------------------------------------------------------
      1          8           0        1.881492   -1.263466    0.169553
      2          6           0        0.673603   -0.570918    0.153169
      3          6           0        0.033599    0.030482    1.466944
      4          6           0       -0.544894    1.175915    0.569130
      5          6           0       -1.829349    0.717226   -0.164495
      6          6           0       -1.813497   -0.813220   -0.381204
      7          6           0       -0.393089   -1.364797   -0.631691
      8          6           0        0.667594    0.880889   -0.318184
      9          8           0        1.482830    1.536677   -0.908443
     10          1           0        2.586279   -0.619279    0.026386
     11          1           0       -0.673717   -0.599564    2.007663
     12          1           0        0.805300    0.396159    2.147463
     13          1           0       -0.623673    2.182276    0.981605
     14          1           0       -2.712320    1.001675    0.417387
     15          1           0       -1.900379    1.250333   -1.119485
     16          1           0       -2.225765   -1.295907    0.510245
     17          1           0       -2.479125   -1.089077   -1.204292
     18          1           0       -0.326308   -2.413621   -0.323408
     19          1           0       -0.128671   -1.332154   -1.694453
 ---------------------------------------------------------------------

 SCF Done:  E(RB3LYP) =  -423.206111169     A.U. after    1 cycles

 The electronic state is 1-A.
 Alpha  occ. eigenvalues --  -19.14661 -19.14065 -10.26407 -10.24421 -10.20215
 Alpha  occ. eigenvalues --  -10.19788 -10.19574 -10.19280 -10.19147  -1.05368
 Alpha  occ. eigenvalues --   -1.02812  -0.87389  -0.76999  -0.73758  -0.64483
 Alpha  occ. eigenvalues --   -0.60557  -0.60539  -0.53643  -0.50220  -0.47160
 Alpha  occ. eigenvalues --   -0.46586  -0.45327  -0.42178  -0.40749  -0.39878
 Alpha  occ. eigenvalues --   -0.39112  -0.37762  -0.37607  -0.35316  -0.33668
 Alpha  occ. eigenvalues --   -0.32957  -0.31946  -0.27082  -0.23684
 Alpha virt. eigenvalues --   -0.01607   0.07257   0.09209   0.10775   0.12466
 Alpha virt. eigenvalues --    0.13315   0.14589   0.15822   0.16472   0.16916
 Alpha virt. eigenvalues --    0.17801   0.18017   0.19883   0.21641   0.21871

 Mulliken charges:
               1
     1  O   -0.486168
     2  C    0.315005
     3  C   -0.306407
     4  C   -0.140696
     5  C   -0.215374
     6  C   -0.215675
     7  C   -0.243577
     8  C    0.362337
     9  O   -0.342525
    10  H    0.291931
    11  H    0.110121
    12  H    0.112196
    13  H    0.091419
    14  H    0.106176
    15  H    0.115483
    16  H    0.111199
    17  H    0.104466
    18  H    0.114960
    19  H    0.115129
 Sum of Mulliken charges =   0.00000

 Dipole moment (field-independent basis, Debye):
    X=             -2.1257    Y=             -0.3205    Z=              1.0983  Tot=              2.4140
 Quadrupole moment (field-independent basis, Debye-Ang):
   XX=            -52.3725   YY=            -57.6388   ZZ=            -53.0834
   XY=             -0.3847   XZ=              2.1230   YZ=              3.0433

  Exact polarizability:  81.148   1.171  74.426  -1.675   0.102  67.783
 Approx polarizability: 116.099   4.634 110.943  -7.688  -5.616 105.515

                      1                      2                      3
                      A                      A                      A
 Frequencies --    120.5887               177.6384               213.0433
 Red. masses --      5.1965                 2.0673                 2.4451
 Frc consts  --      0.0445                 0.0384                 0.0654
 IR Inten    --      8.3307                28.6695                 5.5467

                      4                      5                      6
                      A                      A                      A
 Frequencies --    233.9361               309.4274               355.8146
 Red. masses --      1.6638                 2.1172                 3.0626
 Frc consts  --      0.0536                 0.1194                 0.2284
 IR Inten    --      5.1718                43.5100                 1.7685

                      7                      8                      9
                      A                      A                      A
 Frequencies --    407.9386               423.5401               485.6322
 Red. masses --      3.0484                 3.3560                 3.5594
 Frc consts  --      0.2989                 0.3547                 0.4946
 IR Inten    --      0.3739                 0.7258                 0.4053

                     10                     11                     12
                      A                      A                      A
 Frequencies --    543.5814               675.7893               708.5995
 Red. masses --      2.7805                 3.8388                 2.1326
 Frc consts  --      0.4841                 1.0329                 0.6309
 IR Inten    --      1.9630                 3.4078                 2.7876

                     13                     14                     15
                      A                      A                      A
 Frequencies --    787.0167               799.4045               829.3602
 Red. masses --      4.3319                 2.7085                 1.9877
 Frc consts  --      1.5809                 1.0198                 0.8055
 IR Inten    --      9.0865                 7.0391                 4.0166

                     16                     17                     18
                      A                      A                      A
 Frequencies --    862.6281               893.3927               926.4561
 Red. masses --      2.1456                 1.9059                 2.3018
 Frc consts  --      0.9407                 0.8962                 1.1640
 IR Inten    --     11.5562                 6.5787                 5.5963

                     19                     20                     21
                      A                      A                      A
 Frequencies --    942.8787               964.0999              1038.5341
 Red. masses --      2.3008                 2.3840                 2.0563
 Frc consts  --      1.2051                 1.3055                 1.3067
 IR Inten    --     18.1998                16.6168                 4.0124

                     22                     23                     24
                      A                      A                      A
 Frequencies --   1051.1313              1077.4299              1107.4901
 Red. masses --      1.5521                 1.8168                 1.6618
 Frc consts  --      1.0104                 1.2426                 1.2009
 IR Inten    --      7.4229                 4.0881                 3.3766

                     25                     26                     27
                      A                      A                      A
 Frequencies --   1134.2112              1167.7447              1179.6506
 Red. masses --      1.7408                 1.3537                 1.9185
 Frc consts  --      1.3194                 1.0876                 1.5730
 IR Inten    --      2.5665                82.4769                11.5526

                     28                     29                     30
                      A                      A                      A
 Frequencies --   1200.8795              1224.6760              1272.8923
 Red. masses --      2.0093                 1.4803                 1.6088
 Frc consts  --      1.7073                 1.3081                 1.5358
 IR Inten    --     31.7215                 6.6285                 3.7816

                     31                     32                     33
                      A                      A                      A
 Frequencies --   1288.4927              1300.9747              1357.9071
 Red. masses --      1.4314                 1.5898                 1.5237
 Frc consts  --      1.4002                 1.5854                 1.6554
 IR Inten    --      8.2381                 2.2597                13.0820

                     34                     35                     36
                      A                      A                      A
 Frequencies --   1368.9526              1374.2804              1381.2893
 Red. masses --      1.4236                 1.4908                 1.5373
 Frc consts  --      1.5718                 1.6589                 1.7282
 IR Inten    --      7.6781                14.1691                31.1929

                     37                     38                     39
                      A                      A                      A
 Frequencies --   1481.6924              1492.6596              1497.6192
 Red. masses --      1.1005                 1.0827                 1.0781
 Frc consts  --      1.4235                 1.4213                 1.4247
 IR Inten    --      2.9618                 1.2264                 2.4990

                     40                     41                     42
                      A                      A                      A
 Frequencies --   1517.7903              1869.8581              3036.5670
 Red. masses --      1.0936                12.3109                 1.0599
 Frc consts  --      1.4843                25.3606                 5.7580
 IR Inten    --      1.0591               264.7173                30.0794

                     43                     44                     45
                      A                      A                      A
 Frequencies --   3039.8183              3050.3988              3072.4386
 Red. masses --      1.0594                 1.0703                 1.0951
 Frc consts  --      5.7677                 5.8675                 6.0910
 IR Inten    --     27.4107                13.7082                29.6520

                     46                     47                     48
                      A                      A                      A
 Frequencies --   3077.2486              3078.4336              3096.1223
 Red. masses --      1.0605                 1.1002                 1.1042
 Frc consts  --      5.9167                 6.1432                 6.2361
 IR Inten    --     12.7758                 5.7354                46.2673

                     49                     50                     51
                      A                      A                      A
 Frequencies --   3111.2594              3139.8974              3775.6693
 Red. masses --      1.0885                 1.1095                 1.0660
 Frc consts  --      6.2081                 6.4447                 8.9532
 IR Inten    --     20.8487                15.9952                31.6217

 - Thermochemistry -
 -------------------
 Temperature   298.150 Kelvin.  Pressure   1.00000 Atm.
 Atom     1 has atomic number  8 and mass  15.99491

 Molecular mass:   126.06808 amu.
 Principal axes and moments of inertia in atomic units:
                           1         2         3
     Eigenvalues --   770.864021018.119621308.67001
           X            0.99976  -0.01137   0.01880
           Y            0.01034   0.99849   0.05402
           Z           -0.01938  -0.05381   0.99836
 This molecule is an asymmetric top.
 Rotational symmetry number  1.
 Warning -- assumption of classical behavior for rotation
           may cause significant error
 Rotational temperatures (Kelvin)      0.11236     0.08507     0.06618
 Rotational constants (GHZ):           2.34119     1.77262     1.37907
 Zero-point vibrational energy     421831.8 (Joules/Mol)
                                  100.82023 (Kcal/Mol)
 Warning -- explicit consideration of  10 degrees of freedom as
           vibrations may cause significant error
 Vibrational temperatures:    173.50   255.58   306.52   336.58   445.20
          (Kelvin)            511.94   586.93   609.38   698.72   782.09
                              972.31  1019.52  1132.34  1150.16  1193.26
                             1241.13  1285.39  1332.96  1356.59  1387.12
                             1494.22  1512.34  1550.18  1593.43  1631.87
                             1680.12  1697.25  1727.80  1762.03  1831.41
                             1853.85  1871.81  1953.72  1969.62  1977.28
                             1987.36  2131.82  2147.60  2154.74  2183.76
                             2690.31  4368.94  4373.62  4388.84  4420.55
                             4427.47  4429.17  4454.62  4476.40  4517.61
                             5432.34

 Zero-point correction=                           0.160667 (Hartree/Particle)
 Thermal correction to Energy=                    0.168635
 Thermal correction to Enthalpy=                  0.169580
 Thermal correction to Gibbs Free Energy=         0.128557
 Sum of electronic and zero-point Energies=           -423.045444
 Sum of electronic and thermal Energies=              -423.037476
 Sum of electronic and thermal Enthalpies=            -423.036532
 Sum of electronic and thermal Free Energies=         -423.077554

                     E (Thermal)             CV                S
                      KCal/Mol        Cal/Mol-Kelvin    Cal/Mol-Kelvin
 Total                  105.820             31.487             86.338
 Electronic               0.000              0.000              0.000
 Translational            0.889              2.981             40.409
 Rotational               0.889              2.981             28.420
 Vibrational            104.043             25.525             17.510
 Vibration     1          0.609              1.932              3.091
 Vibration     2          0.628              1.870              2.353
 Vibration     3          0.644              1.821              2.017
 Vibration     4          0.654              1.789              1.849
 Vibration     5          0.699              1.656              1.365
 Vibration     6          0.731              1.563              1.140
 Vibration     7          0.773              1.453              0.934
 Vibration     8          0.786              1.419              0.880
 Vibration     9          0.842              1.282              0.695
 Vibration    10          0.899              1.154              0.558

 Optimization completed.
    -- Stationary point found.
 Normal termination of Gaussian 09 at Mon Jan 27 17:56:52 2020.
