 Gaussian 09, Revision D.01,
 Gaussian 09:  ES64L-G09RevD.01 24-Apr-2013

 -----------------------------
 # b3lyp 6-31G(2df,p) opt Freq
 -----------------------------

 -----
 titel
 -----
 Symbolic Z-matrix:
 Charge =  0 Multiplicity = 1

 SCF Done:  E(RB3LYP) =  -423.115152130     A.U. after   14 cycles
 Optimization completed.
    -- Stationary point found.
 Normal termination of Gaussian 09 at Tue Jan 28 09:01:00 2020.

 ----------------------------------------------------------------------
 #N Geom=AllCheck Guess=TCheck SCRF=Check GenChk RB3LYP/6-31G(2df,p) Fr
 eq
 ----------------------------------------------------------------------

 Structure from the checkpoint file:  "/scratch/puck/g09_8e1dc0e5-660b-4970-9d9f-d1609fdafa38/Gau-93709.chk"
 -----
 titel
 -----
 Charge =  0 Multiplicity = 1

                         Standard orientation:
 ---------------------------------------------------------------------
 Center     Atomic      Atomic             Coordinates (Angstroms)
 Number     Number       Type             X           Y           Z
 ---------------------------------------------------------------------
      1          6           0        0.042098    2.072958   -0.082709
      2          8           0        0.302249    0.940645    0.743058
      3          6           0        0.402719   -0.279364    0.067580
      4          6           0        1.663042   -0.409038   -0.763393
      5          8           0        2.815494   -0.201969    0.030697
      6          6           0       -0.102679   -1.450283    0.837113
      7          6           0       -0.873660   -0.980359   -0.399835
      8          6           0       -2.161594   -0.371715   -0.250941
      9          6           0       -3.255150    0.119245   -0.145145
     10          1           0       -0.860813    1.925663   -0.683829
     11          1           0       -0.110028    2.915849    0.594624
     12          1           0        0.886962    2.302551   -0.745102
     13          1           0        1.730640   -1.417127   -1.184898
     14          1           0        1.631364    0.294923   -1.610966
     15          1           0        2.601493    0.523121    0.630214
     16          1           0        0.435556   -2.388997    0.774615
     17          1           0       -0.564686   -1.235214    1.792804
     18          1           0       -0.763654   -1.594886   -1.289890
     19          1           0       -4.217429    0.556054   -0.043633
 ---------------------------------------------------------------------

 SCF Done:  E(RB3LYP) =  -423.115152130     A.U. after    1 cycles

 The electronic state is 1-A.
 Alpha  occ. eigenvalues --  -19.15957 -19.13317 -10.25225 -10.23327 -10.22946
 Alpha  occ. eigenvalues --  -10.22014 -10.19710 -10.18554 -10.17318  -1.05467
 Alpha  occ. eigenvalues --   -1.01306  -0.87210  -0.75167  -0.70454  -0.69510
 Alpha  occ. eigenvalues --   -0.63863  -0.57812  -0.53984  -0.52219  -0.50421
 Alpha  occ. eigenvalues --   -0.47859  -0.46027  -0.44790  -0.44249  -0.42173
 Alpha  occ. eigenvalues --   -0.39156  -0.37537  -0.34913  -0.33041  -0.30810
 Alpha  occ. eigenvalues --   -0.29059  -0.27115  -0.26124  -0.23894
 Alpha virt. eigenvalues --    0.04124   0.04499   0.08158   0.09912   0.10671
 Alpha virt. eigenvalues --    0.12602   0.13132   0.14337   0.14763   0.15123
 Alpha virt. eigenvalues --    0.16960   0.17364   0.18441   0.19967   0.21228

 Mulliken charges:
               1
     1  C   -0.264674
     2  O   -0.290209
     3  C    0.388663
     4  C   -0.112921
     5  O   -0.421807
     6  C   -0.334725
     7  C   -0.301079
     8  C    0.335416
     9  C   -0.444754
    10  H    0.135216
    11  H    0.132209
    12  H    0.113883
    13  H    0.106700
    14  H    0.091204
    15  H    0.290592
    16  H    0.126570
    17  H    0.138609
    18  H    0.115330
    19  H    0.195777
 Sum of Mulliken charges =   0.00000

 Dipole moment (field-independent basis, Debye):
    X=             -0.9596    Y=              0.7298    Z=             -0.6885  Tot=              1.3884
 Quadrupole moment (field-independent basis, Debye-Ang):
   XX=            -57.9783   YY=            -48.5211   ZZ=            -53.0677
   XY=             -0.2928   XZ=             -0.3267   YZ=              0.3787

  Exact polarizability:  99.707  -7.366  75.413  -0.119  -0.236  61.018
 Approx polarizability: 144.843 -17.853 107.318   1.278   1.415  94.109

                      1                      2                      3
                      A                      A                      A
 Frequencies --     82.3400               105.7775               131.9629
 Red. masses --      4.7203                 4.0923                 3.4216
 Frc consts  --      0.0189                 0.0270                 0.0351
 IR Inten    --      2.9071                 0.5380                 0.2056

                      4                      5                      6
                      A                      A                      A
 Frequencies --    139.0728               208.4221               240.1972
 Red. masses --      1.4277                 2.0308                 3.4458
 Frc consts  --      0.0163                 0.0520                 0.1171
 IR Inten    --      5.4020                 2.7317                 7.6809

                      7                      8                      9
                      A                      A                      A
 Frequencies --    272.6020               338.2936               347.8892
 Red. masses --      2.5611                 3.9619                 1.9432
 Frc consts  --      0.1121                 0.2671                 0.1386
 IR Inten    --      3.3285                 6.8067                15.6495

                     10                     11                     12
                      A                      A                      A
 Frequencies --    387.1374               419.8710               470.2531
 Red. masses --      1.6680                 2.8872                 3.3012
 Frc consts  --      0.1473                 0.2999                 0.4301
 IR Inten    --     46.7052                30.6033                 3.5765

                     13                     14                     15
                      A                      A                      A
 Frequencies --    534.2684               583.1502               650.8729
 Red. masses --      3.7428                 1.2143                 1.2657
 Frc consts  --      0.6295                 0.2433                 0.3159
 IR Inten    --      2.2211                44.9983                37.8952

                     16                     17                     18
                      A                      A                      A
 Frequencies --    692.4277               723.0521               806.6700
 Red. masses --      3.6168                 3.5138                 2.2426
 Frc consts  --      1.0217                 1.0824                 0.8598
 IR Inten    --     13.5736                14.6640                 5.1630

                     19                     20                     21
                      A                      A                      A
 Frequencies --    902.5065               917.7942               947.2914
 Red. masses --      2.3850                 1.4481                 3.5931
 Frc consts  --      1.1446                 0.7187                 1.8997
 IR Inten    --     14.7452                 0.8986                24.0330

                     22                     23                     24
                      A                      A                      A
 Frequencies --    996.5911              1072.7585              1074.2457
 Red. masses --      1.8931                 4.1494                 1.4579
 Frc consts  --      1.1078                 2.8135                 0.9913
 IR Inten    --      4.8034                22.1121                36.6040

                     25                     26                     27
                      A                      A                      A
 Frequencies --   1083.5289              1093.5286              1129.1671
 Red. masses --      2.8636                 2.9003                 1.5744
 Frc consts  --      1.9808                 2.0434                 1.1827
 IR Inten    --     66.5571                79.0728                11.6011

                     28                     29                     30
                      A                      A                      A
 Frequencies --   1180.9805              1197.7761              1212.6723
 Red. masses --      1.2745                 1.2919                 1.4158
 Frc consts  --      1.0473                 1.0921                 1.2267
 IR Inten    --      0.2481                16.1142                 1.2782

                     31                     32                     33
                      A                      A                      A
 Frequencies --   1261.8425              1319.9135              1356.2989
 Red. masses --      2.1607                 1.9397                 1.2778
 Frc consts  --      2.0270                 1.9911                 1.3849
 IR Inten    --     25.1800                55.5314                14.1046

                     34                     35                     36
                      A                      A                      A
 Frequencies --   1397.3895              1440.1691              1472.0148
 Red. masses --      1.6923                 1.3196                 1.2598
 Frc consts  --      1.9470                 1.6126                 1.6083
 IR Inten    --     13.6507                70.5919                 4.8843

                     37                     38                     39
                      A                      A                      A
 Frequencies --   1486.9248              1491.2229              1504.4107
 Red. masses --      1.3350                 1.0676                 1.0529
 Frc consts  --      1.7390                 1.3987                 1.4040
 IR Inten    --      7.7519                 3.1480                 3.7881

                     40                     41                     42
                      A                      A                      A
 Frequencies --   1515.2291              2234.2809              2970.8887
 Red. masses --      1.0837                 6.0340                 1.0707
 Frc consts  --      1.4660                17.7472                 5.5680
 IR Inten    --      1.6249                13.9301                44.4972

                     43                     44                     45
                      A                      A                      A
 Frequencies --   3013.6996              3072.8032              3087.0637
 Red. masses --      1.0386                 1.0906                 1.0968
 Frc consts  --      5.5575                 6.0669                 6.1586
 IR Inten    --     59.9792                25.2450                24.4357

                     46                     47                     48
                      A                      A                      A
 Frequencies --   3130.9066              3136.5173              3146.1228
 Red. masses --      1.1030                 1.0856                 1.0552
 Frc consts  --      6.3703                 6.2923                 6.1536
 IR Inten    --     17.9645                 7.0358                 6.1028

                     49                     50                     51
                      A                      A                      A
 Frequencies --   3243.2420              3503.8369              3788.1558
 Red. masses --      1.1178                 1.1599                 1.0655
 Frc consts  --      6.9274                 8.3898                 9.0085
 IR Inten    --      2.4367                80.6103                27.9272

 - Thermochemistry -
 -------------------
 Temperature   298.150 Kelvin.  Pressure   1.00000 Atm.
 Atom     1 has atomic number  6 and mass  12.00000

 Molecular mass:   126.06808 amu.
 Principal axes and moments of inertia in atomic units:
                           1         2         3
     Eigenvalues --   630.946621527.073441882.50252
           X            0.99994  -0.00812  -0.00752
           Y            0.00799   0.99981  -0.01799
           Z            0.00766   0.01793   0.99981
 This molecule is an asymmetric top.
 Rotational symmetry number  1.
 Warning -- assumption of classical behavior for rotation
           may cause significant error
 Rotational temperatures (Kelvin)      0.13728     0.05672     0.04601
 Rotational constants (GHZ):           2.86037     1.18183     0.95869
 Zero-point vibrational energy     409816.9 (Joules/Mol)
                                   97.94859 (Kcal/Mol)
 Warning -- explicit consideration of  14 degrees of freedom as
           vibrations may cause significant error
 Vibrational temperatures:    118.47   152.19   189.86   200.09   299.87
          (Kelvin)            345.59   392.21   486.73   500.53   557.00
                              604.10   676.59   768.69   839.02   936.46
                              996.25  1040.31  1160.62  1298.50  1320.50
                             1362.94  1433.87  1543.46  1545.60  1558.95
                             1573.34  1624.62  1699.17  1723.33  1744.76
                             1815.51  1899.06  1951.41  2010.53  2072.08
                             2117.90  2139.35  2145.53  2164.51  2180.07
                             3214.63  4274.44  4336.04  4421.07  4441.59
                             4504.67  4512.74  4526.56  4666.30  5041.23
                             5450.30

 Zero-point correction=                           0.156091 (Hartree/Particle)
 Thermal correction to Energy=                    0.166093
 Thermal correction to Enthalpy=                  0.167038
 Thermal correction to Gibbs Free Energy=         0.121373
 Sum of electronic and zero-point Energies=           -422.959061
 Sum of electronic and thermal Energies=              -422.949059
 Sum of electronic and thermal Enthalpies=            -422.948115
 Sum of electronic and thermal Free Energies=         -422.993779

                     E (Thermal)             CV                S
                      KCal/Mol        Cal/Mol-Kelvin    Cal/Mol-Kelvin
 Total                  104.225             36.763             96.109
 Electronic               0.000              0.000              0.000
 Translational            0.889              2.981             40.409
 Rotational               0.889              2.981             28.985
 Vibrational            102.448             30.802             26.715
 Vibration     1          0.600              1.961              3.834
 Vibration     2          0.605              1.945              3.345
 Vibration     3          0.612              1.921              2.917
 Vibration     4          0.615              1.914              2.817
 Vibration     5          0.642              1.828              2.057
 Vibration     6          0.657              1.779              1.801
 Vibration     7          0.676              1.724              1.580
 Vibration     8          0.719              1.599              1.220
 Vibration     9          0.726              1.580              1.176
 Vibration    10          0.756              1.498              1.011
 Vibration    11          0.783              1.427              0.892
 Vibration    12          0.827              1.316              0.737
 Vibration    13          0.889              1.174              0.578
 Vibration    14          0.940              1.068              0.480

 Normal termination of Gaussian 09 at Tue Jan 28 09:42:47 2020.
