 Gaussian 09, Revision D.01,
 Gaussian 09:  ES64L-G09RevD.01 24-Apr-2013

 -----------------------------
 # b3lyp 6-31G(2df,p) opt Freq
 -----------------------------

 -----
 titel
 -----
 Symbolic Z-matrix:
 Charge =  0 Multiplicity = 1

 SCF Done:  E(RB3LYP) =  -423.160042589     A.U. after   14 cycles
 Optimization completed.
    -- Stationary point found.
 Normal termination of Gaussian 09 at Mon Jan 27 23:07:36 2020.

 ----------------------------------------------------------------------
 #N Geom=AllCheck Guess=TCheck SCRF=Check GenChk RB3LYP/6-31G(2df,p) Fr
 eq
 ----------------------------------------------------------------------

 Structure from the checkpoint file:  "/scratch/puck/g09_970bcb93-9879-4968-a60e-044460c6cbed/Gau-81808.chk"
 -----
 titel
 -----
 Charge =  0 Multiplicity = 1

                         Standard orientation:
 ---------------------------------------------------------------------
 Center     Atomic      Atomic             Coordinates (Angstroms)
 Number     Number       Type             X           Y           Z
 ---------------------------------------------------------------------
      1          8           0       -2.548709   -0.128650   -0.486487
      2          6           0       -1.152699    0.034111   -0.618743
      3          6           0       -0.448533   -1.065376    0.224788
      4          6           0       -0.408374   -0.060420    1.407355
      5          6           0       -0.538717    1.094847    0.367882
      6          6           0        0.794551    1.590814   -0.115791
      7          6           0        1.852784    0.811865   -0.346865
      8          6           0        1.948880   -0.680061   -0.114627
      9          8           0        0.789246   -1.472977   -0.320062
     10          1           0       -2.977623    0.654010   -0.847065
     11          1           0       -0.833391    0.106266   -1.665715
     12          1           0       -1.038120   -1.975164    0.362518
     13          1           0       -1.315012   -0.159395    2.006570
     14          1           0        0.461780   -0.058406    2.065645
     15          1           0       -1.201334    1.922681    0.632580
     16          1           0        0.879925    2.655003   -0.319840
     17          1           0        2.775867    1.267178   -0.698789
     18          1           0        2.687079   -1.099047   -0.806446
     19          1           0        2.349186   -0.854792    0.898944
 ---------------------------------------------------------------------

 SCF Done:  E(RB3LYP) =  -423.160042589     A.U. after    1 cycles

 The electronic state is 1-A.
 Alpha  occ. eigenvalues --  -19.14059 -19.13621 -10.23164 -10.22669 -10.22503
 Alpha  occ. eigenvalues --  -10.18925 -10.18403 -10.18221 -10.18000  -1.03214
 Alpha  occ. eigenvalues --   -1.01907  -0.83680  -0.78451  -0.68546  -0.66141
 Alpha  occ. eigenvalues --   -0.65081  -0.54474  -0.53095  -0.51366  -0.49935
 Alpha  occ. eigenvalues --   -0.48043  -0.45107  -0.43156  -0.41398  -0.39802
 Alpha  occ. eigenvalues --   -0.39058  -0.36404  -0.35192  -0.34630  -0.30756
 Alpha  occ. eigenvalues --   -0.29190  -0.27458  -0.24251  -0.23532
 Alpha virt. eigenvalues --    0.01077   0.07448   0.08112   0.10735   0.12614
 Alpha virt. eigenvalues --    0.13693   0.15636   0.15902   0.16563   0.17992
 Alpha virt. eigenvalues --    0.18199   0.19683   0.20199   0.21294   0.23093

 Mulliken charges:
               1
     1  O   -0.441331
     2  C    0.117472
     3  C    0.122799
     4  C   -0.270293
     5  C   -0.106868
     6  C   -0.075050
     7  C   -0.075090
     8  C   -0.123996
     9  O   -0.272148
    10  H    0.284224
    11  H    0.068237
    12  H    0.090350
    13  H    0.115717
    14  H    0.104078
    15  H    0.058286
    16  H    0.087162
    17  H    0.092915
    18  H    0.115953
    19  H    0.107584
 Sum of Mulliken charges =   0.00000

 Dipole moment (field-independent basis, Debye):
    X=              0.2685    Y=              2.1114    Z=              0.1452  Tot=              2.1333
 Quadrupole moment (field-independent basis, Debye-Ang):
   XX=            -49.9490   YY=            -53.8121   ZZ=            -52.7455
   XY=             -3.2677   XZ=              0.9252   YZ=             -2.5229

  Exact polarizability:  91.352  -3.563  74.638  -3.909  -1.669  62.236
 Approx polarizability: 131.232 -10.252 112.790  -6.455   0.282  94.047

                      1                      2                      3
                      A                      A                      A
 Frequencies --    130.4857               206.9579               253.1228
 Red. masses --      3.4041                 2.3566                 2.2145
 Frc consts  --      0.0341                 0.0595                 0.0836
 IR Inten    --      1.8136                 0.5383                 9.8286

                      4                      5                      6
                      A                      A                      A
 Frequencies --    282.3181               310.8628               352.0959
 Red. masses --      3.6193                 1.4444                 2.9471
 Frc consts  --      0.1700                 0.0822                 0.2153
 IR Inten    --      5.7995                86.9592                17.1561

                      7                      8                      9
                      A                      A                      A
 Frequencies --    382.9994               428.8082               493.3960
 Red. masses --      3.8902                 4.1131                 2.7529
 Frc consts  --      0.3362                 0.4456                 0.3948
 IR Inten    --      1.4486                 0.3496                 5.6930

                     10                     11                     12
                      A                      A                      A
 Frequencies --    565.2729               685.3017               746.5733
 Red. masses --      3.0599                 1.5556                 3.0833
 Frc consts  --      0.5761                 0.4304                 1.0125
 IR Inten    --      4.3174                16.2356                 6.9587

                     13                     14                     15
                      A                      A                      A
 Frequencies --    798.5480               850.5164               869.1783
 Red. masses --      2.9003                 3.8361                 2.5729
 Frc consts  --      1.0897                 1.6350                 1.1452
 IR Inten    --      5.8792                14.9230                 6.7000

                     16                     17                     18
                      A                      A                      A
 Frequencies --    891.6198               938.3984               960.9535
 Red. masses --      2.9738                 2.4149                 2.2767
 Frc consts  --      1.3929                 1.2529                 1.2387
 IR Inten    --      2.6106                 1.6281                 9.4036

                     19                     20                     21
                      A                      A                      A
 Frequencies --    967.1260               993.7974              1026.4826
 Red. masses --      2.3295                 1.3875                 1.8506
 Frc consts  --      1.2837                 0.8074                 1.1488
 IR Inten    --     25.5664                 1.5400                12.9412

                     22                     23                     24
                      A                      A                      A
 Frequencies --   1058.7029              1071.0233              1106.1964
 Red. masses --      2.5509                 2.3503                 4.5300
 Frc consts  --      1.6846                 1.5884                 3.2659
 IR Inten    --     11.0213                 9.9684                84.9305

                     25                     26                     27
                      A                      A                      A
 Frequencies --   1124.2946              1136.4822              1171.4429
 Red. masses --      1.2814                 1.5924                 1.5642
 Frc consts  --      0.9543                 1.2118                 1.2647
 IR Inten    --      1.1251                56.4831                73.0366

                     28                     29                     30
                      A                      A                      A
 Frequencies --   1214.9797              1244.1808              1256.5213
 Red. masses --      1.4078                 1.5573                 1.3684
 Frc consts  --      1.2244                 1.4204                 1.2729
 IR Inten    --      0.6627                25.2400                 2.6515

                     31                     32                     33
                      A                      A                      A
 Frequencies --   1266.0093              1284.1686              1308.2922
 Red. masses --      1.4590                 1.1087                 1.3275
 Frc consts  --      1.3777                 1.0772                 1.3388
 IR Inten    --      4.0781                 2.5341                57.9306

                     34                     35                     36
                      A                      A                      A
 Frequencies --   1335.4718              1360.6487              1405.1920
 Red. masses --      1.5311                 1.2356                 1.3340
 Frc consts  --      1.6089                 1.3478                 1.5520
 IR Inten    --      5.2368                 6.0962                 4.1117

                     37                     38                     39
                      A                      A                      A
 Frequencies --   1408.5056              1417.1957              1468.3810
 Red. masses --      1.4068                 1.5675                 1.1307
 Frc consts  --      1.6443                 1.8549                 1.4364
 IR Inten    --      3.3044                 5.6380                 6.1523

                     40                     41                     42
                      A                      A                      A
 Frequencies --   1494.5528              1712.9876              2953.3817
 Red. masses --      1.0792                 6.7330                 1.0732
 Frc consts  --      1.4203                11.6405                 5.5154
 IR Inten    --      4.0428                 1.9524                47.1974

                     43                     44                     45
                      A                      A                      A
 Frequencies --   3029.0285              3064.4224              3069.5526
 Red. masses --      1.0864                 1.0869                 1.0826
 Frc consts  --      5.8728                 6.0135                 6.0100
 IR Inten    --     46.9729                34.1741                30.6868

                     46                     47                     48
                      A                      A                      A
 Frequencies --   3077.4175              3086.7349              3137.0314
 Red. masses --      1.0747                 1.0758                 1.1082
 Frc consts  --      5.9964                 6.0394                 6.4255
 IR Inten    --     34.6803                30.8585                18.2727

                     49                     50                     51
                      A                      A                      A
 Frequencies --   3143.4777              3167.2604              3814.0253
 Red. masses --      1.0838                 1.0960                 1.0662
 Frc consts  --      6.3097                 6.4775                 9.1383
 IR Inten    --      6.5567                30.2253                23.4722

 - Thermochemistry -
 -------------------
 Temperature   298.150 Kelvin.  Pressure   1.00000 Atm.
 Atom     1 has atomic number  8 and mass  15.99491

 Molecular mass:   126.06808 amu.
 Principal axes and moments of inertia in atomic units:
                           1         2         3
     Eigenvalues --   635.066611141.767291404.28180
           X            0.99995  -0.00856  -0.00517
           Y            0.00840   0.99950  -0.03035
           Z            0.00543   0.03030   0.99953
 This molecule is an asymmetric top.
 Rotational symmetry number  1.
 Warning -- assumption of classical behavior for rotation
           may cause significant error
 Rotational temperatures (Kelvin)      0.13639     0.07586     0.06168
 Rotational constants (GHZ):           2.84181     1.58066     1.28517
 Zero-point vibrational energy     421817.5 (Joules/Mol)
                                  100.81680 (Kcal/Mol)
 Warning -- explicit consideration of  10 degrees of freedom as
           vibrations may cause significant error
 Vibrational temperatures:    187.74   297.77   364.19   406.19   447.26
          (Kelvin)            506.59   551.05   616.96   709.89   813.30
                              986.00  1074.15  1148.93  1223.70  1250.55
                             1282.84  1350.14  1382.60  1391.48  1429.85
                             1476.88  1523.24  1540.96  1591.57  1617.61
                             1635.14  1685.44  1748.08  1790.10  1807.85
                             1821.50  1847.63  1882.34  1921.44  1957.67
                             2021.76  2026.52  2039.03  2112.67  2150.33
                             2464.60  4249.25  4358.09  4409.01  4416.40
                             4427.71  4441.12  4513.48  4522.76  4556.98
                             5487.52

 Zero-point correction=                           0.160662 (Hartree/Particle)
 Thermal correction to Energy=                    0.168383
 Thermal correction to Enthalpy=                  0.169327
 Thermal correction to Gibbs Free Energy=         0.128890
 Sum of electronic and zero-point Energies=           -422.999381
 Sum of electronic and thermal Energies=              -422.991660
 Sum of electronic and thermal Enthalpies=            -422.990716
 Sum of electronic and thermal Free Energies=         -423.031153

                     E (Thermal)             CV                S
                      KCal/Mol        Cal/Mol-Kelvin    Cal/Mol-Kelvin
 Total                  105.662             30.983             85.107
 Electronic               0.000              0.000              0.000
 Translational            0.889              2.981             40.409
 Rotational               0.889              2.981             28.412
 Vibrational            103.884             25.021             16.287
 Vibration     1          0.612              1.923              2.939
 Vibration     2          0.641              1.830              2.070
 Vibration     3          0.664              1.758              1.709
 Vibration     4          0.681              1.706              1.520
 Vibration     5          0.700              1.653              1.358
 Vibration     6          0.729              1.571              1.157
 Vibration     7          0.752              1.506              1.027
 Vibration     8          0.790              1.408              0.863
 Vibration     9          0.849              1.265              0.675
 Vibration    10          0.921              1.106              0.513

 Optimization completed.
    -- Stationary point found.
 Normal termination of Gaussian 09 at Mon Jan 27 23:56:13 2020.
