 Gaussian 09, Revision D.01,
 Gaussian 09:  ES64L-G09RevD.01 24-Apr-2013

 -----------------------------
 # b3lyp 6-31G(2df,p) opt Freq
 -----------------------------

 -----
 titel
 -----
 Symbolic Z-matrix:
 Charge =  0 Multiplicity = 1

 SCF Done:  E(RB3LYP) =  -423.126496773     A.U. after   14 cycles
 Optimization completed.
    -- Stationary point found.
 Normal termination of Gaussian 09 at Tue Jan 28 08:12:03 2020.

 ----------------------------------------------------------------------
 #N Geom=AllCheck Guess=TCheck SCRF=Check GenChk RB3LYP/6-31G(2df,p) Fr
 eq
 ----------------------------------------------------------------------

 Structure from the checkpoint file:  "/scratch/puck/g09_d9bf6122-1912-49a3-958e-d86bfd34d978/Gau-102081.chk"
 -----
 titel
 -----
 Charge =  0 Multiplicity = 1

                         Standard orientation:
 ---------------------------------------------------------------------
 Center     Atomic      Atomic             Coordinates (Angstroms)
 Number     Number       Type             X           Y           Z
 ---------------------------------------------------------------------
      1          6           0        2.633650    1.624458   -0.068358
      2          6           0        1.734426    0.500352    0.415410
      3          6           0        2.348267   -0.890888    0.678815
      4          8           0        1.385275   -1.534615   -0.182524
      5          6           0        0.874369   -0.255695   -0.642386
      6          6           0       -0.568853   -0.134251   -0.573006
      7          6           0       -1.766874   -0.009333   -0.518504
      8          6           0       -3.219554    0.099693   -0.399554
      9          8           0       -3.668398    0.328838    0.928699
     10          1           0        3.258456    1.299727   -0.907739
     11          1           0        2.043890    2.485687   -0.399593
     12          1           0        3.298961    1.966330    0.731530
     13          1           0        1.112315    0.833107    1.249355
     14          1           0        3.374203   -1.009786    0.302816
     15          1           0        2.298060   -1.272013    1.704664
     16          1           0        1.212180   -0.056950   -1.670770
     17          1           0       -3.580648    0.951092   -0.987297
     18          1           0       -3.684048   -0.801407   -0.831269
     19          1           0       -3.280979   -0.355585    1.484391
 ---------------------------------------------------------------------

 SCF Done:  E(RB3LYP) =  -423.126496773     A.U. after    1 cycles

 The electronic state is 1-A.
 Alpha  occ. eigenvalues --  -19.14194 -19.13523 -10.25481 -10.25383 -10.23083
 Alpha  occ. eigenvalues --  -10.20166 -10.18666 -10.18281 -10.17965  -1.03981
 Alpha  occ. eigenvalues --   -1.02382  -0.78974  -0.77244  -0.72499  -0.67645
 Alpha  occ. eigenvalues --   -0.66533  -0.57263  -0.53604  -0.51536  -0.47314
 Alpha  occ. eigenvalues --   -0.46960  -0.46239  -0.44548  -0.42658  -0.40783
 Alpha  occ. eigenvalues --   -0.40622  -0.36180  -0.35716  -0.33853  -0.30731
 Alpha  occ. eigenvalues --   -0.28909  -0.26673  -0.26232  -0.24885
 Alpha virt. eigenvalues --    0.02134   0.02817   0.09076   0.10333   0.11717
 Alpha virt. eigenvalues --    0.11915   0.12933   0.13354   0.15252   0.16219
 Alpha virt. eigenvalues --    0.16870   0.16972   0.18486   0.19828   0.22369

 Mulliken charges:
               1
     1  C   -0.414719
     2  C   -0.031369
     3  C   -0.079992
     4  O   -0.285941
     5  C   -0.049454
     6  C    0.037764
     7  C    0.100234
     8  C   -0.196453
     9  O   -0.401074
    10  H    0.120333
    11  H    0.127931
    12  H    0.122954
    13  H    0.095410
    14  H    0.096596
    15  H    0.107513
    16  H    0.096494
    17  H    0.142152
    18  H    0.122980
    19  H    0.288641
 Sum of Mulliken charges =   0.00000

 Dipole moment (field-independent basis, Debye):
    X=              1.2959    Y=              0.7292    Z=              0.2300  Tot=              1.5047
 Quadrupole moment (field-independent basis, Debye-Ang):
   XX=            -51.9504   YY=            -56.5309   ZZ=            -50.5603
   XY=              5.6181   XZ=              3.3501   YZ=             -2.9949

  Exact polarizability: 115.458  -1.913  64.984   3.055  -2.628  66.087
 Approx polarizability: 156.210  -8.027  93.262   0.868  -2.028  97.205

                      1                      2                      3
                      A                      A                      A
 Frequencies --     27.6992                61.0496                73.6334
 Red. masses --      3.1280                 2.6402                 4.4321
 Frc consts  --      0.0014                 0.0058                 0.0142
 IR Inten    --      2.7330                 1.4006                 1.0244

                      4                      5                      6
                      A                      A                      A
 Frequencies --    116.6065               207.2109               227.3650
 Red. masses --      3.6401                 1.7286                 2.0025
 Frc consts  --      0.0292                 0.0437                 0.0610
 IR Inten    --      4.2416                 0.4254                 4.0897

                      7                      8                      9
                      A                      A                      A
 Frequencies --    252.8767               297.4698               346.8702
 Red. masses --      1.9214                 1.6856                 2.2618
 Frc consts  --      0.0724                 0.0879                 0.1603
 IR Inten    --      8.3005                61.2983                50.8514

                     10                     11                     12
                      A                      A                      A
 Frequencies --    385.2754               420.3195               505.3967
 Red. masses --      2.9261                 3.4650                 5.9181
 Frc consts  --      0.2559                 0.3607                 0.8906
 IR Inten    --     13.8395                 5.1877                 1.6062

                     13                     14                     15
                      A                      A                      A
 Frequencies --    603.6403               702.1822               791.6968
 Red. masses --      7.5021                 4.9912                 2.5937
 Frc consts  --      1.6106                 1.4500                 0.9578
 IR Inten    --     11.1445                 2.8611                 8.8168

                     16                     17                     18
                      A                      A                      A
 Frequencies --    894.6969               897.8074               930.5945
 Red. masses --      2.3058                 2.4969                 1.1991
 Frc consts  --      1.0875                 1.1858                 0.6118
 IR Inten    --     11.2566                 4.5483                 1.3539

                     19                     20                     21
                      A                      A                      A
 Frequencies --    972.5108               988.3044              1013.6259
 Red. masses --      3.4411                 1.8922                 8.0489
 Frc consts  --      1.9175                 1.0889                 4.8724
 IR Inten    --     42.4044                21.3529               108.2856

                     22                     23                     24
                      A                      A                      A
 Frequencies --   1050.2128              1107.9408              1124.9693
 Red. masses --      6.2507                 1.9438                 2.3720
 Frc consts  --      4.0620                 1.4059                 1.7686
 IR Inten    --     85.4434                 7.7645                 7.3654

                     25                     26                     27
                      A                      A                      A
 Frequencies --   1148.7240              1174.4757              1179.2782
 Red. masses --      1.5854                 2.6382                 1.4135
 Frc consts  --      1.2326                 2.1441                 1.1582
 IR Inten    --      3.6534                32.2784                 1.6935

                     28                     29                     30
                      A                      A                      A
 Frequencies --   1215.5586              1245.0359              1272.6058
 Red. masses --      1.0870                 1.3850                 1.3010
 Frc consts  --      0.9463                 1.2649                 1.2414
 IR Inten    --     15.1292                 0.6818                 1.5718

                     31                     32                     33
                      A                      A                      A
 Frequencies --   1329.2340              1358.5379              1359.3003
 Red. masses --      1.3073                 1.3867                 1.2374
 Frc consts  --      1.3609                 1.5079                 1.3471
 IR Inten    --     13.9314                34.3704                 3.1783

                     34                     35                     36
                      A                      A                      A
 Frequencies --   1394.7702              1413.7542              1418.0651
 Red. masses --      1.6198                 1.2700                 1.2273
 Frc consts  --      1.8566                 1.4956                 1.4542
 IR Inten    --     17.3739                 1.9465                89.4400

                     37                     38                     39
                      A                      A                      A
 Frequencies --   1487.1774              1495.8510              1496.8082
 Red. masses --      1.0774                 1.0480                 1.0479
 Frc consts  --      1.4040                 1.3816                 1.3833
 IR Inten    --      0.7353                 4.6880                 4.1620

                     40                     41                     42
                      A                      A                      A
 Frequencies --   1527.6791              2351.0364              2977.4486
 Red. masses --      1.1023                11.9109                 1.0711
 Frc consts  --      1.5157                38.7894                 5.5948
 IR Inten    --      1.9188                 0.9896                46.2979

                     43                     44                     45
                      A                      A                      A
 Frequencies --   2984.4660              3003.7343              3030.0374
 Red. masses --      1.0806                 1.0629                 1.0356
 Frc consts  --      5.6711                 5.6503                 5.6017
 IR Inten    --     38.0274                71.7330                26.6053

                     46                     47                     48
                      A                      A                      A
 Frequencies --   3059.1440              3062.8178              3081.4811
 Red. masses --      1.1012                 1.0884                 1.0910
 Frc consts  --      6.0719                 6.0154                 6.1036
 IR Inten    --     29.8639                16.0120                10.6698

                     49                     50                     51
                      A                      A                      A
 Frequencies --   3100.3524              3104.5581              3816.1982
 Red. masses --      1.1010                 1.0987                 1.0663
 Frc consts  --      6.2353                 6.2392                 9.1492
 IR Inten    --     21.0144                39.6254                20.5228

 - Thermochemistry -
 -------------------
 Temperature   298.150 Kelvin.  Pressure   1.00000 Atm.
 Atom     1 has atomic number  6 and mass  12.00000

 Molecular mass:   126.06808 amu.
 Principal axes and moments of inertia in atomic units:
                           1         2         3
     Eigenvalues --   535.901932634.868352823.12538
           X            0.99979   0.01933   0.00634
           Y           -0.01897   0.99846  -0.05214
           Z           -0.00734   0.05201   0.99862
 This molecule is an asymmetric top.
 Rotational symmetry number  1.
 Warning -- assumption of classical behavior for rotation
           may cause significant error
 Rotational temperatures (Kelvin)      0.16162     0.03287     0.03068
 Rotational constants (GHZ):           3.36767     0.68495     0.63927
 Zero-point vibrational energy     413238.5 (Joules/Mol)
                                   98.76637 (Kcal/Mol)
 Warning -- explicit consideration of  13 degrees of freedom as
           vibrations may cause significant error
 Vibrational temperatures:     39.85    87.84   105.94   167.77   298.13
          (Kelvin)            327.13   363.83   427.99   499.07   554.32
                              604.75   727.15   868.50  1010.28  1139.07
                             1287.27  1291.74  1338.92  1399.22  1421.95
                             1458.38  1511.02  1594.08  1618.58  1652.76
                             1689.81  1696.72  1748.92  1791.33  1830.99
                             1912.47  1954.63  1955.73  2006.76  2034.07
                             2040.28  2139.71  2152.19  2153.57  2197.99
                             3382.61  4283.88  4293.98  4321.70  4359.54
                             4401.42  4406.71  4433.56  4460.71  4466.76
                             5490.65

 Zero-point correction=                           0.157394 (Hartree/Particle)
 Thermal correction to Energy=                    0.167452
 Thermal correction to Enthalpy=                  0.168396
 Thermal correction to Gibbs Free Energy=         0.120454
 Sum of electronic and zero-point Energies=           -422.969103
 Sum of electronic and thermal Energies=              -422.959044
 Sum of electronic and thermal Enthalpies=            -422.958100
 Sum of electronic and thermal Free Energies=         -423.006043

                     E (Thermal)             CV                S
                      KCal/Mol        Cal/Mol-Kelvin    Cal/Mol-Kelvin
 Total                  105.078             34.840            100.904
 Electronic               0.000              0.000              0.000
 Translational            0.889              2.981             40.409
 Rotational               0.889              2.981             29.768
 Vibrational            103.300             28.879             30.728
 Vibration     1          0.593              1.984              5.988
 Vibration     2          0.597              1.973              4.423
 Vibration     3          0.599              1.966              4.054
 Vibration     4          0.608              1.936              3.156
 Vibration     5          0.641              1.830              2.068
 Vibration     6          0.651              1.799              1.900
 Vibration     7          0.664              1.758              1.710
 Vibration     8          0.691              1.678              1.431
 Vibration     9          0.725              1.582              1.180
 Vibration    10          0.754              1.502              1.018
 Vibration    11          0.783              1.426              0.891
 Vibration    12          0.861              1.238              0.645
 Vibration    13          0.962              1.024              0.443

 Optimization completed.
    -- Stationary point found.
 Normal termination of Gaussian 09 at Tue Jan 28 08:45:49 2020.
