 Gaussian 09, Revision D.01,
 Gaussian 09:  ES64L-G09RevD.01 24-Apr-2013

 -----------------------------
 # b3lyp 6-31G(2df,p) opt Freq
 -----------------------------

 -----
 titel
 -----
 Symbolic Z-matrix:
 Charge =  0 Multiplicity = 1

 SCF Done:  E(RB3LYP) =  -423.160705099     A.U. after   14 cycles
 Optimization completed.
    -- Stationary point found.
 Normal termination of Gaussian 09 at Tue Jan 28 00:01:18 2020.

 ----------------------------------------------------------------------
 #N Geom=AllCheck Guess=TCheck SCRF=Check GenChk RB3LYP/6-31G(2df,p) Fr
 eq
 ----------------------------------------------------------------------

 Structure from the checkpoint file:  "/scratch/puck/g09_9783bc61-ffbe-4e1e-b401-e77aa7d15651/Gau-2003.chk"
 -----
 titel
 -----
 Charge =  0 Multiplicity = 1

                         Standard orientation:
 ---------------------------------------------------------------------
 Center     Atomic      Atomic             Coordinates (Angstroms)
 Number     Number       Type             X           Y           Z
 ---------------------------------------------------------------------
      1          6           0        0.950366    2.198669   -0.263789
      2          6           0        0.170396    1.077434    0.401012
      3          6           0        0.949454   -0.161240    0.909288
      4          8           0        2.055446   -0.532305    0.058851
      5          6           0        1.276638   -1.577942   -0.575996
      6          6           0        0.001827   -1.124734    0.143710
      7          6           0       -0.685338    0.100351   -0.507583
      8          6           0       -2.163680    0.239233   -0.290658
      9          8           0       -2.857139   -0.555460    0.294452
     10          1           0        0.280756    2.903029   -0.768313
     11          1           0        1.530992    2.761331    0.475109
     12          1           0        1.649323    1.791301   -0.999005
     13          1           0       -0.454773    1.467458    1.213492
     14          1           0        1.207697   -0.216834    1.970491
     15          1           0        1.289780   -1.503686   -1.670630
     16          1           0        1.636661   -2.571194   -0.278753
     17          1           0       -0.656848   -1.857033    0.603866
     18          1           0       -0.471295    0.232374   -1.575423
     19          1           0       -2.596733    1.184744   -0.693165
 ---------------------------------------------------------------------

 SCF Done:  E(RB3LYP) =  -423.160705099     A.U. after    1 cycles

 The electronic state is 1-A.
 Alpha  occ. eigenvalues --  -19.14302 -19.13901 -10.27375 -10.23805 -10.23609
 Alpha  occ. eigenvalues --  -10.20526 -10.20347 -10.19628 -10.18163  -1.04992
 Alpha  occ. eigenvalues --   -1.04454  -0.84493  -0.74915  -0.69801  -0.69376
 Alpha  occ. eigenvalues --   -0.60425  -0.58263  -0.52737  -0.51881  -0.47895
 Alpha  occ. eigenvalues --   -0.46940  -0.45121  -0.44068  -0.42675  -0.41989
 Alpha  occ. eigenvalues --   -0.40342  -0.38675  -0.36337  -0.34021  -0.33226
 Alpha  occ. eigenvalues --   -0.31127  -0.29022  -0.26050  -0.24684
 Alpha virt. eigenvalues --   -0.02472   0.06652   0.09142   0.09719   0.11323
 Alpha virt. eigenvalues --    0.11687   0.13360   0.14441   0.15350   0.16586
 Alpha virt. eigenvalues --    0.17361   0.17399   0.18238   0.19983   0.20599

 Mulliken charges:
               1
     1  C   -0.409344
     2  C   -0.013192
     3  C    0.110882
     4  O   -0.292882
     5  C   -0.091839
     6  C   -0.092712
     7  C   -0.108707
     8  C    0.131978
     9  O   -0.249156
    10  H    0.114584
    11  H    0.122139
    12  H    0.135552
    13  H    0.084974
    14  H    0.077995
    15  H    0.101410
    16  H    0.105980
    17  H    0.103538
    18  H    0.091477
    19  H    0.077324
 Sum of Mulliken charges =   0.00000

 Dipole moment (field-independent basis, Debye):
    X=              0.5342    Y=              0.9584    Z=             -0.7939  Tot=              1.3543
 Quadrupole moment (field-independent basis, Debye-Ang):
   XX=            -65.8087   YY=            -50.4652   ZZ=            -50.5804
   XY=             -3.7322   XZ=              2.5096   YZ=              1.0108

  Exact polarizability:  80.915  -0.882  81.090  -0.200  -0.828  66.155
 Approx polarizability: 115.369   4.853 113.321  -3.176  -2.739 103.776

                      1                      2                      3
                      A                      A                      A
 Frequencies --     73.4650                87.5656               176.9376
 Red. masses --      4.7964                 3.1553                 4.2193
 Frc consts  --      0.0153                 0.0143                 0.0778
 IR Inten    --      7.5618                 1.7910                 5.7782

                      4                      5                      6
                      A                      A                      A
 Frequencies --    207.8425               226.5121               248.9466
 Red. masses --      1.1201                 2.3996                 2.6849
 Frc consts  --      0.0285                 0.0725                 0.0980
 IR Inten    --      0.2454                 3.2394                 5.1495

                      7                      8                      9
                      A                      A                      A
 Frequencies --    306.5209               367.3880               529.9917
 Red. masses --      3.4583                 2.4865                 3.5398
 Frc consts  --      0.1914                 0.1977                 0.5858
 IR Inten    --      0.5223                 0.1295                 6.8356

                     10                     11                     12
                      A                      A                      A
 Frequencies --    625.9368               683.8627               785.5808
 Red. masses --      3.7571                 4.3064                 2.3303
 Frc consts  --      0.8673                 1.1866                 0.8473
 IR Inten    --      9.7281                 3.4982                 2.9492

                     13                     14                     15
                      A                      A                      A
 Frequencies --    817.6865               847.7798               865.3353
 Red. masses --      2.6197                 1.8565                 2.4743
 Frc consts  --      1.0320                 0.7862                 1.0916
 IR Inten    --      2.8632                 2.7332                11.6458

                     16                     17                     18
                      A                      A                      A
 Frequencies --    924.5084               956.6501               965.9410
 Red. masses --      2.4171                 1.9562                 1.4519
 Frc consts  --      1.2172                 1.0548                 0.7982
 IR Inten    --      2.6693                17.7378                 8.2219

                     19                     20                     21
                      A                      A                      A
 Frequencies --    994.2871              1021.9980              1035.4999
 Red. masses --      3.2643                 2.6666                 1.8761
 Frc consts  --      1.9013                 1.6410                 1.1852
 IR Inten    --     64.8917                22.3253                17.4560

                     22                     23                     24
                      A                      A                      A
 Frequencies --   1083.0256              1098.0855              1120.0085
 Red. masses --      2.4249                 1.9344                 2.2579
 Frc consts  --      1.6758                 1.3742                 1.6687
 IR Inten    --      4.6043                15.6932                 9.9370

                     25                     26                     27
                      A                      A                      A
 Frequencies --   1130.2202              1158.3622              1191.9417
 Red. masses --      2.0405                 1.2350                 1.5894
 Frc consts  --      1.5358                 0.9764                 1.3305
 IR Inten    --      8.0686                 3.8323                 4.5836

                     28                     29                     30
                      A                      A                      A
 Frequencies --   1210.5935              1229.2232              1255.4893
 Red. masses --      1.5248                 1.6587                 1.5016
 Frc consts  --      1.3166                 1.4767                 1.3945
 IR Inten    --      2.0457                 1.1124                 9.2583

                     31                     32                     33
                      A                      A                      A
 Frequencies --   1274.3522              1315.0347              1337.2307
 Red. masses --      1.4894                 1.2917                 1.6937
 Frc consts  --      1.4251                 1.3161                 1.7845
 IR Inten    --      2.7781                 4.2054                 1.3589

                     34                     35                     36
                      A                      A                      A
 Frequencies --   1361.2495              1369.8627              1405.3754
 Red. masses --      1.4162                 1.7822                 1.2633
 Frc consts  --      1.5461                 1.9704                 1.4700
 IR Inten    --      6.0318                20.0117                 4.9957

                     37                     38                     39
                      A                      A                      A
 Frequencies --   1423.3603              1488.2416              1499.5604
 Red. masses --      1.2063                 1.0427                 1.0499
 Frc consts  --      1.4399                 1.3606                 1.3910
 IR Inten    --      7.9608                 3.6305                 4.5387

                     40                     41                     42
                      A                      A                      A
 Frequencies --   1523.6347              1818.5688              2860.2748
 Red. masses --      1.1006                10.3122                 1.0820
 Frc consts  --      1.5053                20.0938                 5.2156
 IR Inten    --      0.8117               175.3830               122.3198

                     43                     44                     45
                      A                      A                      A
 Frequencies --   3009.2835              3028.8798              3036.1514
 Red. masses --      1.0550                 1.0775                 1.0417
 Frc consts  --      5.6292                 5.8244                 5.6576
 IR Inten    --     85.7187                 9.1250                26.2545

                     46                     47                     48
                      A                      A                      A
 Frequencies --   3038.4074              3054.3990              3069.5463
 Red. masses --      1.0842                 1.1107                 1.0890
 Frc consts  --      5.8975                 6.1051                 6.0455
 IR Inten    --     15.3305                40.9797                56.2696

                     49                     50                     51
                      A                      A                      A
 Frequencies --   3098.1722              3121.3229              3151.0682
 Red. masses --      1.1011                 1.1006                 1.0896
 Frc consts  --      6.2272                 6.3178                 6.3746
 IR Inten    --     21.5449                15.7793                 9.6804

 - Thermochemistry -
 -------------------
 Temperature   298.150 Kelvin.  Pressure   1.00000 Atm.
 Atom     1 has atomic number  6 and mass  12.00000

 Molecular mass:   126.06808 amu.
 Principal axes and moments of inertia in atomic units:
                           1         2         3
     Eigenvalues --   710.174921271.434101725.15046
           X            0.99998  -0.00587   0.00063
           Y            0.00588   0.99998  -0.00385
           Z           -0.00061   0.00385   0.99999
 This molecule is an asymmetric top.
 Rotational symmetry number  1.
 Warning -- assumption of classical behavior for rotation
           may cause significant error
 Rotational temperatures (Kelvin)      0.12196     0.06812     0.05021
 Rotational constants (GHZ):           2.54126     1.41945     1.04614
 Zero-point vibrational energy     415769.1 (Joules/Mol)
                                   99.37120 (Kcal/Mol)
 Warning -- explicit consideration of   9 degrees of freedom as
           vibrations may cause significant error
 Vibrational temperatures:    105.70   125.99   254.57   299.04   325.90
          (Kelvin)            358.18   441.01   528.59   762.54   900.58
                              983.92  1130.27  1176.47  1219.76  1245.02
                             1330.16  1376.40  1389.77  1430.56  1470.43
                             1489.85  1558.23  1579.90  1611.44  1626.13
                             1666.62  1714.94  1741.77  1768.58  1806.37
                             1833.51  1892.04  1923.97  1958.53  1970.92
                             2022.02  2047.90  2141.25  2157.53  2192.17
                             2616.51  4115.29  4329.68  4357.88  4368.34
                             4371.59  4394.59  4416.39  4457.57  4490.88
                             4533.68

 Zero-point correction=                           0.158358 (Hartree/Particle)
 Thermal correction to Energy=                    0.166893
 Thermal correction to Enthalpy=                  0.167837
 Thermal correction to Gibbs Free Energy=         0.124666
 Sum of electronic and zero-point Energies=           -423.002347
 Sum of electronic and thermal Energies=              -422.993812
 Sum of electronic and thermal Enthalpies=            -422.992868
 Sum of electronic and thermal Free Energies=         -423.036039

                     E (Thermal)             CV                S
                      KCal/Mol        Cal/Mol-Kelvin    Cal/Mol-Kelvin
 Total                  104.727             31.396             90.862
 Electronic               0.000              0.000              0.000
 Translational            0.889              2.981             40.409
 Rotational               0.889              2.981             28.834
 Vibrational            102.950             25.434             21.620
 Vibration     1          0.599              1.967              4.058
 Vibration     2          0.601              1.958              3.714
 Vibration     3          0.628              1.871              2.360
 Vibration     4          0.641              1.829              2.063
 Vibration     5          0.650              1.801              1.906
 Vibration     6          0.662              1.765              1.738
 Vibration     7          0.697              1.661              1.381
 Vibration     8          0.740              1.539              1.091
 Vibration     9          0.885              1.184              0.587

 Optimization completed.
    -- Stationary point found.
 Normal termination of Gaussian 09 at Tue Jan 28 00:41:57 2020.
