 Gaussian 09, Revision D.01,
 Gaussian 09:  ES64L-G09RevD.01 24-Apr-2013

 -----------------------------
 # b3lyp 6-31G(2df,p) opt Freq
 -----------------------------

 -----
 titel
 -----
 Symbolic Z-matrix:
 Charge =  0 Multiplicity = 1

 SCF Done:  E(RB3LYP) =  -423.151725619     A.U. after   13 cycles
 Optimization completed.
    -- Stationary point found.
 Normal termination of Gaussian 09 at Mon Jan 27 11:28:44 2020.

 ----------------------------------------------------------------------
 #N Geom=AllCheck Guess=TCheck SCRF=Check GenChk RB3LYP/6-31G(2df,p) Fr
 eq
 ----------------------------------------------------------------------

 Structure from the checkpoint file:  "/scratch/puck/g09_ab6a2480-81dc-4d71-99a8-b624eff7cddd/Gau-61247.chk"
 -----
 titel
 -----
 Charge =  0 Multiplicity = 1

                         Standard orientation:
 ---------------------------------------------------------------------
 Center     Atomic      Atomic             Coordinates (Angstroms)
 Number     Number       Type             X           Y           Z
 ---------------------------------------------------------------------
      1          6           0       -0.091931    1.752724    0.793150
      2          6           0       -0.648755    1.181047   -0.511163
      3          6           0       -1.869451    0.275183   -0.540445
      4          8           0       -1.748204   -0.858963    0.310926
      5          6           0       -0.574198   -1.616534    0.048831
      6          6           0        0.640350   -0.844341    0.559236
      7          6           0        1.974441   -0.836108   -0.223977
      8          8           0        1.882009    0.595774   -0.449779
      9          6           0        0.581147    0.610655    0.125030
     10          1           0        0.377336    2.728241    0.721133
     11          1           0       -0.615148    1.560550    1.725911
     12          1           0       -0.508788    1.804404   -1.389049
     13          1           0       -2.772759    0.795979   -0.205239
     14          1           0       -2.037513   -0.061394   -1.577662
     15          1           0       -0.706516   -2.574876    0.558326
     16          1           0       -0.479653   -1.812525   -1.032470
     17          1           0        0.768420   -0.978525    1.636094
     18          1           0        2.875809   -1.097649    0.338715
     19          1           0        1.958761   -1.394456   -1.168910
 ---------------------------------------------------------------------

 SCF Done:  E(RB3LYP) =  -423.151725619     A.U. after    1 cycles

 The electronic state is 1-A.
 Alpha  occ. eigenvalues --  -19.14234 -19.13756 -10.23868 -10.23554 -10.23178
 Alpha  occ. eigenvalues --  -10.23118 -10.19345 -10.18764 -10.18380  -1.04699
 Alpha  occ. eigenvalues --   -1.03148  -0.85293  -0.77617  -0.71171  -0.65157
 Alpha  occ. eigenvalues --   -0.63401  -0.57968  -0.52742  -0.50637  -0.49783
 Alpha  occ. eigenvalues --   -0.48298  -0.46440  -0.44587  -0.42787  -0.40543
 Alpha  occ. eigenvalues --   -0.38462  -0.37235  -0.35961  -0.33624  -0.33070
 Alpha  occ. eigenvalues --   -0.30007  -0.28333  -0.25470  -0.22743
 Alpha virt. eigenvalues --    0.07536   0.09094   0.09677   0.10998   0.12522
 Alpha virt. eigenvalues --    0.13077   0.13913   0.14660   0.15891   0.17373
 Alpha virt. eigenvalues --    0.18367   0.18744   0.19548   0.20375   0.22709

 Mulliken charges:
               1
     1  C   -0.368619
     2  C   -0.133446
     3  C   -0.096858
     4  O   -0.249094
     5  C   -0.105154
     6  C   -0.133094
     7  C   -0.111284
     8  O   -0.316287
     9  C    0.473711
    10  H    0.122689
    11  H    0.119579
    12  H    0.098841
    13  H    0.110414
    14  H    0.091088
    15  H    0.109291
    16  H    0.087175
    17  H    0.088404
    18  H    0.110205
    19  H    0.102436
 Sum of Mulliken charges =   0.00000

 Dipole moment (field-independent basis, Debye):
    X=             -0.0412    Y=             -0.7675    Z=             -0.1158  Tot=              0.7773
 Quadrupole moment (field-independent basis, Debye-Ang):
   XX=            -57.1483   YY=            -50.7348   ZZ=            -52.1683
   XY=             -5.1245   XZ=              2.8913   YZ=              0.5466

  Exact polarizability:  79.056  -5.881  78.392   2.279   1.898  66.603
 Approx polarizability: 109.804  -5.932 108.609   0.502   1.166 103.529

                      1                      2                      3
                      A                      A                      A
 Frequencies --    107.7721               196.9799               261.2117
 Red. masses --      2.4756                 2.8615                 3.3788
 Frc consts  --      0.0169                 0.0654                 0.1358
 IR Inten    --      2.5388                 2.5305                 3.3709

                      4                      5                      6
                      A                      A                      A
 Frequencies --    344.7530               369.3270               382.2810
 Red. masses --      3.5075                 2.1550                 2.2096
 Frc consts  --      0.2456                 0.1732                 0.1902
 IR Inten    --      1.6022                 3.7519                 3.0235

                      7                      8                      9
                      A                      A                      A
 Frequencies --    452.8451               516.3626               566.5714
 Red. masses --      4.8194                 3.4175                 3.5828
 Frc consts  --      0.5823                 0.5369                 0.6776
 IR Inten    --      2.2987                 0.5136                 2.8743

                     10                     11                     12
                      A                      A                      A
 Frequencies --    693.4248               770.7234               798.8757
 Red. masses --      2.6983                 2.4013                 2.4300
 Frc consts  --      0.7644                 0.8404                 0.9137
 IR Inten    --     12.4747                 3.0955                 5.3702

                     13                     14                     15
                      A                      A                      A
 Frequencies --    853.8852               888.8130               901.0394
 Red. masses --      2.3649                 1.7069                 1.5395
 Frc consts  --      1.0159                 0.7945                 0.7364
 IR Inten    --     11.4078                 7.6909                 2.4138

                     16                     17                     18
                      A                      A                      A
 Frequencies --    936.4127               952.4617               995.0582
 Red. masses --      2.8897                 2.4002                 7.6180
 Frc consts  --      1.4929                 1.2829                 4.4442
 IR Inten    --     18.7997                23.0185                65.2097

                     19                     20                     21
                      A                      A                      A
 Frequencies --   1003.9960              1043.9821              1049.0705
 Red. masses --      2.3586                 1.4649                 1.7483
 Frc consts  --      1.4008                 0.9407                 1.1337
 IR Inten    --      2.4604                14.0831                13.1376

                     22                     23                     24
                      A                      A                      A
 Frequencies --   1081.5558              1107.0738              1110.7741
 Red. masses --      2.3804                 2.2138                 2.3243
 Frc consts  --      1.6406                 1.5986                 1.6897
 IR Inten    --      8.4133                 1.5365                21.5252

                     25                     26                     27
                      A                      A                      A
 Frequencies --   1130.6816              1147.2273              1173.9693
 Red. masses --      2.7755                 1.8100                 1.4509
 Frc consts  --      2.0906                 1.4036                 1.1782
 IR Inten    --     49.1491                22.3958                 6.2315

                     28                     29                     30
                      A                      A                      A
 Frequencies --   1209.8228              1234.9370              1265.3985
 Red. masses --      2.2447                 1.3463                 1.1653
 Frc consts  --      1.9357                 1.2097                 1.0993
 IR Inten    --     33.1811                 5.3923                12.0097

                     31                     32                     33
                      A                      A                      A
 Frequencies --   1308.1431              1320.5982              1331.6805
 Red. masses --      1.5870                 1.2653                 1.2981
 Frc consts  --      1.6000                 1.3002                 1.3563
 IR Inten    --      3.9253                 1.2567                 2.4125

                     34                     35                     36
                      A                      A                      A
 Frequencies --   1377.2121              1387.9716              1404.9439
 Red. masses --      1.5168                 1.5736                 1.5661
 Frc consts  --      1.6951                 1.7861                 1.8213
 IR Inten    --     16.8292                 2.8363                24.5544

                     37                     38                     39
                      A                      A                      A
 Frequencies --   1418.0273              1481.5134              1492.2448
 Red. masses --      1.3140                 1.6609                 1.1236
 Frc consts  --      1.5568                 2.1478                 1.4741
 IR Inten    --      4.4752                29.4319                 5.0646

                     40                     41                     42
                      A                      A                      A
 Frequencies --   1499.3890              1525.9699              2959.6537
 Red. masses --      1.0951                 1.2242                 1.0704
 Frc consts  --      1.4505                 1.6795                 5.5244
 IR Inten    --      3.2373                 4.3978                46.8743

                     43                     44                     45
                      A                      A                      A
 Frequencies --   2966.2679              3017.2139              3064.6530
 Red. masses --      1.0699                 1.0607                 1.0919
 Frc consts  --      5.5462                 5.6890                 6.0424
 IR Inten    --     64.3769                76.3492                40.9813

                     46                     47                     48
                      A                      A                      A
 Frequencies --   3068.2760              3081.0894              3093.3418
 Red. masses --      1.0920                 1.0985                 1.0948
 Frc consts  --      6.0569                 6.1442                 6.1722
 IR Inten    --      3.3472                34.7048                59.5829

                     49                     50                     51
                      A                      A                      A
 Frequencies --   3118.7767              3160.2487              3212.0895
 Red. masses --      1.0546                 1.0888                 1.1152
 Frc consts  --      6.0436                 6.4068                 6.7793
 IR Inten    --      8.6979                 7.0033                 4.8155

 - Thermochemistry -
 -------------------
 Temperature   298.150 Kelvin.  Pressure   1.00000 Atm.
 Atom     1 has atomic number  6 and mass  12.00000

 Molecular mass:   126.06808 amu.
 Principal axes and moments of inertia in atomic units:
                           1         2         3
     Eigenvalues --   676.00931 986.422031397.90224
           X            0.99669  -0.07928   0.01781
           Y            0.07897   0.99672   0.01763
           Z           -0.01915  -0.01617   0.99969
 This molecule is an asymmetric top.
 Rotational symmetry number  1.
 Warning -- assumption of classical behavior for rotation
           may cause significant error
 Rotational temperatures (Kelvin)      0.12813     0.08781     0.06196
 Rotational constants (GHZ):           2.66970     1.82958     1.29104
 Zero-point vibrational energy     423696.9 (Joules/Mol)
                                  101.26599 (Kcal/Mol)
 Warning -- explicit consideration of   9 degrees of freedom as
           vibrations may cause significant error
 Vibrational temperatures:    155.06   283.41   375.82   496.02   531.38
          (Kelvin)            550.02   651.54   742.93   815.17   997.68
                             1108.90  1149.40  1228.55  1278.80  1296.39
                             1347.29  1370.38  1431.67  1444.52  1502.06
                             1509.38  1556.12  1592.83  1598.15  1626.80
                             1650.60  1689.08  1740.66  1776.80  1820.62
                             1882.12  1900.04  1915.99  1981.50  1996.98
                             2021.40  2040.22  2131.56  2147.00  2157.28
                             2195.53  4258.28  4267.79  4341.09  4409.35
                             4414.56  4432.99  4450.62  4487.22  4546.89
                             4621.47

 Zero-point correction=                           0.161378 (Hartree/Particle)
 Thermal correction to Energy=                    0.168597
 Thermal correction to Enthalpy=                  0.169541
 Thermal correction to Gibbs Free Energy=         0.129867
 Sum of electronic and zero-point Energies=           -422.990348
 Sum of electronic and thermal Energies=              -422.983129
 Sum of electronic and thermal Enthalpies=            -422.982184
 Sum of electronic and thermal Free Energies=         -423.021859

                     E (Thermal)             CV                S
                      KCal/Mol        Cal/Mol-Kelvin    Cal/Mol-Kelvin
 Total                  105.796             29.120             83.502
 Electronic               0.000              0.000              0.000
 Translational            0.889              2.981             40.409
 Rotational               0.889              2.981             28.324
 Vibrational            104.019             23.158             14.769
 Vibration     1          0.606              1.943              3.309
 Vibration     2          0.636              1.844              2.161
 Vibration     3          0.669              1.744              1.654
 Vibration     4          0.723              1.586              1.190
 Vibration     5          0.742              1.535              1.083
 Vibration     6          0.752              1.508              1.030
 Vibration     7          0.811              1.355              0.787
 Vibration     8          0.871              1.214              0.618
 Vibration     9          0.922              1.104              0.511

 Optimization completed.
    -- Stationary point found.
 Normal termination of Gaussian 09 at Mon Jan 27 13:51:42 2020.
