 Gaussian 09, Revision D.01,
 Gaussian 09:  ES64L-G09RevD.01 24-Apr-2013

 -----------------------------
 # b3lyp 6-31G(2df,p) opt Freq
 -----------------------------

 -----
 titel
 -----
 Symbolic Z-matrix:
 Charge =  0 Multiplicity = 1

 SCF Done:  E(RB3LYP) =  -423.136446071     A.U. after   14 cycles
 SCF Done:  E(RB3LYP) =  -423.136446142     A.U. after    7 cycles
 SCF Done:  E(RB3LYP) =  -423.136446412     A.U. after    7 cycles
 SCF Done:  E(RB3LYP) =  -423.136446287     A.U. after    7 cycles
 SCF Done:  E(RB3LYP) =  -423.136446462     A.U. after    7 cycles
 Optimization completed.
    -- Stationary point found.
 Normal termination of Gaussian 09 at Mon Jan 27 22:21:06 2020.

 ----------------------------------------------------------------------
 #N Geom=AllCheck Guess=TCheck SCRF=Check GenChk RB3LYP/6-31G(2df,p) Fr
 eq
 ----------------------------------------------------------------------

 Structure from the checkpoint file:  "/scratch/puck/g09_c3a12cff-8f89-4432-a784-07a1e1887ce8/Gau-179176.chk"
 -----
 titel
 -----
 Charge =  0 Multiplicity = 1

                         Standard orientation:
 ---------------------------------------------------------------------
 Center     Atomic      Atomic             Coordinates (Angstroms)
 Number     Number       Type             X           Y           Z
 ---------------------------------------------------------------------
      1          6           0       -2.520355   -0.326288   -0.321851
      2          6           0       -1.091765   -0.125671    0.154389
      3          6           0       -1.017503    0.318255    1.609131
      4          8           0       -0.302450   -1.344116   -0.062777
      5          6           0        0.719075   -0.642684   -0.798244
      6          6           0        1.974735   -0.497302   -0.073299
      7          6           0        2.995960   -0.304210    0.534253
      8          6           0       -0.152684    0.654973   -0.820392
      9          8           0        0.415444    1.866919   -0.438286
     10          1           0       -3.022543   -1.089764    0.280968
     11          1           0       -3.087584    0.606588   -0.234771
     12          1           0       -2.539804   -0.650147   -1.366505
     13          1           0       -1.525405   -0.412224    2.246357
     14          1           0        0.017983    0.397309    1.949420
     15          1           0       -1.499983    1.291507    1.740407
     16          1           0        0.899579   -1.108234   -1.774064
     17          1           0        3.910462   -0.176831    1.060236
     18          1           0       -0.621076    0.813517   -1.794913
     19          1           0        1.119635    1.683402    0.197453
 ---------------------------------------------------------------------

 SCF Done:  E(RB3LYP) =  -423.136446462     A.U. after    1 cycles

 The electronic state is 1-A.
 Alpha  occ. eigenvalues --  -19.14681 -19.13792 -10.25814 -10.24250 -10.23856
 Alpha  occ. eigenvalues --  -10.19658 -10.19314 -10.17778 -10.17582  -1.05212
 Alpha  occ. eigenvalues --   -1.02250  -0.78908  -0.76994  -0.72038  -0.69428
 Alpha  occ. eigenvalues --   -0.65588  -0.56737  -0.54474  -0.50736  -0.50166
 Alpha  occ. eigenvalues --   -0.48236  -0.43679  -0.42705  -0.40920  -0.40620
 Alpha  occ. eigenvalues --   -0.38541  -0.38194  -0.35909  -0.35577  -0.31242
 Alpha  occ. eigenvalues --   -0.29196  -0.28235  -0.26398  -0.25635
 Alpha virt. eigenvalues --    0.01587   0.03315   0.08684   0.10357   0.11444
 Alpha virt. eigenvalues --    0.11614   0.11892   0.13986   0.16162   0.16862
 Alpha virt. eigenvalues --    0.17007   0.18949   0.19540   0.20003   0.20200

 Mulliken charges:
               1
     1  C   -0.437299
     2  C    0.373674
     3  C   -0.427164
     4  O   -0.325304
     5  C   -0.109998
     6  C    0.307820
     7  C   -0.431019
     8  C    0.037287
     9  O   -0.421722
    10  H    0.126204
    11  H    0.122597
    12  H    0.117653
    13  H    0.123715
    14  H    0.116705
    15  H    0.125188
    16  H    0.107390
    17  H    0.208165
    18  H    0.098260
    19  H    0.287847
 Sum of Mulliken charges =   0.00000

 Dipole moment (field-independent basis, Debye):
    X=              0.3223    Y=              0.3638    Z=              0.2799  Tot=              0.5608
 Quadrupole moment (field-independent basis, Debye-Ang):
   XX=            -45.9802   YY=            -60.1996   ZZ=            -50.6656
   XY=              0.2338   XZ=              2.5873   YZ=              2.5948

  Exact polarizability:  99.272   0.264  62.605   7.669   2.824  69.857
 Approx polarizability: 137.402   4.059  98.419  18.338   4.706 104.387

                      1                      2                      3
                      A                      A                      A
 Frequencies --     64.3928               130.7874               174.0807
 Red. masses --      4.0660                 4.0645                 1.3209
 Frc consts  --      0.0099                 0.0410                 0.0236
 IR Inten    --      1.5647                 1.1368                 0.1546

                      4                      5                      6
                      A                      A                      A
 Frequencies --    187.8651               215.7243               249.9356
 Red. masses --      2.0413                 1.3373                 2.6447
 Frc consts  --      0.0424                 0.0367                 0.0973
 IR Inten    --      2.2940                 0.4649                 5.0653

                      7                      8                      9
                      A                      A                      A
 Frequencies --    294.3448               333.3662               345.5246
 Red. masses --      2.5525                 1.8254                 1.5743
 Frc consts  --      0.1303                 0.1195                 0.1107
 IR Inten    --      2.1674                35.0141                45.5327

                     10                     11                     12
                      A                      A                      A
 Frequencies --    382.8129               417.3459               502.9027
 Red. masses --      3.3529                 2.9093                 4.1607
 Frc consts  --      0.2895                 0.2986                 0.6200
 IR Inten    --     15.0061                12.3345                 8.6988

                     13                     14                     15
                      A                      A                      A
 Frequencies --    548.6378               603.3277               646.4384
 Red. masses --      4.1617                 5.8663                 1.2450
 Frc consts  --      0.7381                 1.2581                 0.3065
 IR Inten    --      4.8110                 4.1460                39.3510

                     16                     17                     18
                      A                      A                      A
 Frequencies --    670.5109               713.4224               783.0408
 Red. masses --      1.2402                 3.9636                 3.2101
 Frc consts  --      0.3285                 1.1886                 1.1597
 IR Inten    --     36.1740                 2.1043                13.5390

                     19                     20                     21
                      A                      A                      A
 Frequencies --    859.7308               870.1138               937.5987
 Red. masses --      3.5953                 2.9277                 1.4282
 Frc consts  --      1.5657                 1.3059                 0.7397
 IR Inten    --     33.0520                 1.1095                 0.0584

                     22                     23                     24
                      A                      A                      A
 Frequencies --    980.1076               990.3177               999.7458
 Red. masses --      2.9275                 2.9294                 1.3525
 Frc consts  --      1.6569                 1.6927                 0.7965
 IR Inten    --     68.9158                33.6503                 1.2423

                     25                     26                     27
                      A                      A                      A
 Frequencies --   1047.0114              1159.2225              1166.6373
 Red. masses --      3.2691                 2.4193                 2.1159
 Frc consts  --      2.1114                 1.9155                 1.6967
 IR Inten    --     44.1337               133.9704                14.7985

                     28                     29                     30
                      A                      A                      A
 Frequencies --   1191.7350              1229.8450              1265.8474
 Red. masses --      2.2674                 1.8025                 1.6632
 Frc consts  --      1.8973                 1.6063                 1.5702
 IR Inten    --     10.4229                26.2527                 4.6124

                     31                     32                     33
                      A                      A                      A
 Frequencies --   1283.8747              1338.3702              1351.8398
 Red. masses --      2.1044                 1.6020                 1.4168
 Frc consts  --      2.0437                 1.6907                 1.5255
 IR Inten    --     11.1520                 5.5993                10.9867

                     34                     35                     36
                      A                      A                      A
 Frequencies --   1400.1312              1412.2439              1444.3145
 Red. masses --      1.3664                 1.2324                 1.2020
 Frc consts  --      1.5783                 1.4482                 1.4774
 IR Inten    --     13.3818                10.8440                44.6220

                     37                     38                     39
                      A                      A                      A
 Frequencies --   1471.8194              1483.6118              1493.0226
 Red. masses --      1.0527                 1.0498                 1.0754
 Frc consts  --      1.3436                 1.3615                 1.4124
 IR Inten    --      1.4443                 3.8475                 4.6100

                     40                     41                     42
                      A                      A                      A
 Frequencies --   1505.6114              2219.9663              3033.2831
 Red. masses --      1.0558                 5.9312                 1.0349
 Frc consts  --      1.4101                17.2221                 5.6100
 IR Inten    --      8.1338                 1.1437                14.6580

                     43                     44                     45
                      A                      A                      A
 Frequencies --   3036.7917              3043.0633              3082.9410
 Red. masses --      1.0840                 1.0353                 1.0873
 Frc consts  --      5.8902                 5.6484                 6.0886
 IR Inten    --     25.0655                11.1867                27.9412

                     46                     47                     48
                      A                      A                      A
 Frequencies --   3105.5843              3112.2883              3115.8458
 Red. masses --      1.1014                 1.1020                 1.1013
 Frc consts  --      6.2588                 6.2890                 6.2995
 IR Inten    --      6.1750                24.0386                24.4798

                     49                     50                     51
                      A                      A                      A
 Frequencies --   3123.2808              3497.7991              3756.4191
 Red. masses --      1.1015                 1.1612                 1.0655
 Frc consts  --      6.3306                 8.3707                 8.8580
 IR Inten    --     22.0197                69.8185                45.1012

 - Thermochemistry -
 -------------------
 Temperature   298.150 Kelvin.  Pressure   1.00000 Atm.
 Atom     1 has atomic number  6 and mass  12.00000

 Molecular mass:   126.06808 amu.
 Principal axes and moments of inertia in atomic units:
                           1         2         3
     Eigenvalues --   666.943541399.336861522.19001
           X            0.99997   0.00624   0.00514
           Y           -0.00669   0.99563   0.09310
           Z           -0.00453  -0.09313   0.99564
 This molecule is an asymmetric top.
 Rotational symmetry number  1.
 Warning -- assumption of classical behavior for rotation
           may cause significant error
 Rotational temperatures (Kelvin)      0.12987     0.06190     0.05690
 Rotational constants (GHZ):           2.70599     1.28971     1.18562
 Zero-point vibrational energy     408372.1 (Joules/Mol)
                                   97.60326 (Kcal/Mol)
 Warning -- explicit consideration of  14 degrees of freedom as
           vibrations may cause significant error
 Vibrational temperatures:     92.65   188.17   250.46   270.30   310.38
          (Kelvin)            359.60   423.50   479.64   497.13   550.78
                              600.47   723.56   789.37   868.05   930.08
                              964.71  1026.45  1126.62  1236.96  1251.90
                             1348.99  1410.15  1424.84  1438.41  1506.41
                             1667.86  1678.53  1714.64  1769.47  1821.27
                             1847.21  1925.61  1944.99  2014.47  2031.90
                             2078.04  2117.62  2134.58  2148.12  2166.24
                             3194.03  4364.21  4369.26  4378.28  4435.66
                             4468.24  4477.88  4483.00  4493.70  5032.55
                             5404.64

 Zero-point correction=                           0.155541 (Hartree/Particle)
 Thermal correction to Energy=                    0.165349
 Thermal correction to Enthalpy=                  0.166293
 Thermal correction to Gibbs Free Energy=         0.121325
 Sum of electronic and zero-point Energies=           -422.980906
 Sum of electronic and thermal Energies=              -422.971098
 Sum of electronic and thermal Enthalpies=            -422.970154
 Sum of electronic and thermal Free Energies=         -423.015122

                     E (Thermal)             CV                S
                      KCal/Mol        Cal/Mol-Kelvin    Cal/Mol-Kelvin
 Total                  103.758             36.793             94.643
 Electronic               0.000              0.000              0.000
 Translational            0.889              2.981             40.409
 Rotational               0.889              2.981             28.742
 Vibrational            101.980             30.831             25.492
 Vibration     1          0.597              1.971              4.318
 Vibration     2          0.612              1.923              2.934
 Vibration     3          0.627              1.874              2.391
 Vibration     4          0.633              1.857              2.249
 Vibration     5          0.645              1.817              1.995
 Vibration     6          0.663              1.763              1.731
 Vibration     7          0.689              1.684              1.449
 Vibration     8          0.715              1.609              1.244
 Vibration     9          0.724              1.584              1.187
 Vibration    10          0.752              1.507              1.028
 Vibration    11          0.780              1.433              0.901
 Vibration    12          0.858              1.244              0.651
 Vibration    13          0.904              1.143              0.547
 Vibration    14          0.962              1.025              0.444

 Optimization completed.
    -- Stationary point found.
 Normal termination of Gaussian 09 at Mon Jan 27 23:05:06 2020.
