 Gaussian 09, Revision D.01,
 Gaussian 09:  ES64L-G09RevD.01 24-Apr-2013

 -----------------------------
 # b3lyp 6-31G(2df,p) opt Freq
 -----------------------------

 -----
 titel
 -----
 Symbolic Z-matrix:
 Charge =  0 Multiplicity = 1

 SCF Done:  E(RB3LYP) =  -423.165332163     A.U. after   14 cycles
 Optimization completed.
    -- Stationary point found.
 Normal termination of Gaussian 09 at Tue Jan 28 14:01:05 2020.

 ----------------------------------------------------------------------
 #N Geom=AllCheck Guess=TCheck SCRF=Check GenChk RB3LYP/6-31G(2df,p) Fr
 eq
 ----------------------------------------------------------------------

 Structure from the checkpoint file:  "/scratch/puck/g09_05534d51-2085-4662-93b0-cd50441d95cc/Gau-32544.chk"
 -----
 titel
 -----
 Charge =  0 Multiplicity = 1

                         Standard orientation:
 ---------------------------------------------------------------------
 Center     Atomic      Atomic             Coordinates (Angstroms)
 Number     Number       Type             X           Y           Z
 ---------------------------------------------------------------------
      1          6           0        2.814433    0.131638   -0.715053
      2          8           0        1.974651   -0.500696    0.237217
      3          6           0        0.671663   -0.663341   -0.205356
      4          6           0       -0.316716   -1.023517    0.829455
      5          6           0       -1.655610   -1.340781    0.149746
      6          6           0       -1.658028    0.124537   -0.366839
      7          8           0       -2.492230    0.801472   -0.902222
      8          6           0       -0.330956    0.432260    0.249940
      9          6           0        0.118907    1.751246    0.805182
     10          1           0        2.477949    1.151402   -0.943217
     11          1           0        3.814359    0.171575   -0.278565
     12          1           0        2.854972   -0.442648   -1.651686
     13          1           0        0.595450   -1.085605   -1.211070
     14          1           0       -0.016731   -1.321905    1.825278
     15          1           0       -1.662921   -2.144690   -0.593291
     16          1           0       -2.481578   -1.492158    0.850487
     17          1           0        0.152977    2.510183    0.016069
     18          1           0       -0.570103    2.111062    1.576062
     19          1           0        1.114099    1.664324    1.247531
 ---------------------------------------------------------------------

 SCF Done:  E(RB3LYP) =  -423.165332163     A.U. after    1 cycles

 The electronic state is 1-A.
 Alpha  occ. eigenvalues --  -19.16326 -19.12515 -10.26323 -10.25508 -10.23719
 Alpha  occ. eigenvalues --  -10.20807 -10.20555 -10.19571 -10.18515  -1.05900
 Alpha  occ. eigenvalues --   -1.03518  -0.90230  -0.74375  -0.73055  -0.67493
 Alpha  occ. eigenvalues --   -0.62264  -0.59252  -0.51484  -0.51173  -0.48221
 Alpha  occ. eigenvalues --   -0.46263  -0.45455  -0.44276  -0.42794  -0.41210
 Alpha  occ. eigenvalues --   -0.40217  -0.39194  -0.37501  -0.35872  -0.35133
 Alpha  occ. eigenvalues --   -0.31668  -0.28284  -0.25675  -0.23354
 Alpha virt. eigenvalues --   -0.00799   0.07922   0.09956   0.10986   0.11264
 Alpha virt. eigenvalues --    0.12393   0.13399   0.14518   0.15799   0.16502
 Alpha virt. eigenvalues --    0.17371   0.17700   0.18931   0.19652   0.21273

 Mulliken charges:
               1
     1  C   -0.246877
     2  O   -0.244447
     3  C    0.086591
     4  C   -0.162076
     5  C   -0.368725
     6  C    0.355133
     7  O   -0.318542
     8  C    0.178437
     9  C   -0.507798
    10  H    0.120118
    11  H    0.134405
    12  H    0.116710
    13  H    0.090837
    14  H    0.113133
    15  H    0.118721
    16  H    0.135423
    17  H    0.134293
    18  H    0.128907
    19  H    0.135755
 Sum of Mulliken charges =   0.00000

 Dipole moment (field-independent basis, Debye):
    X=              2.4557    Y=             -0.9473    Z=              0.5671  Tot=              2.6925
 Quadrupole moment (field-independent basis, Debye-Ang):
   XX=            -57.4351   YY=            -53.0434   ZZ=            -52.4657
   XY=              5.8809   XZ=             -6.7043   YZ=              1.8679

  Exact polarizability:  91.774   1.842  77.172   0.358  -0.614  64.949
 Approx polarizability: 125.813  -6.475 115.321   7.062  -7.050 102.058

                      1                      2                      3
                      A                      A                      A
 Frequencies --     94.8735               113.2791               167.5529
 Red. masses --      5.0567                 2.4761                 1.0966
 Frc consts  --      0.0268                 0.0187                 0.0181
 IR Inten    --      5.1499                 2.6689                 0.0750

                      4                      5                      6
                      A                      A                      A
 Frequencies --    170.3518               199.5622               240.0192
 Red. masses --      1.3492                 1.8995                 2.8750
 Frc consts  --      0.0231                 0.0446                 0.0976
 IR Inten    --      0.7550                 1.5933                 3.0948

                      7                      8                      9
                      A                      A                      A
 Frequencies --    274.0259               300.4733               417.2545
 Red. masses --      3.1507                 3.2078                 3.2470
 Frc consts  --      0.1394                 0.1706                 0.3331
 IR Inten    --      1.4351                 4.7561                 0.4288

                     10                     11                     12
                      A                      A                      A
 Frequencies --    446.7667               541.5378               570.2172
 Red. masses --      3.8756                 3.2061                 3.0399
 Frc consts  --      0.4558                 0.5540                 0.5824
 IR Inten    --      1.6306                 3.3348                 5.8799

                     13                     14                     15
                      A                      A                      A
 Frequencies --    642.4645               689.4711               796.9789
 Red. masses --      3.5850                 3.7668                 4.3285
 Frc consts  --      0.8718                 1.0550                 1.6199
 IR Inten    --     24.7844                 5.8937                15.5956

                     16                     17                     18
                      A                      A                      A
 Frequencies --    804.0665               913.8654               950.3148
 Red. masses --      3.1111                 1.4719                 2.0637
 Frc consts  --      1.1851                 0.7243                 1.0981
 IR Inten    --     25.8842                10.1765                 3.3610

                     19                     20                     21
                      A                      A                      A
 Frequencies --    979.3683               995.8614              1037.2062
 Red. masses --      2.1740                 2.1899                 3.1092
 Frc consts  --      1.2286                 1.2796                 1.9707
 IR Inten    --     66.7038                15.7716                10.4701

                     22                     23                     24
                      A                      A                      A
 Frequencies --   1067.8363              1094.8064              1103.4685
 Red. masses --      1.4608                 1.6721                 1.6163
 Frc consts  --      0.9814                 1.1808                 1.1596
 IR Inten    --      8.5592                 9.3975                25.9768

                     25                     26                     27
                      A                      A                      A
 Frequencies --   1134.3534              1171.5168              1184.1278
 Red. masses --      1.9027                 1.9787                 1.3000
 Frc consts  --      1.4425                 1.6001                 1.0739
 IR Inten    --     13.6097                35.1622                 5.0767

                     28                     29                     30
                      A                      A                      A
 Frequencies --   1208.0571              1218.9376              1252.0350
 Red. masses --      1.7055                 1.8023                 2.1098
 Frc consts  --      1.4665                 1.5778                 1.9486
 IR Inten    --     53.8606                26.2065                22.7868

                     31                     32                     33
                      A                      A                      A
 Frequencies --   1289.1084              1362.6065              1407.4820
 Red. masses --      1.9585                 2.2567                 1.4613
 Frc consts  --      1.9176                 2.4687                 1.7056
 IR Inten    --     30.8297                16.6352                 0.9733

                     34                     35                     36
                      A                      A                      A
 Frequencies --   1420.8436              1460.1602              1486.3014
 Red. masses --      1.8856                 1.1515                 1.1224
 Frc consts  --      2.2428                 1.4464                 1.4609
 IR Inten    --     47.7910                 6.5371                 3.5470

                     37                     38                     39
                      A                      A                      A
 Frequencies --   1487.6170              1490.3012              1495.5334
 Red. masses --      1.1337                 1.0471                 1.0521
 Frc consts  --      1.4782                 1.3702                 1.3864
 IR Inten    --      8.4423                 8.3166                 6.4246

                     40                     41                     42
                      A                      A                      A
 Frequencies --   1509.2209              1868.8311              2996.4444
 Red. masses --      1.0690                12.6671                 1.0361
 Frc consts  --      1.4345                26.0657                 5.4813
 IR Inten    --      4.2254               340.8083                49.1283

                     43                     44                     45
                      A                      A                      A
 Frequencies --   3036.4103              3051.3603              3053.9821
 Red. masses --      1.0362                 1.0595                 1.1007
 Frc consts  --      5.6290                 5.8123                 6.0486
 IR Inten    --     23.1218                22.1989                61.0996

                     46                     47                     48
                      A                      A                      A
 Frequencies --   3057.9238              3094.7578              3109.4589
 Red. masses --      1.0890                 1.1008                 1.1047
 Frc consts  --      5.9997                 6.2116                 6.2934
 IR Inten    --     14.3915                16.3231                10.1024

                     49                     50                     51
                      A                      A                      A
 Frequencies --   3124.4802              3129.3407              3210.0706
 Red. masses --      1.0999                 1.0990                 1.0932
 Frc consts  --      6.3264                 6.3411                 6.6374
 IR Inten    --     10.2504                21.0190                 2.9407

 - Thermochemistry -
 -------------------
 Temperature   298.150 Kelvin.  Pressure   1.00000 Atm.
 Atom     1 has atomic number  6 and mass  12.00000

 Molecular mass:   126.06808 amu.
 Principal axes and moments of inertia in atomic units:
                           1         2         3
     Eigenvalues --   608.624301512.696561746.61318
           X            0.99877   0.04107  -0.02768
           Y           -0.03949   0.99768   0.05537
           Z            0.02989  -0.05420   0.99808
 This molecule is an asymmetric top.
 Rotational symmetry number  1.
 Warning -- assumption of classical behavior for rotation
           may cause significant error
 Rotational temperatures (Kelvin)      0.14231     0.05726     0.04959
 Rotational constants (GHZ):           2.96528     1.19306     1.03328
 Zero-point vibrational energy     412250.4 (Joules/Mol)
                                   98.53021 (Kcal/Mol)
 Warning -- explicit consideration of  12 degrees of freedom as
           vibrations may cause significant error
 Vibrational temperatures:    136.50   162.98   241.07   245.10   287.13
          (Kelvin)            345.33   394.26   432.31   600.34   642.80
                              779.15   820.41   924.36   991.99  1146.67
                             1156.87  1314.85  1367.29  1409.09  1432.82
                             1492.31  1536.38  1575.18  1587.64  1632.08
                             1685.55  1703.69  1738.12  1753.78  1801.40
                             1854.74  1960.48  2025.05  2044.27  2100.84
                             2138.45  2140.35  2144.21  2151.74  2171.43
                             2688.83  4311.21  4368.71  4390.22  4393.99
                             4399.66  4452.66  4473.81  4495.42  4502.42
                             4618.57

 Zero-point correction=                           0.157018 (Hartree/Particle)
 Thermal correction to Energy=                    0.166259
 Thermal correction to Enthalpy=                  0.167203
 Thermal correction to Gibbs Free Energy=         0.123070
 Sum of electronic and zero-point Energies=           -423.008314
 Sum of electronic and thermal Energies=              -422.999073
 Sum of electronic and thermal Enthalpies=            -422.998129
 Sum of electronic and thermal Free Energies=         -423.042263

                     E (Thermal)             CV                S
                      KCal/Mol        Cal/Mol-Kelvin    Cal/Mol-Kelvin
 Total                  104.329             33.905             92.886
 Electronic               0.000              0.000              0.000
 Translational            0.889              2.981             40.409
 Rotational               0.889              2.981             28.866
 Vibrational            102.551             27.943             23.612
 Vibration     1          0.603              1.953              3.557
 Vibration     2          0.607              1.938              3.212
 Vibration     3          0.624              1.882              2.463
 Vibration     4          0.625              1.879              2.432
 Vibration     5          0.638              1.840              2.137
 Vibration     6          0.657              1.779              1.803
 Vibration     7          0.676              1.721              1.571
 Vibration     8          0.693              1.673              1.414
 Vibration     9          0.780              1.433              0.901
 Vibration    10          0.806              1.368              0.806
 Vibration    11          0.897              1.158              0.562
 Vibration    12          0.926              1.096              0.504

 Normal termination of Gaussian 09 at Tue Jan 28 14:41:37 2020.
