 Gaussian 09, Revision D.01,
 Gaussian 09:  ES64L-G09RevD.01 24-Apr-2013

 -----------------------------
 # b3lyp 6-31G(2df,p) opt Freq
 -----------------------------

 -----
 titel
 -----
 Symbolic Z-matrix:
 Charge =  0 Multiplicity = 1

 SCF Done:  E(RB3LYP) =  -423.203623969     A.U. after   14 cycles
 Optimization completed.
    -- Stationary point found.
 Normal termination of Gaussian 09 at Mon Jan 27 10:18:07 2020.

 ----------------------------------------------------------------------
 #N Geom=AllCheck Guess=TCheck SCRF=Check GenChk RB3LYP/6-31G(2df,p) Fr
 eq
 ----------------------------------------------------------------------

 Structure from the checkpoint file:  "/scratch/puck/g09_a5f1cbf2-8bc8-4dec-8eab-5820ebafc3be/Gau-66920.chk"
 -----
 titel
 -----
 Charge =  0 Multiplicity = 1

                         Standard orientation:
 ---------------------------------------------------------------------
 Center     Atomic      Atomic             Coordinates (Angstroms)
 Number     Number       Type             X           Y           Z
 ---------------------------------------------------------------------
      1          6           0       -3.012715   -0.760070   -0.294436
      2          8           0       -1.688239   -0.737142    0.184605
      3          6           0       -0.926983    0.380006   -0.242152
      4          6           0       -1.254462    1.652263    0.553051
      5          6           0        0.508891   -0.020523   -0.092168
      6          6           0        1.117338   -1.171255    0.296951
      7          6           0        2.528975   -0.923130    0.222942
      8          6           0        2.665818    0.356098   -0.206672
      9          8           0        1.441950    0.923798   -0.403088
     10          1           0       -3.047262   -0.726070   -1.394593
     11          1           0       -3.456882   -1.699761    0.042664
     12          1           0       -3.618701    0.070244    0.095600
     13          1           0       -1.131867    0.574325   -1.310641
     14          1           0       -0.592668    2.466028    0.245775
     15          1           0       -2.287051    1.969570    0.382538
     16          1           0       -1.112299    1.468274    1.621585
     17          1           0        0.616738   -2.076446    0.596807
     18          1           0        3.327372   -1.609337    0.458532
     19          1           0        3.511757    0.989588   -0.415501
 ---------------------------------------------------------------------

 SCF Done:  E(RB3LYP) =  -423.203623969     A.U. after    1 cycles

 The electronic state is 1-A.
 Alpha  occ. eigenvalues --  -19.19655 -19.14270 -10.24355 -10.22650 -10.22233
 Alpha  occ. eigenvalues --  -10.22055 -10.17562 -10.17425 -10.16919  -1.09938
 Alpha  occ. eigenvalues --   -1.03617  -0.79030  -0.78360  -0.71581  -0.68776
 Alpha  occ. eigenvalues --   -0.61387  -0.58699  -0.54113  -0.52426  -0.49295
 Alpha  occ. eigenvalues --   -0.45924  -0.45611  -0.44141  -0.41024  -0.40725
 Alpha  occ. eigenvalues --   -0.39716  -0.38821  -0.37480  -0.36581  -0.35235
 Alpha  occ. eigenvalues --   -0.31577  -0.26848  -0.25876  -0.21271
 Alpha virt. eigenvalues --    0.02254   0.07785   0.09650   0.11176   0.13149
 Alpha virt. eigenvalues --    0.13749   0.14946   0.15350   0.16111   0.17093
 Alpha virt. eigenvalues --    0.17390   0.17976   0.20236   0.21184   0.22307

 Mulliken charges:
               1
     1  C   -0.233226
     2  O   -0.241910
     3  C    0.017669
     4  C   -0.401275
     5  C    0.357444
     6  C   -0.261042
     7  C   -0.176264
     8  C   -0.024601
     9  O   -0.191516
    10  H    0.106798
    11  H    0.129335
    12  H    0.109020
    13  H    0.079084
    14  H    0.133600
    15  H    0.113336
    16  H    0.128790
    17  H    0.116987
    18  H    0.108604
    19  H    0.129167
 Sum of Mulliken charges =   0.00000

 Dipole moment (field-independent basis, Debye):
    X=             -0.7203    Y=              0.3279    Z=             -0.4387  Tot=              0.9048
 Quadrupole moment (field-independent basis, Debye-Ang):
   XX=            -45.1391   YY=            -52.2407   ZZ=            -54.7670
   XY=             -0.3016   XZ=              1.3684   YZ=             -0.5202

  Exact polarizability: 103.768  -0.957  78.629   1.031  -5.383  54.171
 Approx polarizability: 134.871  -1.210 126.642   1.723 -15.683  84.987

                      1                      2                      3
                      A                      A                      A
 Frequencies --     45.8347                66.3803               149.9270
 Red. masses --      3.7033                 2.2540                 2.3404
 Frc consts  --      0.0046                 0.0059                 0.0310
 IR Inten    --      0.8187                 2.6130                 0.7387

                      4                      5                      6
                      A                      A                      A
 Frequencies --    160.1103               204.0593               237.3119
 Red. masses --      3.1907                 1.2655                 1.2189
 Frc consts  --      0.0482                 0.0310                 0.0404
 IR Inten    --      1.9820                 0.9424                 0.4250

                      7                      8                      9
                      A                      A                      A
 Frequencies --    319.6054               367.7406               423.8078
 Red. masses --      3.4023                 3.9996                 4.3070
 Frc consts  --      0.2048                 0.3187                 0.4558
 IR Inten    --      0.0648                 0.9932                 2.3577

                     10                     11                     12
                      A                      A                      A
 Frequencies --    472.3957               613.4792               662.1895
 Red. masses --      3.1704                 3.6714                 4.1880
 Frc consts  --      0.4169                 0.8141                 1.0820
 IR Inten    --      7.0274                 3.9052                 2.3903

                     13                     14                     15
                      A                      A                      A
 Frequencies --    730.3197               744.5641               814.1892
 Red. masses --      1.6400                 1.8561                 1.2223
 Frc consts  --      0.5154                 0.6063                 0.4774
 IR Inten    --     14.0563                18.9967                23.9998

                     16                     17                     18
                      A                      A                      A
 Frequencies --    854.6650               863.8118               901.5933
 Red. masses --      1.3135                 2.3086                 5.9508
 Frc consts  --      0.5653                 1.0149                 2.8500
 IR Inten    --      2.3231                 2.7459                 4.4357

                     19                     20                     21
                      A                      A                      A
 Frequencies --    946.9750              1023.6279              1030.9551
 Red. masses --      3.1732                 1.4907                 2.0926
 Frc consts  --      1.6766                 0.9203                 1.3105
 IR Inten    --     24.2021                36.2320                 1.5001

                     22                     23                     24
                      A                      A                      A
 Frequencies --   1074.6931              1105.1042              1107.7512
 Red. masses --      2.0147                 2.1822                 3.0874
 Frc consts  --      1.3710                 1.5702                 2.2322
 IR Inten    --      3.9098                 7.6702                 2.5126

                     25                     26                     27
                      A                      A                      A
 Frequencies --   1157.4115              1178.8049              1183.4632
 Red. masses --      3.8701                 1.6574                 1.2944
 Frc consts  --      3.0545                 1.3569                 1.0681
 IR Inten    --    114.9573                29.4794                 3.2900

                     28                     29                     30
                      A                      A                      A
 Frequencies --   1223.9586              1234.7948              1246.1847
 Red. masses --      1.8957                 2.8640                 1.6556
 Frc consts  --      1.6732                 2.5729                 1.5149
 IR Inten    --     84.1286                 0.8972                 3.4951

                     31                     32                     33
                      A                      A                      A
 Frequencies --   1353.8529              1370.6583              1394.3960
 Red. masses --      1.3532                 1.5079                 1.2751
 Frc consts  --      1.4614                 1.6691                 1.4607
 IR Inten    --     18.5552                52.3351                 8.6617

                     34                     35                     36
                      A                      A                      A
 Frequencies --   1419.7319              1477.9151              1483.2027
 Red. masses --      2.2785                 1.1187                 1.0493
 Frc consts  --      2.7059                 1.4397                 1.3600
 IR Inten    --      7.2300                 0.8567                 4.9785

                     37                     38                     39
                      A                      A                      A
 Frequencies --   1492.9162              1499.3001              1512.5057
 Red. masses --      1.0780                 1.0652                 1.0720
 Frc consts  --      1.4157                 1.4108                 1.4449
 IR Inten    --      2.0659                 2.2944                 9.3003

                     40                     41                     42
                      A                      A                      A
 Frequencies --   1543.0224              1639.1403              2934.6108
 Red. masses --      4.8629                 6.7831                 1.0805
 Frc consts  --      6.8217                10.7376                 5.4823
 IR Inten    --     11.0625                 3.1949                38.0043

                     43                     44                     45
                      A                      A                      A
 Frequencies --   2979.3445              3029.0185              3047.0121
 Red. masses --      1.0384                 1.0990                 1.0360
 Frc consts  --      5.4305                 5.9410                 5.6670
 IR Inten    --     63.7256                44.7481                27.6582

                     46                     47                     48
                      A                      A                      A
 Frequencies --   3114.4604              3121.4657              3131.1937
 Red. masses --      1.0964                 1.1021                 1.1022
 Frc consts  --      6.2661                 6.3270                 6.3667
 IR Inten    --     28.2035                28.1146                13.3080

                     49                     50                     51
                      A                      A                      A
 Frequencies --   3253.9474              3281.0068              3287.8688
 Red. masses --      1.0894                 1.0967                 1.1064
 Frc consts  --      6.7964                 6.9556                 7.0465
 IR Inten    --      3.3462                 1.3326                 0.6754

 - Thermochemistry -
 -------------------
 Temperature   298.150 Kelvin.  Pressure   1.00000 Atm.
 Atom     1 has atomic number  6 and mass  12.00000

 Molecular mass:   126.06808 amu.
 Principal axes and moments of inertia in atomic units:
                           1         2         3
     Eigenvalues --   478.437511719.398442068.62598
           X            0.99993  -0.01054   0.00617
           Y            0.01045   0.99983   0.01546
           Z           -0.00633  -0.01540   0.99986
 This molecule is an asymmetric top.
 Rotational symmetry number  1.
 Warning -- assumption of classical behavior for rotation
           may cause significant error
 Rotational temperatures (Kelvin)      0.18103     0.05037     0.04187
 Rotational constants (GHZ):           3.77216     1.04964     0.87243
 Zero-point vibrational energy     415775.8 (Joules/Mol)
                                   99.37279 (Kcal/Mol)
 Warning -- explicit consideration of  11 degrees of freedom as
           vibrations may cause significant error
 Vibrational temperatures:     65.95    95.51   215.71   230.36   293.60
          (Kelvin)            341.44   459.84   529.10   609.76   679.67
                              882.66   952.74  1050.77  1071.26  1171.44
                             1229.67  1242.83  1297.19  1362.48  1472.77
                             1483.31  1546.24  1590.00  1593.80  1665.25
                             1696.04  1702.74  1761.00  1776.59  1792.98
                             1947.89  1972.07  2006.22  2042.67  2126.39
                             2134.00  2147.97  2157.16  2176.16  2220.06
                             2358.35  4222.25  4286.61  4358.08  4383.97
                             4481.01  4491.09  4505.08  4681.70  4720.63
                             4730.50

 Zero-point correction=                           0.158361 (Hartree/Particle)
 Thermal correction to Energy=                    0.167521
 Thermal correction to Enthalpy=                  0.168465
 Thermal correction to Gibbs Free Energy=         0.123528
 Sum of electronic and zero-point Energies=           -423.045263
 Sum of electronic and thermal Energies=              -423.036103
 Sum of electronic and thermal Enthalpies=            -423.035159
 Sum of electronic and thermal Free Energies=         -423.080096

                     E (Thermal)             CV                S
                      KCal/Mol        Cal/Mol-Kelvin    Cal/Mol-Kelvin
 Total                  105.121             33.043             94.578
 Electronic               0.000              0.000              0.000
 Translational            0.889              2.981             40.409
 Rotational               0.889              2.981             28.922
 Vibrational            103.343             27.081             25.248
 Vibration     1          0.595              1.979              4.989
 Vibration     2          0.598              1.970              4.258
 Vibration     3          0.618              1.903              2.673
 Vibration     4          0.622              1.891              2.548
 Vibration     5          0.640              1.834              2.096
 Vibration     6          0.656              1.784              1.823
 Vibration     7          0.706              1.636              1.312
 Vibration     8          0.740              1.539              1.089
 Vibration     9          0.786              1.418              0.879
 Vibration    10          0.829              1.311              0.731
 Vibration    11          0.973              1.003              0.427

 Optimization completed.
    -- Stationary point found.
 Normal termination of Gaussian 09 at Mon Jan 27 10:54:43 2020.
