 Gaussian 09, Revision D.01,
 Gaussian 09:  ES64L-G09RevD.01 24-Apr-2013

 -----------------------------
 # b3lyp 6-31G(2df,p) opt Freq
 -----------------------------

 -----
 titel
 -----
 Symbolic Z-matrix:
 Charge =  0 Multiplicity = 1

 SCF Done:  E(RB3LYP) =  -423.187846789     A.U. after   14 cycles
 Optimization completed.
    -- Stationary point found.
 Normal termination of Gaussian 09 at Mon Jan 27 13:07:50 2020.

 ----------------------------------------------------------------------
 #N Geom=AllCheck Guess=TCheck SCRF=Check GenChk RB3LYP/6-31G(2df,p) Fr
 eq
 ----------------------------------------------------------------------

 Structure from the checkpoint file:  "/scratch/puck/g09_7bfcb613-04ae-46d3-b0cd-8d1bc22744dd/Gau-155987.chk"
 -----
 titel
 -----
 Charge =  0 Multiplicity = 1

                         Standard orientation:
 ---------------------------------------------------------------------
 Center     Atomic      Atomic             Coordinates (Angstroms)
 Number     Number       Type             X           Y           Z
 ---------------------------------------------------------------------
      1          8           0        2.583328   -0.207041    0.398783
      2          6           0        1.463336   -0.135975   -0.050625
      3          6           0        0.884172    1.232198   -0.457643
      4          8           0       -0.287712    1.652321    0.215856
      5          6           0       -1.412880    0.790810    0.237818
      6          6           0       -1.243884   -0.449536    1.161947
      7          6           0       -0.872284   -1.284919   -0.099326
      8          6           0       -1.564604   -0.187714   -0.959584
      9          6           0        0.639793   -1.398695   -0.314434
     10          1           0        1.645225    1.980373   -0.229424
     11          1           0        0.730904    1.219122   -1.549995
     12          1           0       -2.259568    1.447302    0.450153
     13          1           0       -0.499184   -0.363543    1.958107
     14          1           0       -2.197686   -0.757312    1.598651
     15          1           0       -1.313602   -2.282297   -0.165656
     16          1           0       -1.121467    0.085668   -1.920381
     17          1           0       -2.620206   -0.417576   -1.124853
     18          1           0        1.067592   -2.184565    0.314998
     19          1           0        0.841161   -1.686421   -1.357622
 ---------------------------------------------------------------------

 SCF Done:  E(RB3LYP) =  -423.187846789     A.U. after    1 cycles

 The electronic state is 1-A.
 Alpha  occ. eigenvalues --  -19.14953 -19.13419 -10.27102 -10.24015 -10.23632
 Alpha  occ. eigenvalues --  -10.20264 -10.19584 -10.19067 -10.18529  -1.04888
 Alpha  occ. eigenvalues --   -1.03493  -0.85405  -0.76957  -0.70499  -0.67252
 Alpha  occ. eigenvalues --   -0.64408  -0.55171  -0.53696  -0.50773  -0.49651
 Alpha  occ. eigenvalues --   -0.46856  -0.45554  -0.43495  -0.42442  -0.41788
 Alpha  occ. eigenvalues --   -0.38902  -0.38136  -0.36333  -0.35736  -0.33030
 Alpha  occ. eigenvalues --   -0.31840  -0.29663  -0.27120  -0.23278
 Alpha virt. eigenvalues --   -0.02420   0.07281   0.08397   0.10859   0.12856
 Alpha virt. eigenvalues --    0.12975   0.14205   0.15629   0.15790   0.16981
 Alpha virt. eigenvalues --    0.18122   0.18629   0.19318   0.20251   0.22318

 Mulliken charges:
               1
     1  O   -0.293613
     2  C    0.359404
     3  C   -0.163968
     4  O   -0.263698
     5  C    0.135307
     6  C   -0.246438
     7  C   -0.019544
     8  C   -0.265550
     9  C   -0.313549
    10  H    0.131877
    11  H    0.101683
    12  H    0.085811
    13  H    0.112454
    14  H    0.102968
    15  H    0.075628
    16  H    0.102436
    17  H    0.107368
    18  H    0.127799
    19  H    0.123623
 Sum of Mulliken charges =   0.00000

 Dipole moment (field-independent basis, Debye):
    X=             -2.6189    Y=             -1.1670    Z=             -1.4114  Tot=              3.1957
 Quadrupole moment (field-independent basis, Debye-Ang):
   XX=            -58.5001   YY=            -54.2064   ZZ=            -51.9024
   XY=              1.7581   XZ=             -2.8318   YZ=             -0.7462

  Exact polarizability:  84.337   1.306  72.644   0.891  -0.821  66.442
 Approx polarizability: 121.252   0.962 104.132   5.018   0.217 102.822

                      1                      2                      3
                      A                      A                      A
 Frequencies --     65.7331               172.3187               291.2169
 Red. masses --      4.5565                 3.3163                 2.7907
 Frc consts  --      0.0116                 0.0580                 0.1394
 IR Inten    --      2.0700                 4.7476                 1.7073

                      4                      5                      6
                      A                      A                      A
 Frequencies --    298.9179               349.2317               411.1322
 Red. masses --      2.8960                 3.2643                 2.2164
 Frc consts  --      0.1525                 0.2346                 0.2207
 IR Inten    --      3.4008                 3.1090                 1.6632

                      7                      8                      9
                      A                      A                      A
 Frequencies --    458.2608               474.9833               486.0713
 Red. masses --      2.4542                 3.1913                 2.5832
 Frc consts  --      0.3037                 0.4242                 0.3596
 IR Inten    --      1.9401                11.7677                 0.2713

                     10                     11                     12
                      A                      A                      A
 Frequencies --    628.0619               765.3091               786.3702
 Red. masses --      4.8531                 1.7662                 2.4645
 Frc consts  --      1.1279                 0.6095                 0.8979
 IR Inten    --      1.5702                 1.8684                 1.8719

                     13                     14                     15
                      A                      A                      A
 Frequencies --    803.1567               821.8972               866.4345
 Red. masses --      2.8684                 2.0643                 2.4986
 Frc consts  --      1.0902                 0.8216                 1.1051
 IR Inten    --     19.4474                 2.6259                 0.4259

                     16                     17                     18
                      A                      A                      A
 Frequencies --    883.5677               918.8679               956.6499
 Red. masses --      4.8238                 2.1837                 1.9280
 Frc consts  --      2.2188                 1.0863                 1.0396
 IR Inten    --      1.8125                 1.6849                 5.3927

                     19                     20                     21
                      A                      A                      A
 Frequencies --    970.3776              1036.7294              1067.3807
 Red. masses --      2.0585                 1.6466                 2.0190
 Frc consts  --      1.1420                 1.0428                 1.3553
 IR Inten    --     19.9376                 6.2236                14.3315

                     22                     23                     24
                      A                      A                      A
 Frequencies --   1082.3198              1095.5659              1131.2783
 Red. masses --      2.9367                 1.4183                 2.0253
 Frc consts  --      2.0269                 1.0030                 1.5272
 IR Inten    --      9.4215                 1.1513                40.7309

                     25                     26                     27
                      A                      A                      A
 Frequencies --   1158.5516              1192.5038              1220.9433
 Red. masses --      1.2946                 1.6812                 2.0865
 Frc consts  --      1.0238                 1.4086                 1.8326
 IR Inten    --      2.9109                 7.1004                69.6751

                     28                     29                     30
                      A                      A                      A
 Frequencies --   1241.6990              1259.2279              1274.7818
 Red. masses --      1.8511                 1.3671                 1.7329
 Frc consts  --      1.6816                 1.2772                 1.6592
 IR Inten    --     33.5126                 2.9838                 3.9972

                     31                     32                     33
                      A                      A                      A
 Frequencies --   1285.1653              1300.3359              1321.7340
 Red. masses --      1.2200                 1.5708                 1.6826
 Frc consts  --      1.1873                 1.5649                 1.7319
 IR Inten    --     14.3554                 1.9899                 1.3566

                     34                     35                     36
                      A                      A                      A
 Frequencies --   1370.2571              1378.2523              1395.5086
 Red. masses --      1.3738                 1.3272                 1.2957
 Frc consts  --      1.5198                 1.4854                 1.4867
 IR Inten    --      7.9255                 5.1266                 6.3262

                     37                     38                     39
                      A                      A                      A
 Frequencies --   1451.2622              1464.7565              1484.5931
 Red. masses --      1.0827                 1.0898                 1.0987
 Frc consts  --      1.3435                 1.3776                 1.4267
 IR Inten    --      4.9417                 5.2624                 9.6724

                     40                     41                     42
                      A                      A                      A
 Frequencies --   1500.9013              1806.9699              2964.3343
 Red. masses --      1.1008                11.5931                 1.0694
 Frc consts  --      1.4610                22.3024                 5.5367
 IR Inten    --      3.1797               151.0730                31.3504

                     43                     44                     45
                      A                      A                      A
 Frequencies --   3005.5592              3056.4152              3062.4036
 Red. masses --      1.0679                 1.0593                 1.0630
 Frc consts  --      5.6837                 5.8301                 5.8737
 IR Inten    --     15.6452                25.1519                19.4186

                     46                     47                     48
                      A                      A                      A
 Frequencies --   3074.4527              3085.3623              3090.8604
 Red. masses --      1.0850                 1.0885                 1.0919
 Frc consts  --      6.0426                 6.1053                 6.1461
 IR Inten    --     35.1417                41.6367                12.5600

                     49                     50                     51
                      A                      A                      A
 Frequencies --   3113.2614              3115.1268              3119.6145
 Red. masses --      1.1069                 1.1054                 1.0930
 Frc consts  --      6.3211                 6.3202                 6.2672
 IR Inten    --      8.4369                52.8969                 6.9698

 - Thermochemistry -
 -------------------
 Temperature   298.150 Kelvin.  Pressure   1.00000 Atm.
 Atom     1 has atomic number  8 and mass  15.99491

 Molecular mass:   126.06808 amu.
 Principal axes and moments of inertia in atomic units:
                           1         2         3
     Eigenvalues --   674.120101090.387811399.66503
           X            0.99959   0.02606  -0.01200
           Y           -0.02624   0.99954  -0.01510
           Z            0.01160   0.01541   0.99981
 This molecule is an asymmetric top.
 Rotational symmetry number  1.
 Warning -- assumption of classical behavior for rotation
           may cause significant error
 Rotational temperatures (Kelvin)      0.12848     0.07943     0.06188
 Rotational constants (GHZ):           2.67718     1.65514     1.28941
 Zero-point vibrational energy     422381.5 (Joules/Mol)
                                  100.95159 (Kcal/Mol)
 Warning -- explicit consideration of   9 degrees of freedom as
           vibrations may cause significant error
 Vibrational temperatures:     94.58   247.93   419.00   430.08   502.47
          (Kelvin)            591.53   659.33   683.39   699.35   903.64
                             1101.11  1131.41  1155.56  1182.53  1246.60
                             1271.26  1322.04  1376.40  1396.16  1491.62
                             1535.72  1557.21  1576.27  1627.66  1666.90
                             1715.74  1756.66  1786.53  1811.75  1834.12
                             1849.06  1870.89  1901.68  1971.49  1983.00
                             2007.82  2088.04  2107.46  2136.00  2159.46
                             2599.82  4265.01  4324.32  4397.49  4406.11
                             4423.45  4439.14  4447.05  4479.28  4481.97
                             4488.42

 Zero-point correction=                           0.160877 (Hartree/Particle)
 Thermal correction to Energy=                    0.168393
 Thermal correction to Enthalpy=                  0.169337
 Thermal correction to Gibbs Free Energy=         0.128781
 Sum of electronic and zero-point Energies=           -423.026970
 Sum of electronic and thermal Energies=              -423.019454
 Sum of electronic and thermal Enthalpies=            -423.018510
 Sum of electronic and thermal Free Energies=         -423.059066

                     E (Thermal)             CV                S
                      KCal/Mol        Cal/Mol-Kelvin    Cal/Mol-Kelvin
 Total                  105.668             29.885             85.358
 Electronic               0.000              0.000              0.000
 Translational            0.889              2.981             40.409
 Rotational               0.889              2.981             28.422
 Vibrational            103.891             23.923             16.528
 Vibration     1          0.597              1.971              4.277
 Vibration     2          0.626              1.877              2.410
 Vibration     3          0.687              1.690              1.467
 Vibration     4          0.692              1.676              1.423
 Vibration     5          0.726              1.577              1.170
 Vibration     6          0.775              1.446              0.923
 Vibration     7          0.816              1.343              0.771
 Vibration     8          0.832              1.306              0.724
 Vibration     9          0.842              1.281              0.694

 Optimization completed.
    -- Stationary point found.
 Normal termination of Gaussian 09 at Mon Jan 27 13:54:29 2020.
