 Gaussian 09, Revision D.01,
 Gaussian 09:  ES64L-G09RevD.01 24-Apr-2013

 -----------------------------
 # b3lyp 6-31G(2df,p) opt Freq
 -----------------------------

 -----
 titel
 -----
 Symbolic Z-matrix:
 Charge =  0 Multiplicity = 1

 SCF Done:  E(RB3LYP) =  -423.099068969     A.U. after   13 cycles
 Optimization completed.
    -- Stationary point found.
 Normal termination of Gaussian 09 at Tue Jan 28 09:26:34 2020.

 ----------------------------------------------------------------------
 #N Geom=AllCheck Guess=TCheck SCRF=Check GenChk RB3LYP/6-31G(2df,p) Fr
 eq
 ----------------------------------------------------------------------

 Structure from the checkpoint file:  "/scratch/puck/g09_bc3aaf67-1d31-4f44-8235-6db821411569/Gau-105171.chk"
 -----
 titel
 -----
 Charge =  0 Multiplicity = 1

                         Standard orientation:
 ---------------------------------------------------------------------
 Center     Atomic      Atomic             Coordinates (Angstroms)
 Number     Number       Type             X           Y           Z
 ---------------------------------------------------------------------
      1          8           0       -2.906059   -0.775101    0.052249
      2          6           0       -1.947720   -0.106382   -0.760102
      3          6           0       -0.671713    0.181903   -0.031475
      4          6           0       -0.426669    1.464823    0.730124
      5          6           0        0.466938    1.108495   -0.428536
      6          6           0        1.482419   -0.038535   -0.126735
      7          8           0        2.504171   -0.332967   -1.009581
      8          6           0        1.436246   -0.551976    1.284609
      9          6           0        0.355091   -0.945254    0.292579
     10          1           0       -3.017973   -0.247451    0.850126
     11          1           0       -1.764522   -0.781712   -1.603752
     12          1           0       -2.352241    0.831970   -1.174363
     13          1           0       -1.139691    2.255684    0.509179
     14          1           0       -0.071844    1.484686    1.754372
     15          1           0        0.544077    1.715923   -1.321947
     16          1           0        3.273412    0.195764   -0.767020
     17          1           0        2.149448   -1.353424    1.455277
     18          1           0        1.255105    0.064745    2.158854
     19          1           0        0.171784   -1.980083    0.035142
 ---------------------------------------------------------------------

 SCF Done:  E(RB3LYP) =  -423.099068969     A.U. after    1 cycles

 The electronic state is 1-A.
 Alpha  occ. eigenvalues --  -19.14883 -19.12930 -10.24181 -10.22614 -10.19851
 Alpha  occ. eigenvalues --  -10.19415 -10.19259 -10.18933 -10.18723  -1.03499
 Alpha  occ. eigenvalues --   -1.01010  -0.91476  -0.80445  -0.69978  -0.64724
 Alpha  occ. eigenvalues --   -0.61142  -0.56889  -0.53647  -0.52673  -0.49855
 Alpha  occ. eigenvalues --   -0.48375  -0.45234  -0.42832  -0.42272  -0.39780
 Alpha  occ. eigenvalues --   -0.39088  -0.35986  -0.34935  -0.33602  -0.30556
 Alpha  occ. eigenvalues --   -0.28834  -0.27363  -0.25622  -0.21333
 Alpha virt. eigenvalues --    0.07349   0.07854   0.09371   0.09927   0.11186
 Alpha virt. eigenvalues --    0.12875   0.13402   0.15227   0.16187   0.16456
 Alpha virt. eigenvalues --    0.18838   0.19799   0.21045   0.21375   0.21873

 Mulliken charges:
               1
     1  O   -0.415299
     2  C   -0.165293
     3  C    0.334209
     4  C   -0.367810
     5  C   -0.195122
     6  C    0.396814
     7  O   -0.454940
     8  C   -0.374510
     9  C   -0.166770
    10  H    0.279855
    11  H    0.112284
    12  H    0.082175
    13  H    0.111128
    14  H    0.114048
    15  H    0.095909
    16  H    0.284944
    17  H    0.117545
    18  H    0.107454
    19  H    0.103380
 Sum of Mulliken charges =   0.00000

 Dipole moment (field-independent basis, Debye):
    X=              1.1985    Y=              2.0188    Z=              1.1319  Tot=              2.6064
 Quadrupole moment (field-independent basis, Debye-Ang):
   XX=            -52.5753   YY=            -53.5012   ZZ=            -52.5818
   XY=             -2.4291   XZ=              0.0661   YZ=             -0.8526

  Exact polarizability:  84.934  -1.723  70.990   0.784  -0.371  70.057
 Approx polarizability: 115.984   3.523 108.327  -3.252   0.547 107.868

                      1                      2                      3
                      A                      A                      A
 Frequencies --     81.4099               114.7477               221.6709
 Red. masses --      4.2306                 3.9708                 3.2177
 Frc consts  --      0.0165                 0.0308                 0.0932
 IR Inten    --      1.3837                 0.4222                 8.8014

                      4                      5                      6
                      A                      A                      A
 Frequencies --    275.8338               292.8272               327.9191
 Red. masses --      1.1951                 1.4923                 2.3452
 Frc consts  --      0.0536                 0.0754                 0.1486
 IR Inten    --     26.7539                84.9078                60.8336

                      7                      8                      9
                      A                      A                      A
 Frequencies --    376.0761               395.8889               414.5618
 Red. masses --      2.1581                 3.4976                 2.2938
 Frc consts  --      0.1798                 0.3230                 0.2323
 IR Inten    --     24.5556                20.4029                 2.2046

                     10                     11                     12
                      A                      A                      A
 Frequencies --    459.3308               487.7191               618.9646
 Red. masses --      2.7075                 2.3201                 3.1881
 Frc consts  --      0.3366                 0.3252                 0.7196
 IR Inten    --      9.5392                 3.3383                 4.3612

                     13                     14                     15
                      A                      A                      A
 Frequencies --    669.9531               783.4129               834.0730
 Red. masses --      3.1897                 3.5188                 2.2814
 Frc consts  --      0.8435                 1.2724                 0.9351
 IR Inten    --      9.5251                 2.2195                 8.7402

                     16                     17                     18
                      A                      A                      A
 Frequencies --    848.4380               871.4348               907.3001
 Red. masses --      1.9280                 3.9625                 1.6144
 Frc consts  --      0.8177                 1.7729                 0.7830
 IR Inten    --     11.4648                16.7532                 2.3271

                     19                     20                     21
                      A                      A                      A
 Frequencies --    939.4031               941.1183               987.9935
 Red. masses --      1.5059                 1.3432                 1.7415
 Frc consts  --      0.7830                 0.7009                 1.0016
 IR Inten    --      1.8930                 9.7130                13.2194

                     22                     23                     24
                      A                      A                      A
 Frequencies --   1000.7531              1007.1606              1024.3816
 Red. masses --      1.5315                 1.8492                 1.4483
 Frc consts  --      0.9037                 1.1052                 0.8954
 IR Inten    --     18.1333                 5.3383                 0.2509

                     25                     26                     27
                      A                      A                      A
 Frequencies --   1051.0342              1061.2244              1089.5810
 Red. masses --      3.0429                 1.7245                 1.3827
 Frc consts  --      1.9805                 1.1442                 0.9671
 IR Inten    --     95.9183                12.4009                10.9090

                     28                     29                     30
                      A                      A                      A
 Frequencies --   1105.5564              1170.6555              1173.0764
 Red. masses --      2.3579                 1.7960                 1.5583
 Frc consts  --      1.6980                 1.4502                 1.2634
 IR Inten    --      2.2566                19.5966                23.1516

                     31                     32                     33
                      A                      A                      A
 Frequencies --   1210.0887              1259.5312              1285.1357
 Red. masses --      1.5719                 1.7779                 1.7453
 Frc consts  --      1.3562                 1.6617                 1.6984
 IR Inten    --      9.4038                10.3852               146.9984

                     34                     35                     36
                      A                      A                      A
 Frequencies --   1307.5893              1358.9916              1384.5615
 Red. masses --      2.8716                 1.4304                 1.8927
 Frc consts  --      2.8928                 1.5564                 2.1378
 IR Inten    --      9.6146                 2.8155                 1.0287

                     37                     38                     39
                      A                      A                      A
 Frequencies --   1408.0083              1427.7953              1486.9025
 Red. masses --      1.6169                 1.3664                 1.7305
 Frc consts  --      1.8886                 1.6411                 2.2542
 IR Inten    --     32.3224                73.5756                 5.1010

                     40                     41                     42
                      A                      A                      A
 Frequencies --   1501.2381              1515.9680              2967.4056
 Red. masses --      1.1242                 1.2475                 1.0705
 Frc consts  --      1.4927                 1.6892                 5.5536
 IR Inten    --      3.2553                 8.9558                60.9791

                     43                     44                     45
                      A                      A                      A
 Frequencies --   3059.8564              3115.2674              3127.6489
 Red. masses --      1.0915                 1.0544                 1.0549
 Frc consts  --      6.0211                 6.0290                 6.0798
 IR Inten    --     28.6863                11.4571                19.6309

                     46                     47                     48
                      A                      A                      A
 Frequencies --   3189.1654              3196.9287              3202.5459
 Red. masses --      1.0970                 1.1101                 1.1006
 Frc consts  --      6.5735                 6.6848                 6.6510
 IR Inten    --      6.0256                 7.1763                 9.2322

                     49                     50                     51
                      A                      A                      A
 Frequencies --   3207.7844              3775.6814              3808.9946
 Red. masses --      1.1055                 1.0660                 1.0659
 Frc consts  --      6.7024                 8.9539                 9.1118
 IR Inten    --     16.1890                17.7292                12.7771

 - Thermochemistry -
 -------------------
 Temperature   298.150 Kelvin.  Pressure   1.00000 Atm.
 Atom     1 has atomic number  8 and mass  15.99491

 Molecular mass:   126.06808 amu.
 Principal axes and moments of inertia in atomic units:
                           1         2         3
     Eigenvalues --   551.071171608.814811659.56792
           X            0.99978  -0.01316   0.01616
           Y            0.01374   0.99922  -0.03694
           Z           -0.01566   0.03715   0.99919
 This molecule is an asymmetric top.
 Rotational symmetry number  1.
 Warning -- assumption of classical behavior for rotation
           may cause significant error
 Rotational temperatures (Kelvin)      0.15717     0.05384     0.05219
 Rotational constants (GHZ):           3.27497     1.12178     1.08748
 Zero-point vibrational energy     414689.0 (Joules/Mol)
                                   99.11305 (Kcal/Mol)
 Warning -- explicit consideration of  12 degrees of freedom as
           vibrations may cause significant error
 Vibrational temperatures:    117.13   165.10   318.93   396.86   421.31
          (Kelvin)            471.80   541.09   569.60   596.46   660.87
                              701.72   890.55   963.91  1127.15  1200.04
                             1220.71  1253.80  1305.40  1351.59  1354.06
                             1421.50  1439.86  1449.08  1473.85  1512.20
                             1526.86  1567.66  1590.65  1684.31  1687.79
                             1741.05  1812.18  1849.02  1881.33  1955.28
                             1992.07  2025.81  2054.28  2139.32  2159.94
                             2181.14  4269.43  4402.45  4482.17  4499.98
                             4588.49  4599.66  4607.74  4615.28  5432.36
                             5480.29

 Zero-point correction=                           0.157947 (Hartree/Particle)
 Thermal correction to Energy=                    0.166570
 Thermal correction to Enthalpy=                  0.167515
 Thermal correction to Gibbs Free Energy=         0.124895
 Sum of electronic and zero-point Energies=           -422.941122
 Sum of electronic and thermal Energies=              -422.932499
 Sum of electronic and thermal Enthalpies=            -422.931554
 Sum of electronic and thermal Free Energies=         -422.974174

                     E (Thermal)             CV                S
                      KCal/Mol        Cal/Mol-Kelvin    Cal/Mol-Kelvin
 Total                  104.524             33.867             89.700
 Electronic               0.000              0.000              0.000
 Translational            0.889              2.981             40.409
 Rotational               0.889              2.981             28.777
 Vibrational            102.747             27.906             20.515
 Vibration     1          0.600              1.962              3.857
 Vibration     2          0.608              1.937              3.187
 Vibration     3          0.648              1.808              1.945
 Vibration     4          0.677              1.718              1.559
 Vibration     5          0.688              1.687              1.458
 Vibration     6          0.711              1.620              1.270
 Vibration     7          0.747              1.521              1.055
 Vibration     8          0.763              1.479              0.978
 Vibration     9          0.778              1.439              0.911
 Vibration    10          0.817              1.340              0.768
 Vibration    11          0.844              1.277              0.690
 Vibration    12          0.979              0.992              0.418

 Normal termination of Gaussian 09 at Tue Jan 28 10:09:26 2020.
