 Gaussian 09, Revision D.01,
 Gaussian 09:  ES64L-G09RevD.01 24-Apr-2013

 -----------------------------
 # b3lyp 6-31G(2df,p) opt Freq
 -----------------------------

 -----
 titel
 -----
 Symbolic Z-matrix:
 Charge =  0 Multiplicity = 1

 SCF Done:  E(RB3LYP) =  -423.145202103     A.U. after   14 cycles
 Optimization completed.
    -- Stationary point found.
 Normal termination of Gaussian 09 at Mon Jan 27 16:35:10 2020.

 ----------------------------------------------------------------------
 #N Geom=AllCheck Guess=TCheck SCRF=Check GenChk RB3LYP/6-31G(2df,p) Fr
 eq
 ----------------------------------------------------------------------

 Structure from the checkpoint file:  "/scratch/puck/g09_b338b24e-765c-4acf-991f-a100bb347e70/Gau-37658.chk"
 -----
 titel
 -----
 Charge =  0 Multiplicity = 1

                         Standard orientation:
 ---------------------------------------------------------------------
 Center     Atomic      Atomic             Coordinates (Angstroms)
 Number     Number       Type             X           Y           Z
 ---------------------------------------------------------------------
      1          6           0       -0.472188    1.992765    0.069767
      2          6           0        0.106107    0.599255   -0.117186
      3          6           0       -0.870410   -0.433778   -0.661250
      4          6           0       -2.038111   -0.652394    0.278000
      5          8           0       -3.199181   -0.596300   -0.036011
      6          6           0        1.581302    0.615215   -0.509859
      7          6           0        2.142578   -0.797822   -0.586696
      8          8           0        1.601562   -1.128077    0.722937
      9          6           0        1.157554    0.221089    0.890169
     10          1           0       -1.348905    1.976379    0.725991
     11          1           0        0.263054    2.673123    0.511408
     12          1           0       -0.785305    2.417451   -0.890384
     13          1           0       -1.256822   -0.146515   -1.644097
     14          1           0       -0.365720   -1.402928   -0.751922
     15          1           0       -1.736420   -0.886359    1.325494
     16          1           0        2.067642    1.510282   -0.874860
     17          1           0        1.773267   -1.464729   -1.374989
     18          1           0        3.237315   -0.829049   -0.563076
     19          1           0        1.291865    0.681382    1.863354
 ---------------------------------------------------------------------

 SCF Done:  E(RB3LYP) =  -423.145202103     A.U. after    1 cycles

 The electronic state is 1-A.
 Alpha  occ. eigenvalues --  -19.14926 -19.13666 -10.26857 -10.24791 -10.24491
 Alpha  occ. eigenvalues --  -10.21689 -10.20519 -10.19395 -10.19191  -1.06166
 Alpha  occ. eigenvalues --   -1.04331  -0.86150  -0.75798  -0.72081  -0.69893
 Alpha  occ. eigenvalues --   -0.59305  -0.56058  -0.55730  -0.51714  -0.49077
 Alpha  occ. eigenvalues --   -0.48361  -0.45211  -0.44232  -0.42196  -0.41405
 Alpha  occ. eigenvalues --   -0.39651  -0.39074  -0.38501  -0.35206  -0.34146
 Alpha  occ. eigenvalues --   -0.32912  -0.28618  -0.24628  -0.24270
 Alpha virt. eigenvalues --   -0.01897   0.06743   0.09241   0.09887   0.11385
 Alpha virt. eigenvalues --    0.11904   0.13427   0.14248   0.14797   0.15703
 Alpha virt. eigenvalues --    0.16834   0.17934   0.18609   0.20625   0.21120

 Mulliken charges:
               1
     1  C   -0.464946
     2  C    0.277986
     3  C   -0.349707
     4  C    0.163504
     5  O   -0.245486
     6  C   -0.185338
     7  C   -0.114327
     8  O   -0.287707
     9  C    0.059636
    10  H    0.132747
    11  H    0.119681
    12  H    0.129531
    13  H    0.114993
    14  H    0.134585
    15  H    0.080918
    16  H    0.101565
    17  H    0.109338
    18  H    0.116554
    19  H    0.106473
 Sum of Mulliken charges =   0.00000

 Dipole moment (field-independent basis, Debye):
    X=              2.8770    Y=              1.5765    Z=             -0.5976  Tot=              3.3346
 Quadrupole moment (field-independent basis, Debye-Ang):
   XX=            -63.6100   YY=            -52.6855   ZZ=            -51.8965
   XY=              0.1330   XZ=             -2.9392   YZ=              2.2495

  Exact polarizability:  90.195  -3.149  69.830  -1.188   1.274  67.881
 Approx polarizability: 126.424  -4.366 100.725   0.782  -1.610 108.245

                      1                      2                      3
                      A                      A                      A
 Frequencies --     49.2819                63.1636               177.9954
 Red. masses --      3.1156                 5.2119                 2.4096
 Frc consts  --      0.0045                 0.0123                 0.0450
 IR Inten    --      2.3153                 5.5296                 2.4535

                      4                      5                      6
                      A                      A                      A
 Frequencies --    208.2404               227.4790               253.1626
 Red. masses --      1.2060                 3.0994                 2.4952
 Frc consts  --      0.0308                 0.0945                 0.0942
 IR Inten    --      0.5886                 1.1305                 0.9715

                      7                      8                      9
                      A                      A                      A
 Frequencies --    315.0619               364.9552               451.0670
 Red. masses --      2.4931                 2.5453                 3.1273
 Frc consts  --      0.1458                 0.1997                 0.3749
 IR Inten    --      4.6450                 4.0145                 2.3996

                     10                     11                     12
                      A                      A                      A
 Frequencies --    493.7146               525.1410               688.8261
 Red. masses --      2.5229                 3.7180                 2.3231
 Frc consts  --      0.3623                 0.6041                 0.6494
 IR Inten    --     19.0113                 2.1509                 0.2353

                     13                     14                     15
                      A                      A                      A
 Frequencies --    769.9508               811.7347               846.3874
 Red. masses --      3.4654                 1.6870                 1.7854
 Frc consts  --      1.2104                 0.6549                 0.7536
 IR Inten    --      5.4609                 7.4804                 2.8343

                     16                     17                     18
                      A                      A                      A
 Frequencies --    883.2027               948.1527               961.4691
 Red. masses --      2.5899                 2.7050                 2.2386
 Frc consts  --      1.1903                 1.4328                 1.2192
 IR Inten    --      1.9854                28.5489                 7.2897

                     19                     20                     21
                      A                      A                      A
 Frequencies --    985.2890               991.4271              1009.9952
 Red. masses --      1.2908                 1.8648                 2.7173
 Frc consts  --      0.7383                 1.0800                 1.6331
 IR Inten    --      1.9599                12.9002                31.9877

                     22                     23                     24
                      A                      A                      A
 Frequencies --   1045.8604              1051.4106              1086.9041
 Red. masses --      1.8315                 1.9715                 2.3728
 Frc consts  --      1.1803                 1.2841                 1.6516
 IR Inten    --     14.4745                23.2228                11.5712

                     25                     26                     27
                      A                      A                      A
 Frequencies --   1095.2796              1130.9154              1162.6764
 Red. masses --      3.1990                 2.2954                 1.1673
 Frc consts  --      2.2611                 1.7297                 0.9297
 IR Inten    --      6.2738                26.9871                 1.2030

                     28                     29                     30
                      A                      A                      A
 Frequencies --   1170.0830              1243.4741              1249.5835
 Red. masses --      1.9198                 1.2530                 1.4317
 Frc consts  --      1.5486                 1.1415                 1.3172
 IR Inten    --      5.8970                10.3648                 3.9158

                     31                     32                     33
                      A                      A                      A
 Frequencies --   1290.0403              1317.8526              1336.6403
 Red. masses --      1.7773                 2.0345                 1.5907
 Frc consts  --      1.7427                 2.0818                 1.6744
 IR Inten    --      0.9274                 4.1037                 6.8948

                     34                     35                     36
                      A                      A                      A
 Frequencies --   1407.7838              1422.0582              1425.3647
 Red. masses --      2.4028                 1.2791                 1.2156
 Frc consts  --      2.8057                 1.5241                 1.4550
 IR Inten    --      3.0346                 6.8670                 5.3255

                     37                     38                     39
                      A                      A                      A
 Frequencies --   1446.3859              1492.0122              1501.0630
 Red. masses --      1.1041                 1.0481                 1.0994
 Frc consts  --      1.3610                 1.3747                 1.4596
 IR Inten    --      3.8513                 4.9212                 1.3919

                     40                     41                     42
                      A                      A                      A
 Frequencies --   1517.8145              1833.5467              2865.0708
 Red. masses --      1.1024                10.0245                 1.0820
 Frc consts  --      1.4963                19.8563                 5.2331
 IR Inten    --      0.1655               186.2790                85.3171

                     43                     44                     45
                      A                      A                      A
 Frequencies --   3025.0968              3028.9315              3041.6856
 Red. masses --      1.0552                 1.0354                 1.0573
 Frc consts  --      5.6894                 5.5970                 5.7635
 IR Inten    --     71.8862                16.1480                12.1380

                     46                     47                     48
                      A                      A                      A
 Frequencies --   3073.4362              3093.2534              3098.1972
 Red. masses --      1.1103                 1.1014                 1.1029
 Frc consts  --      6.1793                 6.2091                 6.2377
 IR Inten    --     35.8806                14.0388                13.2631

                     49                     50                     51
                      A                      A                      A
 Frequencies --   3101.6598              3167.1587              3199.0025
 Red. masses --      1.1012                 1.0914                 1.0958
 Frc consts  --      6.2416                 6.4499                 6.6070
 IR Inten    --     21.3984                17.7385                 9.1692

 - Thermochemistry -
 -------------------
 Temperature   298.150 Kelvin.  Pressure   1.00000 Atm.
 Atom     1 has atomic number  6 and mass  12.00000

 Molecular mass:   126.06808 amu.
 Principal axes and moments of inertia in atomic units:
                           1         2         3
     Eigenvalues --   600.025481568.269781850.44736
           X            0.99989  -0.00965  -0.01108
           Y            0.01009   0.99916   0.03978
           Z            0.01069  -0.03989   0.99915
 This molecule is an asymmetric top.
 Rotational symmetry number  1.
 Warning -- assumption of classical behavior for rotation
           may cause significant error
 Rotational temperatures (Kelvin)      0.14435     0.05523     0.04681
 Rotational constants (GHZ):           3.00777     1.15078     0.97530
 Zero-point vibrational energy     412388.3 (Joules/Mol)
                                   98.56317 (Kcal/Mol)
 Warning -- explicit consideration of  11 degrees of freedom as
           vibrations may cause significant error
 Vibrational temperatures:     70.91    90.88   256.10   299.61   327.29
          (Kelvin)            364.24   453.30   525.09   648.98   710.34
                              755.56   991.07  1107.79  1167.90  1217.76
                             1270.73  1364.18  1383.34  1417.61  1426.44
                             1453.16  1504.76  1512.74  1563.81  1575.86
                             1627.13  1672.83  1683.49  1789.08  1797.87
                             1856.08  1896.09  1923.12  2025.48  2046.02
                             2050.78  2081.02  2146.67  2159.69  2183.79
                             2638.06  4122.19  4352.43  4357.95  4376.30
                             4421.98  4450.50  4457.61  4462.59  4556.83
                             4602.65

 Zero-point correction=                           0.157070 (Hartree/Particle)
 Thermal correction to Energy=                    0.166015
 Thermal correction to Enthalpy=                  0.166959
 Thermal correction to Gibbs Free Energy=         0.122612
 Sum of electronic and zero-point Energies=           -422.988132
 Sum of electronic and thermal Energies=              -422.979187
 Sum of electronic and thermal Enthalpies=            -422.978243
 Sum of electronic and thermal Free Energies=         -423.022590

                     E (Thermal)             CV                S
                      KCal/Mol        Cal/Mol-Kelvin    Cal/Mol-Kelvin
 Total                  104.176             32.812             93.336
 Electronic               0.000              0.000              0.000
 Translational            0.889              2.981             40.409
 Rotational               0.889              2.981             28.945
 Vibrational            102.399             26.851             23.983
 Vibration     1          0.595              1.978              4.846
 Vibration     2          0.597              1.972              4.356
 Vibration     3          0.628              1.869              2.349
 Vibration     4          0.642              1.828              2.059
 Vibration     5          0.651              1.799              1.899
 Vibration     6          0.664              1.757              1.708
 Vibration     7          0.702              1.645              1.336
 Vibration     8          0.738              1.544              1.101
 Vibration     9          0.810              1.359              0.793
 Vibration    10          0.849              1.264              0.674
 Vibration    11          0.880              1.194              0.598

 Optimization completed.
    -- Stationary point found.
 Normal termination of Gaussian 09 at Mon Jan 27 17:27:47 2020.
