 Gaussian 09, Revision D.01,
 Gaussian 09:  ES64L-G09RevD.01 24-Apr-2013

 -----------------------------
 # b3lyp 6-31G(2df,p) opt Freq
 -----------------------------

 -----
 titel
 -----
 Symbolic Z-matrix:
 Charge =  0 Multiplicity = 1

 SCF Done:  E(RB3LYP) =  -423.207359541     A.U. after   14 cycles
 Optimization completed.
    -- Stationary point found.
 Normal termination of Gaussian 09 at Mon Jan 27 17:02:11 2020.

 ----------------------------------------------------------------------
 #N Geom=AllCheck Guess=TCheck SCRF=Check GenChk RB3LYP/6-31G(2df,p) Fr
 eq
 ----------------------------------------------------------------------

 Structure from the checkpoint file:  "/scratch/puck/g09_9734b62e-db43-4a4f-95e0-659c478f1d3c/Gau-111518.chk"
 -----
 titel
 -----
 Charge =  0 Multiplicity = 1

                         Standard orientation:
 ---------------------------------------------------------------------
 Center     Atomic      Atomic             Coordinates (Angstroms)
 Number     Number       Type             X           Y           Z
 ---------------------------------------------------------------------
      1          6           0       -2.727001    0.033569    0.000009
      2          6           0       -1.216470    0.025552   -0.000005
      3          6           0       -0.396398   -0.764238   -1.069307
      4          6           0        0.743865   -0.645992    0.000000
      5          8           0        1.891255   -1.402341   -0.000008
      6          6           0       -0.396398   -0.764228    1.069311
      7          6           0        0.946513    0.854558    0.000010
      8          8           0        2.015538    1.411504    0.000010
      9          6           0       -0.486401    1.394150   -0.000022
     10          1           0       -3.119940    0.548100   -0.884106
     11          1           0       -3.126514   -0.985717   -0.000182
     12          1           0       -3.119915    0.547758    0.884333
     13          1           0       -0.731387   -1.798964   -1.172299
     14          1           0       -0.240442   -0.310935   -2.052798
     15          1           0        2.628002   -0.770516    0.000027
     16          1           0       -0.731380   -1.798955    1.172318
     17          1           0       -0.240447   -0.310909    2.052796
     18          1           0       -0.689300    2.003320    0.887221
     19          1           0       -0.689274    2.003287   -0.887295
 ---------------------------------------------------------------------

 SCF Done:  E(RB3LYP) =  -423.207359541     A.U. after    1 cycles

 The electronic state is 1-A.
 Alpha  occ. eigenvalues --  -19.14516 -19.14308 -10.27058 -10.24683 -10.21477
 Alpha  occ. eigenvalues --  -10.19801 -10.19489 -10.19489 -10.18649  -1.05982
 Alpha  occ. eigenvalues --   -1.02745  -0.89987  -0.74312  -0.72860  -0.67653
 Alpha  occ. eigenvalues --   -0.63466  -0.57227  -0.53902  -0.49294  -0.47969
 Alpha  occ. eigenvalues --   -0.46724  -0.45757  -0.43805  -0.42336  -0.39598
 Alpha  occ. eigenvalues --   -0.39404  -0.38154  -0.36046  -0.35793  -0.35762
 Alpha  occ. eigenvalues --   -0.32262  -0.31713  -0.26804  -0.24701
 Alpha virt. eigenvalues --   -0.01578   0.07352   0.10444   0.11489   0.12408
 Alpha virt. eigenvalues --    0.13334   0.14610   0.14860   0.14998   0.16237
 Alpha virt. eigenvalues --    0.16960   0.19050   0.20273   0.21412   0.21959

 Mulliken charges:
               1
     1  C   -0.488954
     2  C    0.320796
     3  C   -0.326319
     4  C    0.341107
     5  O   -0.488149
     6  C   -0.326323
     7  C    0.377069
     8  O   -0.359507
     9  C   -0.376961
    10  H    0.119910
    11  H    0.118361
    12  H    0.119912
    13  H    0.111879
    14  H    0.100912
    15  H    0.290804
    16  H    0.111880
    17  H    0.100912
    18  H    0.126334
    19  H    0.126336
 Sum of Mulliken charges =   0.00000

 Dipole moment (field-independent basis, Debye):
    X=             -2.7283    Y=              0.0852    Z=              0.0000  Tot=              2.7296
 Quadrupole moment (field-independent basis, Debye-Ang):
   XX=            -56.1261   YY=            -57.1376   ZZ=            -51.6496
   XY=             -1.4498   XZ=              0.0001   YZ=             -0.0001

  Exact polarizability:  86.749   1.651  74.559   0.000   0.000  65.613
 Approx polarizability: 122.626   6.211 113.665   0.000   0.000 101.122

                      1                      2                      3
                      A                      A                      A
 Frequencies --    138.1891               213.5197               246.8848
 Red. masses --      4.1379                 1.1605                 3.2471
 Frc consts  --      0.0466                 0.0312                 0.1166
 IR Inten    --      0.3873                 0.2618                 5.7238

                      4                      5                      6
                      A                      A                      A
 Frequencies --    247.4628               275.8362               389.1357
 Red. masses --      2.3325                 4.8909                 2.5331
 Frc consts  --      0.0842                 0.2193                 0.2260
 IR Inten    --      2.4985                16.2706                16.7456

                      7                      8                      9
                      A                      A                      A
 Frequencies --    398.2252               445.0319               485.7410
 Red. masses --      1.4543                 1.3991                 2.1120
 Frc consts  --      0.1359                 0.1633                 0.2936
 IR Inten    --     28.5301                20.2349                 0.4194

                     10                     11                     12
                      A                      A                      A
 Frequencies --    510.5406               551.6820               627.5610
 Red. masses --      4.2305                 4.0889                 4.0732
 Frc consts  --      0.6497                 0.7332                 0.9452
 IR Inten    --      0.5493                 5.5844                 1.5641

                     13                     14                     15
                      A                      A                      A
 Frequencies --    637.2331               696.7806               780.6359
 Red. masses --      2.3210                 3.0946                 3.2528
 Frc consts  --      0.5553                 0.8852                 1.1679
 IR Inten    --      4.1718                 1.5284                15.9745

                     16                     17                     18
                      A                      A                      A
 Frequencies --    799.5688               883.8125               918.8625
 Red. masses --      3.0568                 2.5013                 1.6457
 Frc consts  --      1.1514                 1.1512                 0.8187
 IR Inten    --      2.5823                 1.3391                 0.2293

                     19                     20                     21
                      A                      A                      A
 Frequencies --    962.3301               965.3891               993.0050
 Red. masses --      1.4141                 2.0756                 2.0954
 Frc consts  --      0.7716                 1.1397                 1.2173
 IR Inten    --      0.6510                 1.6410                 0.2792

                     22                     23                     24
                      A                      A                      A
 Frequencies --   1031.6682              1051.2929              1080.1749
 Red. masses --      1.7522                 1.3889                 2.5657
 Frc consts  --      1.0988                 0.9044                 1.7638
 IR Inten    --      6.3680                 0.1574                30.2551

                     25                     26                     27
                      A                      A                      A
 Frequencies --   1105.0030              1142.4730              1160.1533
 Red. masses --      1.4992                 2.2248                 1.7516
 Frc consts  --      1.0785                 1.7109                 1.3890
 IR Inten    --      1.2568                86.8404                57.7710

                     28                     29                     30
                      A                      A                      A
 Frequencies --   1175.8439              1209.2633              1225.0131
 Red. masses --      1.3784                 1.5218                 1.8438
 Frc consts  --      1.1228                 1.3111                 1.6302
 IR Inten    --      0.6338                 3.5237                 0.3710

                     31                     32                     33
                      A                      A                      A
 Frequencies --   1257.1888              1335.2033              1371.8114
 Red. masses --      2.3213                 2.5750                 4.2705
 Frc consts  --      2.1617                 2.7048                 4.7350
 IR Inten    --     23.9811                28.1041                68.9098

                     34                     35                     36
                      A                      A                      A
 Frequencies --   1412.5318              1417.8729              1459.2277
 Red. masses --      1.4793                 1.3678                 1.0974
 Frc consts  --      1.7390                 1.6202                 1.3768
 IR Inten    --     43.6619                 1.0449                 6.2961

                     37                     38                     39
                      A                      A                      A
 Frequencies --   1483.4238              1492.9635              1493.7608
 Red. masses --      1.0928                 1.0513                 1.0472
 Frc consts  --      1.4169                 1.3806                 1.3767
 IR Inten    --      1.9272                 5.0605                 4.2285

                     40                     41                     42
                      A                      A                      A
 Frequencies --   1527.3373              1855.2174              3026.6368
 Red. masses --      1.1901                12.5681                 1.0356
 Frc consts  --      1.6357                25.4865                 5.5895
 IR Inten    --      1.5045               259.2095                28.7999

                     43                     44                     45
                      A                      A                      A
 Frequencies --   3047.4329              3051.0832              3056.5609
 Red. masses --      1.0585                 1.0565                 1.0588
 Frc consts  --      5.7917                 5.7944                 5.8283
 IR Inten    --     16.6335                52.9635                 1.8136

                     46                     47                     48
                      A                      A                      A
 Frequencies --   3090.5971              3094.5260              3099.1840
 Red. masses --      1.1012                 1.1038                 1.1012
 Frc consts  --      6.1975                 6.2279                 6.2317
 IR Inten    --     12.2200                17.1569                17.3721

                     49                     50                     51
                      A                      A                      A
 Frequencies --   3119.3943              3122.9173              3693.3552
 Red. masses --      1.1096                 1.1074                 1.0651
 Frc consts  --      6.3615                 6.3633                 8.5604
 IR Inten    --     12.1780                30.5646                45.3461

 - Thermochemistry -
 -------------------
 Temperature   298.150 Kelvin.  Pressure   1.00000 Atm.
 Atom     1 has atomic number  6 and mass  12.00000

 Molecular mass:   126.06808 amu.
 Principal axes and moments of inertia in atomic units:
                           1         2         3
     Eigenvalues --   618.782331188.750151508.49983
           X            0.99990  -0.01413   0.00000
           Y            0.01413   0.99990   0.00000
           Z            0.00000   0.00000   1.00000
 This molecule is an asymmetric top.
 Rotational symmetry number  1.
 Warning -- assumption of classical behavior for rotation
           may cause significant error
 Rotational temperatures (Kelvin)      0.13997     0.07286     0.05742
 Rotational constants (GHZ):           2.91660     1.51818     1.19638
 Zero-point vibrational energy     417834.9 (Joules/Mol)
                                   99.86494 (Kcal/Mol)
 Warning -- explicit consideration of  11 degrees of freedom as
           vibrations may cause significant error
 Vibrational temperatures:    198.82   307.21   355.21   356.04   396.87
          (Kelvin)            559.88   572.96   640.30   698.87   734.55
                              793.75   902.92   916.84  1002.51  1123.16
                             1150.40  1271.61  1322.04  1384.58  1388.98
                             1428.71  1484.34  1512.57  1554.13  1589.85
                             1643.76  1669.20  1691.78  1739.86  1762.52
                             1808.81  1921.06  1973.73  2032.32  2040.00
                             2099.50  2134.31  2148.04  2149.19  2197.49
                             2669.24  4354.65  4384.57  4389.82  4397.70
                             4446.67  4452.33  4459.03  4488.11  4493.18
                             5313.91

 Zero-point correction=                           0.159145 (Hartree/Particle)
 Thermal correction to Energy=                    0.167222
 Thermal correction to Enthalpy=                  0.168166
 Thermal correction to Gibbs Free Energy=         0.127176
 Sum of electronic and zero-point Energies=           -423.048215
 Sum of electronic and thermal Energies=              -423.040137
 Sum of electronic and thermal Enthalpies=            -423.039193
 Sum of electronic and thermal Free Energies=         -423.080183

                     E (Thermal)             CV                S
                      KCal/Mol        Cal/Mol-Kelvin    Cal/Mol-Kelvin
 Total                  104.934             32.608             86.271
 Electronic               0.000              0.000              0.000
 Translational            0.889              2.981             40.409
 Rotational               0.889              2.981             28.497
 Vibrational            103.156             26.646             17.366
 Vibration     1          0.614              1.915              2.829
 Vibration     2          0.644              1.820              2.013
 Vibration     3          0.661              1.768              1.753
 Vibration     4          0.661              1.767              1.749
 Vibration     5          0.677              1.718              1.559
 Vibration     6          0.757              1.493              1.003
 Vibration     7          0.765              1.474              0.969
 Vibration     8          0.804              1.372              0.811
 Vibration     9          0.842              1.282              0.695
 Vibration    10          0.866              1.227              0.632
 Vibration    11          0.907              1.136              0.541

 Optimization completed.
    -- Stationary point found.
 Normal termination of Gaussian 09 at Mon Jan 27 17:44:17 2020.
