 Gaussian 09, Revision D.01,
 Gaussian 09:  ES64L-G09RevD.01 24-Apr-2013

 -----------------------------
 # b3lyp 6-31G(2df,p) opt Freq
 -----------------------------

 -----
 titel
 -----
 Symbolic Z-matrix:
 Charge =  0 Multiplicity = 1

 SCF Done:  E(RB3LYP) =  -423.206237017     A.U. after   14 cycles
 Optimization completed.
    -- Stationary point found.
 Normal termination of Gaussian 09 at Tue Jan 28 01:54:28 2020.

 ----------------------------------------------------------------------
 #N Geom=AllCheck Guess=TCheck SCRF=Check GenChk RB3LYP/6-31G(2df,p) Fr
 eq
 ----------------------------------------------------------------------

 Structure from the checkpoint file:  "/scratch/puck/g09_c1917194-e091-46d2-899e-d7ce94b62849/Gau-87570.chk"
 -----
 titel
 -----
 Charge =  0 Multiplicity = 1

                         Standard orientation:
 ---------------------------------------------------------------------
 Center     Atomic      Atomic             Coordinates (Angstroms)
 Number     Number       Type             X           Y           Z
 ---------------------------------------------------------------------
      1          6           0       -2.884769   -0.916314   -0.604818
      2          6           0       -1.819756   -0.520502    0.408399
      3          6           0       -0.401941   -1.180356    0.375783
      4          6           0        0.267942    0.219297    0.559037
      5          6           0        1.452741    0.639254   -0.312142
      6          6           0        2.747155    0.026527    0.171698
      7          8           0        3.470397   -0.674697   -0.486208
      8          6           0       -1.106124    0.828407    0.217696
      9          8           0       -1.443698    1.897611   -0.201260
     10          1           0       -3.251469   -1.929906   -0.415732
     11          1           0       -3.735552   -0.230432   -0.555892
     12          1           0       -2.488020   -0.883537   -1.624545
     13          1           0       -2.227560   -0.558369    1.427031
     14          1           0       -0.192189   -1.926855    1.142539
     15          1           0       -0.177763   -1.606725   -0.605987
     16          1           0        0.489856    0.406904    1.618405
     17          1           0        1.297249    0.365453   -1.359463
     18          1           0        1.547214    1.732932   -0.254036
     19          1           0        2.993149    0.269333    1.233498
 ---------------------------------------------------------------------

 SCF Done:  E(RB3LYP) =  -423.206237017     A.U. after    1 cycles

 The electronic state is 1-A.
 Alpha  occ. eigenvalues --  -19.14662 -19.14430 -10.27703 -10.27456 -10.21351
 Alpha  occ. eigenvalues --  -10.20681 -10.20467 -10.20246 -10.18956  -1.05478
 Alpha  occ. eigenvalues --   -1.05127  -0.86531  -0.78313  -0.72564  -0.63997
 Alpha  occ. eigenvalues --   -0.62580  -0.58156  -0.53568  -0.48293  -0.47593
 Alpha  occ. eigenvalues --   -0.46872  -0.45698  -0.43964  -0.42851  -0.40662
 Alpha  occ. eigenvalues --   -0.39774  -0.39233  -0.38449  -0.36963  -0.34866
 Alpha  occ. eigenvalues --   -0.34438  -0.32781  -0.26247  -0.24321
 Alpha virt. eigenvalues --   -0.03304  -0.01926   0.08824   0.09883   0.11031
 Alpha virt. eigenvalues --    0.11728   0.13108   0.13645   0.15124   0.15394
 Alpha virt. eigenvalues --    0.16440   0.16593   0.17860   0.18411   0.22763

 Mulliken charges:
               1
     1  C   -0.406705
     2  C   -0.083601
     3  C   -0.266376
     4  C   -0.121887
     5  C   -0.290906
     6  C    0.159635
     7  O   -0.235226
     8  C    0.382716
     9  O   -0.303040
    10  H    0.123233
    11  H    0.137465
    12  H    0.123743
    13  H    0.106455
    14  H    0.113358
    15  H    0.120820
    16  H    0.106507
    17  H    0.124365
    18  H    0.138591
    19  H    0.070852
 Sum of Mulliken charges =   0.00000

 Dipole moment (field-independent basis, Debye):
    X=             -1.4897    Y=             -1.0017    Z=              1.8044  Tot=              2.5453
 Quadrupole moment (field-independent basis, Debye-Ang):
   XX=            -62.5941   YY=            -58.1123   ZZ=            -51.1615
   XY=              9.3711   XZ=              2.3921   YZ=              0.3010

  Exact polarizability:  95.385  -1.584  73.443   1.622   0.205  66.221
 Approx polarizability: 120.732 -11.424 117.191  -2.104   0.521 104.528

                      1                      2                      3
                      A                      A                      A
 Frequencies --     40.3735                69.9348                78.6378
 Red. masses --      5.0765                 3.2196                 3.1699
 Frc consts  --      0.0049                 0.0093                 0.0115
 IR Inten    --      3.9075                 1.8073                 7.6174

                      4                      5                      6
                      A                      A                      A
 Frequencies --    139.8846               189.5573               205.0232
 Red. masses --      4.1298                 1.0508                 3.7960
 Frc consts  --      0.0476                 0.0222                 0.0940
 IR Inten    --      2.3700                 0.3260                 3.1012

                      7                      8                      9
                      A                      A                      A
 Frequencies --    275.6258               335.7508               346.0590
 Red. masses --      3.3170                 2.2153                 2.5092
 Frc consts  --      0.1485                 0.1471                 0.1770
 IR Inten    --      3.0517                 0.4203                 0.0938

                     10                     11                     12
                      A                      A                      A
 Frequencies --    467.1169               544.0247               581.6541
 Red. masses --      3.5374                 3.1610                 2.9721
 Frc consts  --      0.4548                 0.5512                 0.5924
 IR Inten    --     10.8175                 0.8156                 6.1231

                     13                     14                     15
                      A                      A                      A
 Frequencies --    672.5546               773.9077               787.6394
 Red. masses --      2.5609                 2.1616                 2.7120
 Frc consts  --      0.6825                 0.7628                 0.9913
 IR Inten    --      3.2038                 0.3634                 3.7775

                     16                     17                     18
                      A                      A                      A
 Frequencies --    844.3636               909.5038               922.8142
 Red. masses --      2.0354                 1.7165                 1.7524
 Frc consts  --      0.8550                 0.8366                 0.8792
 IR Inten    --      1.3445                 1.4615                 3.6909

                     19                     20                     21
                      A                      A                      A
 Frequencies --    941.7884               998.9723              1013.3154
 Red. masses --      1.8938                 1.6894                 1.6923
 Frc consts  --      0.9897                 0.9934                 1.0238
 IR Inten    --     15.0564                43.3523                22.1048

                     22                     23                     24
                      A                      A                      A
 Frequencies --   1076.1352              1107.8659              1117.6970
 Red. masses --      2.1979                 2.1401                 2.5305
 Frc consts  --      1.4997                 1.5476                 1.8625
 IR Inten    --      1.7337                 0.4764                54.3315

                     25                     26                     27
                      A                      A                      A
 Frequencies --   1141.3231              1159.9267              1203.3664
 Red. masses --      1.9080                 2.3001                 1.4548
 Frc consts  --      1.4643                 1.8233                 1.2412
 IR Inten    --      5.2995                 4.4399                 3.8381

                     28                     29                     30
                      A                      A                      A
 Frequencies --   1228.7400              1246.9413              1260.7013
 Red. masses --      1.2434                 1.3575                 1.3752
 Frc consts  --      1.1061                 1.2436                 1.2878
 IR Inten    --     13.9920                 1.3347                 3.3667

                     31                     32                     33
                      A                      A                      A
 Frequencies --   1283.7552              1330.4385              1363.6504
 Red. masses --      1.5147                 1.7215                 1.6225
 Frc consts  --      1.4708                 1.7954                 1.7776
 IR Inten    --      3.0640                 3.7421                 1.3635

                     34                     35                     36
                      A                      A                      A
 Frequencies --   1408.1290              1427.0464              1458.8808
 Red. masses --      1.2227                 1.1906                 1.0909
 Frc consts  --      1.4284                 1.4285                 1.3679
 IR Inten    --      1.7357                 5.2068                 6.2096

                     37                     38                     39
                      A                      A                      A
 Frequencies --   1490.0287              1494.8891              1496.2045
 Red. masses --      1.0846                 1.0491                 1.0574
 Frc consts  --      1.4188                 1.3813                 1.3946
 IR Inten    --      1.4929                 2.3063                 8.6753

                     40                     41                     42
                      A                      A                      A
 Frequencies --   1836.5973              1883.6539              2845.2764
 Red. masses --     10.1473                12.8613                 1.0815
 Frc consts  --     20.1665                26.8868                 5.1588
 IR Inten    --    209.8642               227.2111               114.5731

                     43                     44                     45
                      A                      A                      A
 Frequencies --   3021.8208              3023.1085              3029.5504
 Red. masses --      1.0661                 1.0791                 1.0827
 Frc consts  --      5.7358                 5.8106                 5.8546
 IR Inten    --      8.5266                 4.2106                12.3478

                     46                     47                     48
                      A                      A                      A
 Frequencies --   3038.4024              3069.4037              3102.2104
 Red. masses --      1.0347                 1.0606                 1.0974
 Frc consts  --      5.6283                 5.8874                 6.2221
 IR Inten    --     21.6019                16.4960                10.3410

                     49                     50                     51
                      A                      A                      A
 Frequencies --   3107.9821              3114.6710              3132.4452
 Red. masses --      1.1021                 1.1014                 1.1063
 Frc consts  --      6.2724                 6.2955                 6.3955
 IR Inten    --     19.6805                15.6741                19.6310

 - Thermochemistry -
 -------------------
 Temperature   298.150 Kelvin.  Pressure   1.00000 Atm.
 Atom     1 has atomic number  6 and mass  12.00000

 Molecular mass:   126.06808 amu.
 Principal axes and moments of inertia in atomic units:
                           1         2         3
     Eigenvalues --   549.410702071.182322397.36705
           X            0.99927   0.03617   0.01261
           Y           -0.03625   0.99932   0.00616
           Z           -0.01238  -0.00661   0.99990
 This molecule is an asymmetric top.
 Rotational symmetry number  1.
 Warning -- assumption of classical behavior for rotation
           may cause significant error
 Rotational temperatures (Kelvin)      0.15765     0.04182     0.03613
 Rotational constants (GHZ):           3.28487     0.87136     0.75280
 Zero-point vibrational energy     410554.4 (Joules/Mol)
                                   98.12487 (Kcal/Mol)
 Warning -- explicit consideration of  12 degrees of freedom as
           vibrations may cause significant error
 Vibrational temperatures:     58.09   100.62   113.14   201.26   272.73
          (Kelvin)            294.98   396.56   483.07   497.90   672.08
                              782.73   836.87   967.65  1113.48  1133.24
                             1214.85  1308.57  1327.72  1355.02  1437.30
                             1457.93  1548.32  1593.97  1608.11  1642.11
                             1668.87  1731.37  1767.88  1794.07  1813.87
                             1847.04  1914.20  1961.99  2025.98  2053.20
                             2099.00  2143.82  2150.81  2152.70  2642.45
                             2710.15  4093.71  4347.72  4349.57  4358.84
                             4371.58  4416.18  4463.38  4471.69  4481.31
                             4506.88

 Zero-point correction=                           0.156372 (Hartree/Particle)
 Thermal correction to Energy=                    0.166049
 Thermal correction to Enthalpy=                  0.166994
 Thermal correction to Gibbs Free Energy=         0.120371
 Sum of electronic and zero-point Energies=           -423.049865
 Sum of electronic and thermal Energies=              -423.040188
 Sum of electronic and thermal Enthalpies=            -423.039243
 Sum of electronic and thermal Free Energies=         -423.085866

                     E (Thermal)             CV                S
                      KCal/Mol        Cal/Mol-Kelvin    Cal/Mol-Kelvin
 Total                  104.198             33.921             98.126
 Electronic               0.000              0.000              0.000
 Translational            0.889              2.981             40.409
 Rotational               0.889              2.981             29.391
 Vibrational            102.420             27.959             28.327
 Vibration     1          0.594              1.981              5.241
 Vibration     2          0.598              1.968              4.155
 Vibration     3          0.600              1.964              3.925
 Vibration     4          0.615              1.913              2.805
 Vibration     5          0.633              1.854              2.232
 Vibration     6          0.640              1.833              2.088
 Vibration     7          0.677              1.718              1.561
 Vibration     8          0.717              1.604              1.232
 Vibration     9          0.724              1.583              1.184
 Vibration    10          0.824              1.323              0.746
 Vibration    11          0.899              1.153              0.557
 Vibration    12          0.938              1.071              0.482

 Optimization completed.
    -- Stationary point found.
 Normal termination of Gaussian 09 at Tue Jan 28 02:30:18 2020.
