 Gaussian 09, Revision D.01,
 Gaussian 09:  ES64L-G09RevD.01 24-Apr-2013

 -----------------------------
 # b3lyp 6-31G(2df,p) opt Freq
 -----------------------------

 -----
 titel
 -----
 Symbolic Z-matrix:
 Charge =  0 Multiplicity = 1

 SCF Done:  E(RB3LYP) =  -423.167403946     A.U. after   14 cycles
 Optimization completed.
    -- Stationary point found.
 Normal termination of Gaussian 09 at Tue Jan 28 08:18:45 2020.

 ----------------------------------------------------------------------
 #N Geom=AllCheck Guess=TCheck SCRF=Check GenChk RB3LYP/6-31G(2df,p) Fr
 eq
 ----------------------------------------------------------------------

 Structure from the checkpoint file:  "/scratch/puck/g09_7683cf28-398b-473d-b302-997585359fa0/Gau-79845.chk"
 -----
 titel
 -----
 Charge =  0 Multiplicity = 1

                         Standard orientation:
 ---------------------------------------------------------------------
 Center     Atomic      Atomic             Coordinates (Angstroms)
 Number     Number       Type             X           Y           Z
 ---------------------------------------------------------------------
      1          6           0       -2.177122   -0.934185   -1.230838
      2          6           0       -2.133144   -0.043908    0.022740
      3          6           0       -2.122289   -0.883122    1.311825
      4          6           0       -0.933031    0.897682   -0.021173
      5          8           0       -1.044282    2.105795   -0.037543
      6          6           0        0.379947    0.272677   -0.043013
      7          6           0        1.477854   -0.232202   -0.056145
      8          6           0        2.833884   -0.774996   -0.108228
      9          8           0        3.840912    0.172361    0.197407
     10          1           0       -1.295986   -1.581287   -1.285133
     11          1           0       -3.064700   -1.573854   -1.205194
     12          1           0       -2.217329   -0.335347   -2.145759
     13          1           0       -3.004886    0.618516    0.028272
     14          1           0       -1.239607   -1.528955    1.353700
     15          1           0       -2.122022   -0.247889    2.202643
     16          1           0       -3.010418   -1.521399    1.350386
     17          1           0        2.941124   -1.579590    0.627950
     18          1           0        2.987799   -1.233369   -1.099187
     19          1           0        3.696396    0.946245   -0.357594
 ---------------------------------------------------------------------

 SCF Done:  E(RB3LYP) =  -423.167403946     A.U. after    1 cycles

 The electronic state is 1-A.
 Alpha  occ. eigenvalues --  -19.15383 -19.13512 -10.28526 -10.26890 -10.20830
 Alpha  occ. eigenvalues --  -10.20127 -10.19683 -10.18658 -10.18594  -1.04520
 Alpha  occ. eigenvalues --   -1.03694  -0.81479  -0.78578  -0.71869  -0.69455
 Alpha  occ. eigenvalues --   -0.65099  -0.59574  -0.54097  -0.48924  -0.47626
 Alpha  occ. eigenvalues --   -0.46542  -0.45987  -0.43496  -0.43452  -0.39730
 Alpha  occ. eigenvalues --   -0.38392  -0.37971  -0.36887  -0.34589  -0.34555
 Alpha  occ. eigenvalues --   -0.30368  -0.28850  -0.27928  -0.25477
 Alpha virt. eigenvalues --   -0.05212   0.01379   0.08850   0.09204   0.09542
 Alpha virt. eigenvalues --    0.11556   0.13697   0.14103   0.14341   0.17171
 Alpha virt. eigenvalues --    0.17482   0.18407   0.18739   0.19161   0.19716

 Mulliken charges:
               1
     1  C   -0.403273
     2  C   -0.065511
     3  C   -0.402796
     4  C    0.243410
     5  O   -0.295373
     6  C    0.050959
     7  C    0.034273
     8  C   -0.195429
     9  O   -0.394989
    10  H    0.126301
    11  H    0.121969
    12  H    0.126820
    13  H    0.100166
    14  H    0.127465
    15  H    0.128537
    16  H    0.121504
    17  H    0.150857
    18  H    0.129828
    19  H    0.295283
 Sum of Mulliken charges =   0.00000

 Dipole moment (field-independent basis, Debye):
    X=             -0.2184    Y=             -2.7149    Z=             -0.9906  Tot=              2.8982
 Quadrupole moment (field-independent basis, Debye-Ang):
   XX=            -53.0002   YY=            -57.3004   ZZ=            -52.2983
   XY=              2.8934   XZ=             -4.2690   YZ=             -0.8594

  Exact polarizability: 108.754  -8.469  76.817  -0.882  -0.314  62.482
 Approx polarizability: 152.112 -27.049 127.481  -0.014  -0.779  87.559

                      1                      2                      3
                      A                      A                      A
 Frequencies --     32.4696                37.6959                68.5685
 Red. masses --      2.7913                 3.1589                 5.0013
 Frc consts  --      0.0017                 0.0026                 0.0139
 IR Inten    --      2.0275                 0.7462                 1.5785

                      4                      5                      6
                      A                      A                      A
 Frequencies --    123.7393               156.6541               202.5380
 Red. masses --      3.9260                 4.2585                 1.1618
 Frc consts  --      0.0354                 0.0616                 0.0281
 IR Inten    --      2.8755                 1.4174                 0.6918

                      7                      8                      9
                      A                      A                      A
 Frequencies --    233.7513               235.2735               302.2757
 Red. masses --      1.0704                 2.2734                 1.4326
 Frc consts  --      0.0345                 0.0741                 0.0771
 IR Inten    --      0.3551                 3.8421                83.4871

                     10                     11                     12
                      A                      A                      A
 Frequencies --    322.4874               329.0881               390.8218
 Red. masses --      2.4858                 3.8291                 3.4021
 Frc consts  --      0.1523                 0.2443                 0.3062
 IR Inten    --     11.2355                23.0576                17.3517

                     13                     14                     15
                      A                      A                      A
 Frequencies --    446.9579               547.9726               619.2191
 Red. masses --      4.4312                 5.1301                 3.3996
 Frc consts  --      0.5216                 0.9076                 0.7680
 IR Inten    --      3.2836                 6.7914                 6.9559

                     16                     17                     18
                      A                      A                      A
 Frequencies --    663.7069               761.5479               874.9104
 Red. masses --      6.9310                 6.3468                 2.4547
 Frc consts  --      1.7989                 2.1687                 1.1071
 IR Inten    --      3.3854                 2.6998                28.2542

                     19                     20                     21
                      A                      A                      A
 Frequencies --    937.1856               942.6435               973.2062
 Red. masses --      1.1743                 2.7323                 1.4934
 Frc consts  --      0.6077                 1.4305                 0.8334
 IR Inten    --      1.7680                78.4637                 0.0427

                     22                     23                     24
                      A                      A                      A
 Frequencies --    981.5590              1047.1283              1090.5583
 Red. masses --      1.6233                 3.5957                 3.0191
 Frc consts  --      0.9214                 2.3229                 2.1155
 IR Inten    --      5.2554                24.8498               119.9667

                     25                     26                     27
                      A                      A                      A
 Frequencies --   1106.4033              1189.0630              1217.9066
 Red. masses --      2.5543                 1.8881                 1.0847
 Frc consts  --      1.8423                 1.5729                 0.9479
 IR Inten    --      0.0286                 0.6916                16.7149

                     28                     29                     30
                      A                      A                      A
 Frequencies --   1252.5569              1327.9070              1345.6613
 Red. masses --      3.9522                 1.4427                 1.3128
 Frc consts  --      3.6533                 1.4988                 1.4007
 IR Inten    --    146.5729                10.5485                 1.2721

                     31                     32                     33
                      A                      A                      A
 Frequencies --   1355.8462              1395.7109              1417.4134
 Red. masses --      1.2244                 1.2112                 1.2306
 Frc consts  --      1.3262                 1.3902                 1.4567
 IR Inten    --      5.6569                 2.0820                99.7148

                     34                     35                     36
                      A                      A                      A
 Frequencies --   1418.7630              1479.7451              1486.9746
 Red. masses --      1.2171                 1.0734                 1.0485
 Frc consts  --      1.4434                 1.3849                 1.3659
 IR Inten    --      7.3137                 3.0710                 0.7763

                     37                     38                     39
                      A                      A                      A
 Frequencies --   1488.4342              1500.5416              1510.9582
 Red. masses --      1.0405                 1.0452                 1.0558
 Frc consts  --      1.3581                 1.3866                 1.4202
 IR Inten    --      0.4741                 5.9852                13.4512

                     40                     41                     42
                      A                      A                      A
 Frequencies --   1758.4079              2317.6986              2972.3624
 Red. masses --     12.0166                11.9273                 1.0712
 Frc consts  --     21.8912                37.7491                 5.5762
 IR Inten    --    188.4596                65.6631                32.8464

                     43                     44                     45
                      A                      A                      A
 Frequencies --   3035.7764              3038.4632              3060.5314
 Red. masses --      1.0339                 1.0346                 1.0848
 Frc consts  --      5.6140                 5.6276                 5.9870
 IR Inten    --     22.9368                12.7885                 5.4887

                     46                     47                     48
                      A                      A                      A
 Frequencies --   3064.3886              3107.5323              3110.4287
 Red. masses --      1.0875                 1.1021                 1.1020
 Frc consts  --      6.0168                 6.2706                 6.2814
 IR Inten    --     10.1910                 1.5051                27.6351

                     49                     50                     51
                      A                      A                      A
 Frequencies --   3111.1844              3115.5190              3815.8238
 Red. masses --      1.1022                 1.1009                 1.0664
 Frc consts  --      6.2857                 6.2959                 9.1482
 IR Inten    --     19.7657                42.8698                28.0242

 - Thermochemistry -
 -------------------
 Temperature   298.150 Kelvin.  Pressure   1.00000 Atm.
 Atom     1 has atomic number  6 and mass  12.00000

 Molecular mass:   126.06808 amu.
 Principal axes and moments of inertia in atomic units:
                           1         2         3
     Eigenvalues --   649.961732439.809392677.26421
           X            0.99985   0.01647  -0.00544
           Y           -0.01647   0.99986   0.00014
           Z            0.00544  -0.00005   0.99999
 This molecule is an asymmetric top.
 Rotational symmetry number  1.
 Warning -- assumption of classical behavior for rotation
           may cause significant error
 Rotational temperatures (Kelvin)      0.13326     0.03550     0.03235
 Rotational constants (GHZ):           2.77669     0.73971     0.67410
 Zero-point vibrational energy     408668.0 (Joules/Mol)
                                   97.67401 (Kcal/Mol)
 Warning -- explicit consideration of  15 degrees of freedom as
           vibrations may cause significant error
 Vibrational temperatures:     46.72    54.24    98.65   178.03   225.39
          (Kelvin)            291.41   336.32   338.51   434.91   463.99
                              473.48   562.30   643.07   788.41   890.92
                              954.92  1095.70  1258.80  1348.40  1356.25
                             1400.22  1412.24  1506.58  1569.07  1591.87
                             1710.79  1752.29  1802.15  1910.56  1936.10
                             1950.76  2008.11  2039.34  2041.28  2129.02
                             2139.42  2141.52  2158.94  2173.93  2529.95
                             3334.65  4276.56  4367.80  4371.67  4403.42
                             4408.97  4471.04  4475.21  4476.29  4482.53
                             5490.11

 Zero-point correction=                           0.155653 (Hartree/Particle)
 Thermal correction to Energy=                    0.166687
 Thermal correction to Enthalpy=                  0.167632
 Thermal correction to Gibbs Free Energy=         0.117582
 Sum of electronic and zero-point Energies=           -423.011751
 Sum of electronic and thermal Energies=              -423.000717
 Sum of electronic and thermal Enthalpies=            -422.999772
 Sum of electronic and thermal Free Energies=         -423.049822

                     E (Thermal)             CV                S
                      KCal/Mol        Cal/Mol-Kelvin    Cal/Mol-Kelvin
 Total                  104.598             37.474            105.339
 Electronic               0.000              0.000              0.000
 Translational            0.889              2.981             40.409
 Rotational               0.889              2.981             29.830
 Vibrational            102.820             31.513             35.100
 Vibration     1          0.594              1.983              5.673
 Vibration     2          0.594              1.982              5.377
 Vibration     3          0.598              1.969              4.194
 Vibration     4          0.610              1.929              3.041
 Vibration     5          0.620              1.895              2.590
 Vibration     6          0.639              1.836              2.110
 Vibration     7          0.654              1.789              1.850
 Vibration     8          0.655              1.787              1.838
 Vibration     9          0.694              1.669              1.404
 Vibration    10          0.707              1.630              1.297
 Vibration    11          0.712              1.617              1.265
 Vibration    12          0.759              1.490              0.997
 Vibration    13          0.806              1.368              0.805
 Vibration    14          0.903              1.144              0.548
 Vibration    15          0.979              0.991              0.418

 Optimization completed.
    -- Stationary point found.
 Normal termination of Gaussian 09 at Tue Jan 28 09:05:23 2020.
