 Gaussian 09, Revision D.01,
 Gaussian 09:  ES64L-G09RevD.01 24-Apr-2013

 -----------------------------
 # b3lyp 6-31G(2df,p) opt Freq
 -----------------------------

 -----
 titel
 -----
 Symbolic Z-matrix:
 Charge =  0 Multiplicity = 1

 SCF Done:  E(RB3LYP) =  -423.126713190     A.U. after   14 cycles
 Optimization completed.
    -- Stationary point found.
 Normal termination of Gaussian 09 at Tue Jan 28 08:19:11 2020.

 ----------------------------------------------------------------------
 #N Geom=AllCheck Guess=TCheck SCRF=Check GenChk RB3LYP/6-31G(2df,p) Fr
 eq
 ----------------------------------------------------------------------

 Structure from the checkpoint file:  "/scratch/puck/g09_7b2c2815-915a-46df-bc04-5c81c424f31d/Gau-74501.chk"
 -----
 titel
 -----
 Charge =  0 Multiplicity = 1

                         Standard orientation:
 ---------------------------------------------------------------------
 Center     Atomic      Atomic             Coordinates (Angstroms)
 Number     Number       Type             X           Y           Z
 ---------------------------------------------------------------------
      1          6           0       -1.494516    0.412782    1.363428
      2          6           0       -0.472236   -0.030469    0.336215
      3          6           0       -0.597041   -1.479601   -0.101662
      4          8           0       -1.870567   -1.762194   -0.663787
      5          6           0       -0.003149    0.951083   -0.698262
      6          8           0       -0.588626    2.213851   -0.715291
      7          6           0        0.939427    0.571740    0.444301
      8          6           0        2.128908   -0.187691    0.202648
      9          6           0        3.136845   -0.813453   -0.002234
     10          1           0       -1.465228    1.492806    1.516041
     11          1           0       -2.497885    0.138970    1.025689
     12          1           0       -1.314818   -0.085077    2.322496
     13          1           0        0.216340   -1.738022   -0.793516
     14          1           0       -0.504684   -2.139912    0.767465
     15          1           0       -1.979177   -1.196109   -1.435512
     16          1           0        0.264074    0.549902   -1.677218
     17          1           0        0.077345    2.851480   -0.993956
     18          1           0        1.024182    1.335714    1.213189
     19          1           0        4.023969   -1.369345   -0.178662
 ---------------------------------------------------------------------

 SCF Done:  E(RB3LYP) =  -423.126713190     A.U. after    1 cycles

 The electronic state is 1-A.
 Alpha  occ. eigenvalues --  -19.15767 -19.13575 -10.24887 -10.22739 -10.21332
 Alpha  occ. eigenvalues --  -10.20694 -10.18394 -10.17422 -10.17205  -1.04380
 Alpha  occ. eigenvalues --   -1.01646  -0.87356  -0.75260  -0.71500  -0.68264
 Alpha  occ. eigenvalues --   -0.63838  -0.56857  -0.54407  -0.52162  -0.49872
 Alpha  occ. eigenvalues --   -0.48307  -0.45564  -0.43977  -0.41357  -0.39909
 Alpha  occ. eigenvalues --   -0.38631  -0.36959  -0.35257  -0.32922  -0.30437
 Alpha  occ. eigenvalues --   -0.30002  -0.27537  -0.25642  -0.23648
 Alpha virt. eigenvalues --    0.04548   0.04677   0.07095   0.07665   0.12071
 Alpha virt. eigenvalues --    0.12234   0.12841   0.13605   0.15503   0.16086
 Alpha virt. eigenvalues --    0.16296   0.18270   0.19270   0.21576   0.23104

 Mulliken charges:
               1
     1  C   -0.456377
     2  C    0.247597
     3  C   -0.129012
     4  O   -0.414514
     5  C    0.044838
     6  O   -0.416382
     7  C   -0.339898
     8  C    0.333230
     9  C   -0.446426
    10  H    0.129931
    11  H    0.134128
    12  H    0.117259
    13  H    0.098860
    14  H    0.116048
    15  H    0.284032
    16  H    0.094365
    17  H    0.293529
    18  H    0.114504
    19  H    0.194290
 Sum of Mulliken charges =   0.00000

 Dipole moment (field-independent basis, Debye):
    X=              1.2860    Y=              1.4342    Z=             -0.8831  Tot=              2.1190
 Quadrupole moment (field-independent basis, Debye-Ang):
   XX=            -55.3683   YY=            -52.8595   ZZ=            -50.0448
   XY=             -1.7589   XZ=             -0.7760   YZ=             -0.9708

  Exact polarizability:  98.060 -10.683  75.702  -3.189  -0.286  64.316
 Approx polarizability: 144.235 -21.888 111.520  -3.883  -0.249  95.603

                      1                      2                      3
                      A                      A                      A
 Frequencies --     98.7266               118.7751               130.8368
 Red. masses --      3.6213                 4.1916                 3.2263
 Frc consts  --      0.0208                 0.0348                 0.0325
 IR Inten    --      2.0130                 0.1583                 0.2040

                      4                      5                      6
                      A                      A                      A
 Frequencies --    181.2979               204.3520               238.6985
 Red. masses --      1.1146                 3.1872                 3.3668
 Frc consts  --      0.0216                 0.0784                 0.1130
 IR Inten    --      0.8789                 1.1294                 3.4018

                      7                      8                      9
                      A                      A                      A
 Frequencies --    291.5166               302.8607               317.0240
 Red. masses --      2.7411                 1.6091                 1.1395
 Frc consts  --      0.1372                 0.0870                 0.0675
 IR Inten    --      3.2853                34.6332               135.4463

                     10                     11                     12
                      A                      A                      A
 Frequencies --    366.0874               396.8056               419.1424
 Red. masses --      1.9149                 2.5982                 5.4313
 Frc consts  --      0.1512                 0.2410                 0.5622
 IR Inten    --     15.4320                33.2374                 8.9123

                     13                     14                     15
                      A                      A                      A
 Frequencies --    474.9879               546.8733               573.9289
 Red. masses --      4.4363                 4.9317                 1.3468
 Frc consts  --      0.5897                 0.8690                 0.2614
 IR Inten    --      3.4722                16.2616                41.4079

                     16                     17                     18
                      A                      A                      A
 Frequencies --    613.6045               651.6933               725.1199
 Red. masses --      3.2348                 1.2368                 3.2895
 Frc consts  --      0.7176                 0.3095                 1.0191
 IR Inten    --     10.1276                43.9612                 4.3801

                     19                     20                     21
                      A                      A                      A
 Frequencies --    823.0930               908.7222               953.2443
 Red. masses --      3.8083                 3.0684                 1.5416
 Frc consts  --      1.5201                 1.4929                 0.8254
 IR Inten    --      5.2097                 2.2948                19.8664

                     22                     23                     24
                      A                      A                      A
 Frequencies --    977.2125              1014.0324              1058.1367
 Red. masses --      1.4141                 2.0142                 3.2127
 Frc consts  --      0.7956                 1.2203                 2.1194
 IR Inten    --      8.2063                 2.5720                89.4014

                     25                     26                     27
                      A                      A                      A
 Frequencies --   1083.6458              1092.3881              1113.3624
 Red. masses --      2.1850                 1.5045                 1.7671
 Frc consts  --      1.5117                 1.0578                 1.2906
 IR Inten    --      4.2294                19.4680                14.1531

                     28                     29                     30
                      A                      A                      A
 Frequencies --   1152.5963              1193.7875              1253.7287
 Red. masses --      3.8831                 1.3758                 1.5068
 Frc consts  --      3.0393                 1.1552                 1.3954
 IR Inten    --     75.0287                43.6702                 3.6972

                     31                     32                     33
                      A                      A                      A
 Frequencies --   1294.4097              1308.1004              1351.2791
 Red. masses --      1.5217                 1.6303                 1.6253
 Frc consts  --      1.5022                 1.6436                 1.7485
 IR Inten    --     84.8549                 2.3000                 9.1083

                     34                     35                     36
                      A                      A                      A
 Frequencies --   1381.6542              1409.5283              1423.3430
 Red. masses --      1.2008                 1.3156                 1.2860
 Frc consts  --      1.3506                 1.5400                 1.5350
 IR Inten    --      6.7632                17.7039                39.2821

                     37                     38                     39
                      A                      A                      A
 Frequencies --   1467.7302              1486.5042              1506.2198
 Red. masses --      1.9553                 1.0498                 1.0922
 Frc consts  --      2.4817                 1.3667                 1.4599
 IR Inten    --      5.2351                 2.9355                 2.7838

                     40                     41                     42
                      A                      A                      A
 Frequencies --   1509.8636              2229.2519              3011.4973
 Red. masses --      1.1438                 6.0498                 1.0650
 Frc consts  --      1.5364                17.7137                 5.6907
 IR Inten    --     10.1480                20.1458                33.1547

                     43                     44                     45
                      A                      A                      A
 Frequencies --   3041.6998              3074.5046              3088.2238
 Red. masses --      1.0387                 1.0980                 1.0876
 Frc consts  --      5.6618                 6.1148                 6.1115
 IR Inten    --     24.0453                24.5577                25.8292

                     46                     47                     48
                      A                      A                      A
 Frequencies --   3107.8454              3137.1928              3141.2672
 Red. masses --      1.0982                 1.0913                 1.0947
 Frc consts  --      6.2495                 6.3279                 6.3642
 IR Inten    --     15.0112                 2.9225                13.1901

                     49                     50                     51
                      A                      A                      A
 Frequencies --   3503.9126              3805.3686              3808.1958
 Red. masses --      1.1592                 1.0662                 1.0660
 Frc consts  --      8.3851                 9.0970                 9.1082
 IR Inten    --     85.7180                29.1710                14.8419

 - Thermochemistry -
 -------------------
 Temperature   298.150 Kelvin.  Pressure   1.00000 Atm.
 Atom     1 has atomic number  6 and mass  12.00000

 Molecular mass:   126.06808 amu.
 Principal axes and moments of inertia in atomic units:
                           1         2         3
     Eigenvalues --   957.226381340.634071833.45971
           X            0.99935  -0.02811  -0.02271
           Y            0.02842   0.99951   0.01320
           Z            0.02233  -0.01383   0.99965
 This molecule is an asymmetric top.
 Rotational symmetry number  1.
 Warning -- assumption of classical behavior for rotation
           may cause significant error
 Rotational temperatures (Kelvin)      0.09048     0.06461     0.04724
 Rotational constants (GHZ):           1.88539     1.34618     0.98434
 Zero-point vibrational energy     408906.8 (Joules/Mol)
                                   97.73106 (Kcal/Mol)
 Warning -- explicit consideration of  16 degrees of freedom as
           vibrations may cause significant error
 Vibrational temperatures:    142.05   170.89   188.24   260.85   294.02
          (Kelvin)            343.43   419.43   435.75   456.13   526.72
                              570.91   603.05   683.40   786.83   825.75
                              882.84   937.64  1043.28  1184.25  1307.45
                             1371.50  1405.99  1458.96  1522.42  1559.12
                             1571.70  1601.88  1658.33  1717.59  1803.83
                             1862.36  1882.06  1944.19  1987.89  2027.99
                             2047.87  2111.73  2138.75  2167.11  2172.35
                             3207.39  4332.87  4376.32  4423.52  4443.26
                             4471.49  4513.72  4519.58  5041.34  5475.07
                             5479.14

 Zero-point correction=                           0.155744 (Hartree/Particle)
 Thermal correction to Energy=                    0.166005
 Thermal correction to Enthalpy=                  0.166949
 Thermal correction to Gibbs Free Energy=         0.121049
 Sum of electronic and zero-point Energies=           -422.970969
 Sum of electronic and thermal Energies=              -422.960709
 Sum of electronic and thermal Enthalpies=            -422.959764
 Sum of electronic and thermal Free Energies=         -423.005664

                     E (Thermal)             CV                S
                      KCal/Mol        Cal/Mol-Kelvin    Cal/Mol-Kelvin
 Total                  104.169             38.075             96.605
 Electronic               0.000              0.000              0.000
 Translational            0.889              2.981             40.409
 Rotational               0.889              2.981             29.244
 Vibrational            102.392             32.113             26.952
 Vibration     1          0.604              1.950              3.479
 Vibration     2          0.609              1.934              3.120
 Vibration     3          0.612              1.922              2.934
 Vibration     4          0.630              1.865              2.315
 Vibration     5          0.640              1.834              2.094
 Vibration     6          0.657              1.781              1.813
 Vibration     7          0.687              1.690              1.465
 Vibration     8          0.694              1.668              1.401
 Vibration     9          0.704              1.641              1.325
 Vibration    10          0.739              1.542              1.096
 Vibration    11          0.763              1.477              0.974
 Vibration    12          0.782              1.429              0.895
 Vibration    13          0.832              1.306              0.724
 Vibration    14          0.902              1.147              0.551
 Vibration    15          0.930              1.088              0.497
 Vibration    16          0.973              1.003              0.427

 Normal termination of Gaussian 09 at Tue Jan 28 09:04:20 2020.
