 Gaussian 09, Revision D.01,
 Gaussian 09:  ES64L-G09RevD.01 24-Apr-2013

 -----------------------------
 # b3lyp 6-31G(2df,p) opt Freq
 -----------------------------

 -----
 titel
 -----
 Symbolic Z-matrix:
 Charge =  0 Multiplicity = 1

 SCF Done:  E(RB3LYP) =  -423.158528509     A.U. after   13 cycles
 Optimization completed.
    -- Stationary point found.
 Normal termination of Gaussian 09 at Mon Jan 27 12:17:46 2020.

 ----------------------------------------------------------------------
 #N Geom=AllCheck Guess=TCheck SCRF=Check GenChk RB3LYP/6-31G(2df,p) Fr
 eq
 ----------------------------------------------------------------------

 Structure from the checkpoint file:  "/scratch/puck/g09_800dc5f6-6b94-4762-b41a-97e5d0187e75/Gau-45269.chk"
 -----
 titel
 -----
 Charge =  0 Multiplicity = 1

                         Standard orientation:
 ---------------------------------------------------------------------
 Center     Atomic      Atomic             Coordinates (Angstroms)
 Number     Number       Type             X           Y           Z
 ---------------------------------------------------------------------
      1          6           0        1.851795   -0.817513    0.147776
      2          8           0        1.988763    0.618944   -0.093337
      3          6           0        0.650052    0.642666   -0.678475
      4          6           0       -0.467286    1.624732   -0.266373
      5          6           0       -1.411120    0.626322    0.473686
      6          6           0       -1.812221   -0.550543   -0.474956
      7          8           0       -0.650064   -1.432191   -0.536901
      8          6           0        0.335791   -0.637165    0.088149
      9          6           0       -0.381396   -0.114331    1.343373
     10          1           0        2.265890   -1.402969   -0.682851
     11          1           0        2.307397   -1.122860    1.093794
     12          1           0        0.723381    0.507858   -1.764312
     13          1           0       -0.114742    2.403963    0.415783
     14          1           0       -0.930919    2.108530   -1.130705
     15          1           0       -2.269386    1.083900    0.967654
     16          1           0       -2.653806   -1.125073   -0.075285
     17          1           0       -2.068457   -0.208621   -1.485468
     18          1           0       -0.788319   -0.932333    1.942391
     19          1           0        0.225679    0.548572    1.961826
 ---------------------------------------------------------------------

 SCF Done:  E(RB3LYP) =  -423.158528509     A.U. after    1 cycles

 The electronic state is 1-A.
 Alpha  occ. eigenvalues --  -19.14091 -19.13811 -10.23419 -10.23332 -10.23308
 Alpha  occ. eigenvalues --  -10.22348 -10.20075 -10.18904 -10.18235  -1.05228
 Alpha  occ. eigenvalues --   -1.02253  -0.83029  -0.74302  -0.71795  -0.66787
 Alpha  occ. eigenvalues --   -0.63467  -0.57724  -0.53296  -0.51274  -0.50143
 Alpha  occ. eigenvalues --   -0.47072  -0.45078  -0.44159  -0.41529  -0.39290
 Alpha  occ. eigenvalues --   -0.38219  -0.36624  -0.35208  -0.33862  -0.33275
 Alpha  occ. eigenvalues --   -0.32812  -0.29622  -0.25743  -0.23639
 Alpha virt. eigenvalues --    0.06756   0.08843   0.10522   0.11765   0.13567
 Alpha virt. eigenvalues --    0.14206   0.14494   0.15038   0.16161   0.16552
 Alpha virt. eigenvalues --    0.17595   0.17841   0.18871   0.20759   0.21371

 Mulliken charges:
               1
     1  C   -0.198756
     2  O   -0.310304
     3  C    0.116597
     4  C   -0.278907
     5  C   -0.055819
     6  C   -0.094115
     7  O   -0.338007
     8  C    0.406930
     9  C   -0.263782
    10  H    0.110992
    11  H    0.110575
    12  H    0.078784
    13  H    0.116633
    14  H    0.099896
    15  H    0.071286
    16  H    0.110834
    17  H    0.102454
    18  H    0.101828
    19  H    0.112882
 Sum of Mulliken charges =   0.00000

 Dipole moment (field-independent basis, Debye):
    X=             -1.5744    Y=              0.4087    Z=              0.5355  Tot=              1.7124
 Quadrupole moment (field-independent basis, Debye-Ang):
   XX=            -53.5077   YY=            -55.4179   ZZ=            -51.6535
   XY=             -4.3433   XZ=              0.2307   YZ=             -1.7026

  Exact polarizability:  81.503  -4.348  70.133   1.741  -1.878  68.764
 Approx polarizability: 113.325  -3.103 106.229   3.829  -1.134 103.676

                      1                      2                      3
                      A                      A                      A
 Frequencies --    188.8956               280.7994               315.4114
 Red. masses --      3.0724                 2.6877                 2.7062
 Frc consts  --      0.0646                 0.1249                 0.1586
 IR Inten    --      0.6007                10.0200                 4.0927

                      4                      5                      6
                      A                      A                      A
 Frequencies --    385.9228               395.9920               493.5017
 Red. masses --      2.2353                 2.5182                 3.4937
 Frc consts  --      0.1962                 0.2327                 0.5013
 IR Inten    --      1.5866                 1.4511                 2.2276

                      7                      8                      9
                      A                      A                      A
 Frequencies --    526.0678               618.8229               710.3604
 Red. masses --      2.6279                 3.2227                 4.1135
 Frc consts  --      0.4285                 0.7271                 1.2230
 IR Inten    --      1.6833                 5.1222                 0.8535

                     10                     11                     12
                      A                      A                      A
 Frequencies --    755.1217               817.3455               828.9737
 Red. masses --      4.4551                 2.7830                 2.7744
 Frc consts  --      1.4967                 1.0954                 1.1233
 IR Inten    --      4.8030                 1.0399                16.2601

                     13                     14                     15
                      A                      A                      A
 Frequencies --    846.9268               915.1374               930.0021
 Red. masses --      3.1761                 2.3099                 2.7038
 Frc consts  --      1.3423                 1.1398                 1.3778
 IR Inten    --      1.5687                15.1726                13.6980

                     16                     17                     18
                      A                      A                      A
 Frequencies --    936.1262               941.7159               952.2992
 Red. masses --      3.1955                 4.6853                 1.6307
 Frc consts  --      1.6499                 2.4481                 0.8713
 IR Inten    --     44.5378                 5.8815                10.2687

                     19                     20                     21
                      A                      A                      A
 Frequencies --    975.3850               998.0205              1056.8933
 Red. masses --      1.8864                 1.8459                 2.5493
 Frc consts  --      1.0574                 1.0833                 1.6778
 IR Inten    --     42.8469                13.1032                 5.3445

                     22                     23                     24
                      A                      A                      A
 Frequencies --   1065.7503              1101.9320              1131.7937
 Red. masses --      1.3980                 2.0085                 1.3748
 Frc consts  --      0.9356                 1.4369                 1.0376
 IR Inten    --      0.8536                32.3504                 2.1435

                     25                     26                     27
                      A                      A                      A
 Frequencies --   1139.0890              1165.5131              1180.0439
 Red. masses --      1.8150                 1.4996                 1.2599
 Frc consts  --      1.3875                 1.2002                 1.0337
 IR Inten    --      4.0995                 9.2445                 1.8766

                     28                     29                     30
                      A                      A                      A
 Frequencies --   1195.8934              1228.4057              1240.0633
 Red. masses --      1.8879                 1.5413                 1.6564
 Frc consts  --      1.5908                 1.3703                 1.5008
 IR Inten    --     13.3706                 7.9904                17.6377

                     31                     32                     33
                      A                      A                      A
 Frequencies --   1266.2110              1295.8189              1317.1009
 Red. masses --      1.5921                 1.6366                 1.5377
 Frc consts  --      1.5039                 1.6191                 1.5717
 IR Inten    --      6.0145                 1.7873                 1.7797

                     34                     35                     36
                      A                      A                      A
 Frequencies --   1321.3205              1347.0436              1374.4066
 Red. masses --      1.8999                 1.7991                 1.5843
 Frc consts  --      1.9543                 1.9234                 1.7633
 IR Inten    --      8.5528                10.2378                12.6098

                     37                     38                     39
                      A                      A                      A
 Frequencies --   1379.2355              1476.5359              1495.6913
 Red. masses --      1.3239                 1.0984                 1.1079
 Frc consts  --      1.4839                 1.4110                 1.4603
 IR Inten    --      6.9612                 3.9039                 5.5361

                     40                     41                     42
                      A                      A                      A
 Frequencies --   1513.8753              1518.7763              3022.3851
 Red. masses --      1.1114                 1.1080                 1.0648
 Frc consts  --      1.5008                 1.5059                 5.7306
 IR Inten    --      1.0414                 0.1110                13.4423

                     43                     44                     45
                      A                      A                      A
 Frequencies --   3023.5216              3031.8656              3057.2510
 Red. masses --      1.0607                 1.0794                 1.0603
 Frc consts  --      5.7130                 5.8461                 5.8391
 IR Inten    --     81.3145                55.9738                27.4423

                     46                     47                     48
                      A                      A                      A
 Frequencies --   3073.5764              3075.4888              3094.2416
 Red. masses --      1.0655                 1.0986                 1.1067
 Frc consts  --      5.9303                 6.1225                 6.2429
 IR Inten    --      5.8413                37.0191                33.0159

                     49                     50                     51
                      A                      A                      A
 Frequencies --   3106.4343              3109.8635              3136.3586
 Red. masses --      1.1062                 1.0883                 1.1084
 Frc consts  --      6.2894                 6.2012                 6.4236
 IR Inten    --     24.1169                39.4379                16.9596

 - Thermochemistry -
 -------------------
 Temperature   298.150 Kelvin.  Pressure   1.00000 Atm.
 Atom     1 has atomic number  6 and mass  12.00000

 Molecular mass:   126.06808 amu.
 Principal axes and moments of inertia in atomic units:
                           1         2         3
     Eigenvalues --   606.19728 965.426601174.56149
           X            0.99832  -0.05768   0.00527
           Y            0.05782   0.99784  -0.03120
           Z           -0.00346   0.03145   0.99950
 This molecule is an asymmetric top.
 Rotational symmetry number  1.
 Warning -- assumption of classical behavior for rotation
           may cause significant error
 Rotational temperatures (Kelvin)      0.14288     0.08972     0.07374
 Rotational constants (GHZ):           2.97715     1.86937     1.53652
 Zero-point vibrational energy     426798.9 (Joules/Mol)
                                  102.00739 (Kcal/Mol)
 Warning -- explicit consideration of   8 degrees of freedom as
           vibrations may cause significant error
 Vibrational temperatures:    271.78   404.01   453.81   555.26   569.74
          (Kelvin)            710.04   756.89   890.35  1022.05  1086.45
                             1175.98  1192.71  1218.54  1316.68  1338.06
                             1346.88  1354.92  1370.14  1403.36  1435.93
                             1520.63  1533.38  1585.43  1628.40  1638.89
                             1676.91  1697.82  1720.62  1767.40  1784.17
                             1821.79  1864.39  1895.01  1901.08  1938.09
                             1977.46  1984.41  2124.40  2151.96  2178.13
                             2185.18  4348.53  4350.17  4362.17  4398.70
                             4422.19  4424.94  4451.92  4469.46  4474.39
                             4512.51

 Zero-point correction=                           0.162559 (Hartree/Particle)
 Thermal correction to Energy=                    0.169062
 Thermal correction to Enthalpy=                  0.170006
 Thermal correction to Gibbs Free Energy=         0.132066
 Sum of electronic and zero-point Energies=           -422.995969
 Sum of electronic and thermal Energies=              -422.989467
 Sum of electronic and thermal Enthalpies=            -422.988522
 Sum of electronic and thermal Free Energies=         -423.026462

                     E (Thermal)             CV                S
                      KCal/Mol        Cal/Mol-Kelvin    Cal/Mol-Kelvin
 Total                  106.088             27.674             79.852
 Electronic               0.000              0.000              0.000
 Translational            0.889              2.981             40.409
 Rotational               0.889              2.981             28.021
 Vibrational            104.311             21.712             11.422
 Vibration     1          0.633              1.855              2.239
 Vibration     2          0.680              1.709              1.529
 Vibration     3          0.703              1.644              1.334
 Vibration     4          0.755              1.500              1.016
 Vibration     5          0.763              1.479              0.978
 Vibration     6          0.849              1.264              0.675
 Vibration     7          0.881              1.192              0.596
 Vibration     8          0.979              0.992              0.418

 Optimization completed.
    -- Stationary point found.
 Normal termination of Gaussian 09 at Mon Jan 27 13:06:19 2020.
