 Gaussian 09, Revision D.01,
 Gaussian 09:  ES64L-G09RevD.01 24-Apr-2013

 -----------------------------
 # b3lyp 6-31G(2df,p) opt Freq
 -----------------------------

 -----
 titel
 -----
 Symbolic Z-matrix:
 Charge =  0 Multiplicity = 1

 SCF Done:  E(RB3LYP) =  -423.182665531     A.U. after   12 cycles
 Optimization completed.
    -- Stationary point found.
 Normal termination of Gaussian 09 at Mon Jan 27 18:57:13 2020.

 ----------------------------------------------------------------------
 #N Geom=AllCheck Guess=TCheck SCRF=Check GenChk RB3LYP/6-31G(2df,p) Fr
 eq
 ----------------------------------------------------------------------

 Structure from the checkpoint file:  "/scratch/puck/g09_18e4f7e6-d722-4adf-9d5f-0b37567d1287/Gau-90652.chk"
 -----
 titel
 -----
 Charge =  0 Multiplicity = 1

                         Standard orientation:
 ---------------------------------------------------------------------
 Center     Atomic      Atomic             Coordinates (Angstroms)
 Number     Number       Type             X           Y           Z
 ---------------------------------------------------------------------
      1          6           0        2.503256    0.111166   -0.000689
      2          6           0        1.000605    0.065857    0.024461
      3          8           0        0.477388    1.363856    0.197960
      4          6           0       -0.928972    1.490929   -0.015798
      5          6           0       -1.585267    0.115666   -0.076404
      6          6           0       -1.129959   -0.733768    1.130188
      7          6           0        0.280982   -1.095747    0.694241
      8          6           0        0.250899   -0.932698   -0.821028
      9          8           0       -1.045658   -0.556519   -1.222664
     10          1           0        2.889497    0.518826    0.939302
     11          1           0        2.918074   -0.891919   -0.135493
     12          1           0        2.855050    0.746214   -0.819627
     13          1           0       -1.340201    2.092725    0.805165
     14          1           0       -1.112308    2.018106   -0.961858
     15          1           0       -2.666456    0.193489   -0.205050
     16          1           0       -1.168738   -0.160923    2.061471
     17          1           0       -1.747958   -1.629665    1.242429
     18          1           0        0.830203   -1.885606    1.193699
     19          1           0        0.739745   -1.588379   -1.532226
 ---------------------------------------------------------------------

 SCF Done:  E(RB3LYP) =  -423.182665531     A.U. after    1 cycles

 The electronic state is 1-A.
 Alpha  occ. eigenvalues --  -19.14435 -19.14071 -10.23743 -10.23633 -10.22881
 Alpha  occ. eigenvalues --  -10.22680 -10.18979 -10.18420 -10.17876  -1.06424
 Alpha  occ. eigenvalues --   -1.01743  -0.84517  -0.78181  -0.71481  -0.68489
 Alpha  occ. eigenvalues --   -0.62331  -0.57644  -0.52966  -0.51858  -0.48581
 Alpha  occ. eigenvalues --   -0.47151  -0.46101  -0.41462  -0.40873  -0.40331
 Alpha  occ. eigenvalues --   -0.38968  -0.38604  -0.36906  -0.35089  -0.33149
 Alpha  occ. eigenvalues --   -0.32231  -0.31224  -0.23514  -0.21673
 Alpha virt. eigenvalues --    0.08302   0.11105   0.11470   0.12222   0.13779
 Alpha virt. eigenvalues --    0.14682   0.15310   0.15745   0.15920   0.16669
 Alpha virt. eigenvalues --    0.17927   0.18000   0.19570   0.20373   0.21592

 Mulliken charges:
               1
     1  C   -0.461978
     2  C    0.415351
     3  O   -0.316880
     4  C   -0.061781
     5  C    0.025023
     6  C   -0.236139
     7  C   -0.182996
     8  C    0.019640
     9  O   -0.261562
    10  H    0.126942
    11  H    0.116360
    12  H    0.127610
    13  H    0.097950
    14  H    0.103538
    15  H    0.086487
    16  H    0.110090
    17  H    0.108061
    18  H    0.084917
    19  H    0.099365
 Sum of Mulliken charges =   0.00000

 Dipole moment (field-independent basis, Debye):
    X=             -0.2117    Y=             -0.6611    Z=              0.9622  Tot=              1.1865
 Quadrupole moment (field-independent basis, Debye-Ang):
   XX=            -49.7877   YY=            -53.3759   ZZ=            -54.4981
   XY=             -3.7677   XZ=             -2.7267   YZ=             -1.0298

  Exact polarizability:  82.541  -3.292  71.849  -2.486  -1.179  66.834
 Approx polarizability: 110.267  -2.328 105.861  -0.553   0.777 105.543

                      1                      2                      3
                      A                      A                      A
 Frequencies --    157.9466               200.0150               241.5931
 Red. masses --      3.2702                 1.0790                 2.4094
 Frc consts  --      0.0481                 0.0254                 0.0829
 IR Inten    --      5.4346                 0.0731                 0.8521

                      4                      5                      6
                      A                      A                      A
 Frequencies --    303.9527               356.1956               415.5084
 Red. masses --      2.5269                 2.2117                 3.7911
 Frc consts  --      0.1375                 0.1653                 0.3856
 IR Inten    --      0.1676                 0.3587                 2.8646

                      7                      8                      9
                      A                      A                      A
 Frequencies --    512.3112               556.2174               602.6613
 Red. masses --      4.2794                 3.2560                 4.1355
 Frc consts  --      0.6618                 0.5935                 0.8850
 IR Inten    --      1.6641                 0.4069                 2.0246

                     10                     11                     12
                      A                      A                      A
 Frequencies --    686.8481               705.3510               812.2233
 Red. masses --      4.7120                 5.2221                 2.5880
 Frc consts  --      1.3097                 1.5308                 1.0059
 IR Inten    --      5.5895                18.3715                13.7755

                     13                     14                     15
                      A                      A                      A
 Frequencies --    835.4469               853.0376               863.0711
 Red. masses --      2.8147                 2.2755                 2.5422
 Frc consts  --      1.1575                 0.9756                 1.1157
 IR Inten    --      8.9049                 6.6356                 8.6034

                     16                     17                     18
                      A                      A                      A
 Frequencies --    908.7357               914.7101               986.7873
 Red. masses --      1.9403                 2.3355                 1.7962
 Frc consts  --      0.9440                 1.1513                 1.0305
 IR Inten    --     14.9522                24.8235                 7.2757

                     19                     20                     21
                      A                      A                      A
 Frequencies --   1004.7687              1016.0852              1037.3260
 Red. masses --      2.3288                 1.7535                 1.3951
 Frc consts  --      1.3852                 1.0667                 0.8845
 IR Inten    --      8.6919                 4.2577                 7.8038

                     22                     23                     24
                      A                      A                      A
 Frequencies --   1067.2463              1089.7729              1109.1447
 Red. masses --      1.7459                 1.8962                 3.0664
 Frc consts  --      1.1717                 1.3268                 2.2226
 IR Inten    --      4.0684                17.0314                 7.5426

                     25                     26                     27
                      A                      A                      A
 Frequencies --   1120.3437              1140.4242              1185.5045
 Red. masses --      2.3511                 3.0100                 1.4474
 Frc consts  --      1.7387                 2.3065                 1.1985
 IR Inten    --     35.6271                63.5735                 4.3592

                     28                     29                     30
                      A                      A                      A
 Frequencies --   1211.0570              1243.6925              1251.9752
 Red. masses --      1.7492                 1.5118                 1.8089
 Frc consts  --      1.5115                 1.3778                 1.6706
 IR Inten    --      6.9476                11.9873                65.8539

                     31                     32                     33
                      A                      A                      A
 Frequencies --   1263.1094              1303.8638              1340.9991
 Red. masses --      1.4600                 1.6699                 1.6273
 Frc consts  --      1.3724                 1.6727                 1.7241
 IR Inten    --     11.7403                 4.8045                 2.8579

                     34                     35                     36
                      A                      A                      A
 Frequencies --   1359.1695              1406.6288              1413.5924
 Red. masses --      1.5499                 1.3687                 1.2975
 Frc consts  --      1.6870                 1.5956                 1.5276
 IR Inten    --      5.9516                 1.1938                 8.5823

                     37                     38                     39
                      A                      A                      A
 Frequencies --   1436.7006              1476.7304              1489.2592
 Red. masses --      2.8060                 1.0477                 1.0966
 Frc consts  --      3.4124                 1.3461                 1.4329
 IR Inten    --      8.4757                 3.3000                 2.1938

                     40                     41                     42
                      A                      A                      A
 Frequencies --   1505.1307              1509.7772              3004.4512
 Red. masses --      1.1390                 1.0921                 1.0569
 Frc consts  --      1.5203                 1.4668                 5.6212
 IR Inten    --      1.6707                 0.8953                70.0230

                     43                     44                     45
                      A                      A                      A
 Frequencies --   3036.2924              3043.7281              3052.4152
 Red. masses --      1.0349                 1.1064                 1.0600
 Frc consts  --      5.6212                 6.0393                 5.8190
 IR Inten    --     26.2642                26.6053                38.1798

                     46                     47                     48
                      A                      A                      A
 Frequencies --   3098.0531              3103.1561              3104.1418
 Red. masses --      1.1037                 1.0915                 1.1015
 Frc consts  --      6.2416                 6.1924                 6.2534
 IR Inten    --     21.7708                39.9028                18.2771

                     49                     50                     51
                      A                      A                      A
 Frequencies --   3115.6369              3171.5623              3182.5709
 Red. masses --      1.1013                 1.0899                 1.0944
 Frc consts  --      6.2985                 6.4592                 6.5309
 IR Inten    --     17.5009                11.0369                19.1843

 - Thermochemistry -
 -------------------
 Temperature   298.150 Kelvin.  Pressure   1.00000 Atm.
 Atom     1 has atomic number  6 and mass  12.00000

 Molecular mass:   126.06808 amu.
 Principal axes and moments of inertia in atomic units:
                           1         2         3
     Eigenvalues --   636.97852 977.304151140.19265
           X            0.99854  -0.04641  -0.02774
           Y            0.04495   0.99768  -0.05120
           Z            0.03005   0.04988   0.99830
 This molecule is an asymmetric top.
 Rotational symmetry number  1.
 Warning -- assumption of classical behavior for rotation
           may cause significant error
 Rotational temperatures (Kelvin)      0.13598     0.08863     0.07596
 Rotational constants (GHZ):           2.83328     1.84665     1.58284
 Zero-point vibrational energy     423519.4 (Joules/Mol)
                                  101.22358 (Kcal/Mol)
 Warning -- explicit consideration of   9 degrees of freedom as
           vibrations may cause significant error
 Vibrational temperatures:    227.25   287.78   347.60   437.32   512.49
          (Kelvin)            597.82   737.10   800.27   867.09   988.22
                             1014.84  1168.61  1202.02  1227.33  1241.77
                             1307.47  1316.06  1419.77  1445.64  1461.92
                             1492.48  1535.53  1567.94  1595.81  1611.92
                             1640.81  1705.67  1742.44  1789.39  1801.31
                             1817.33  1875.97  1929.40  1955.54  2023.82
                             2033.84  2067.09  2124.68  2142.71  2165.54
                             2172.23  4322.73  4368.54  4379.24  4391.74
                             4457.40  4464.74  4466.16  4482.70  4563.17
                             4579.00

 Zero-point correction=                           0.161310 (Hartree/Particle)
 Thermal correction to Energy=                    0.168466
 Thermal correction to Enthalpy=                  0.169410
 Thermal correction to Gibbs Free Energy=         0.130155
 Sum of electronic and zero-point Energies=           -423.021355
 Sum of electronic and thermal Energies=              -423.014200
 Sum of electronic and thermal Enthalpies=            -423.013256
 Sum of electronic and thermal Free Energies=         -423.052511

                     E (Thermal)             CV                S
                      KCal/Mol        Cal/Mol-Kelvin    Cal/Mol-Kelvin
 Total                  105.714             29.273             82.619
 Electronic               0.000              0.000              0.000
 Translational            0.889              2.981             40.409
 Rotational               0.889              2.981             28.053
 Vibrational            103.936             23.311             14.158
 Vibration     1          0.621              1.894              2.574
 Vibration     2          0.638              1.840              2.133
 Vibration     3          0.658              1.777              1.791
 Vibration     4          0.695              1.666              1.395
 Vibration     5          0.732              1.563              1.139
 Vibration     6          0.779              1.437              0.907
 Vibration     7          0.867              1.223              0.628
 Vibration     8          0.912              1.126              0.531
 Vibration     9          0.961              1.026              0.445

 Optimization completed.
    -- Stationary point found.
 Normal termination of Gaussian 09 at Mon Jan 27 19:46:36 2020.
