 Gaussian 09, Revision D.01,
 Gaussian 09:  ES64L-G09RevD.01 24-Apr-2013

 -----------------------------
 # b3lyp 6-31G(2df,p) opt Freq
 -----------------------------

 -----
 titel
 -----
 Symbolic Z-matrix:
 Charge =  0 Multiplicity = 1

 SCF Done:  E(RB3LYP) =  -423.193873417     A.U. after   13 cycles
 Optimization completed.
    -- Stationary point found.
 Normal termination of Gaussian 09 at Tue Jan 28 02:56:01 2020.

 ----------------------------------------------------------------------
 #N Geom=AllCheck Guess=TCheck SCRF=Check GenChk RB3LYP/6-31G(2df,p) Fr
 eq
 ----------------------------------------------------------------------

 Structure from the checkpoint file:  "/scratch/puck/g09_01a93b2f-efac-42ff-ac74-b8e72e7718db/Gau-65425.chk"
 -----
 titel
 -----
 Charge =  0 Multiplicity = 1

                         Standard orientation:
 ---------------------------------------------------------------------
 Center     Atomic      Atomic             Coordinates (Angstroms)
 Number     Number       Type             X           Y           Z
 ---------------------------------------------------------------------
      1          8           0        2.357635   -0.077150    0.335622
      2          6           0        1.272560    0.034545   -0.568953
      3          6           0        0.551591    1.410124   -0.462539
      4          6           0       -0.813196    1.287854    0.200033
      5          6           0       -1.742528    0.174563   -0.269896
      6          6           0       -1.040387   -0.901370   -1.085647
      7          6           0        0.259715   -1.083777   -0.281058
      8          8           0       -0.127820   -0.922931    1.100042
      9          6           0       -1.099938    0.103619    1.089095
     10          1           0        1.954865   -0.260443    1.195573
     11          1           0        1.700201   -0.093379   -1.568741
     12          1           0        1.204974    2.078840    0.105764
     13          1           0        0.430987    1.855938   -1.457017
     14          1           0       -1.293985    2.220829    0.478805
     15          1           0       -2.801188    0.358037   -0.404626
     16          1           0       -1.630612   -1.822711   -1.099387
     17          1           0       -0.834131   -0.611242   -2.121142
     18          1           0        0.727537   -2.065677   -0.373438
     19          1           0       -1.624070    0.187114    2.032686
 ---------------------------------------------------------------------

 SCF Done:  E(RB3LYP) =  -423.193873417     A.U. after    1 cycles

 The electronic state is 1-A.
 Alpha  occ. eigenvalues --  -19.15069 -19.12285 -10.23425 -10.23201 -10.22703
 Alpha  occ. eigenvalues --  -10.19238 -10.19163 -10.19122 -10.18194  -1.05524
 Alpha  occ. eigenvalues --   -1.00444  -0.85795  -0.77508  -0.74215  -0.64297
 Alpha  occ. eigenvalues --   -0.62432  -0.57300  -0.54017  -0.52272  -0.50022
 Alpha  occ. eigenvalues --   -0.46872  -0.44459  -0.42464  -0.41251  -0.40216
 Alpha  occ. eigenvalues --   -0.39000  -0.37469  -0.37186  -0.33967  -0.33038
 Alpha  occ. eigenvalues --   -0.30630  -0.27364  -0.26387  -0.23085
 Alpha virt. eigenvalues --    0.07964   0.10249   0.11094   0.12787   0.13306
 Alpha virt. eigenvalues --    0.14233   0.14547   0.15499   0.16310   0.17019
 Alpha virt. eigenvalues --    0.17697   0.18796   0.19665   0.20961   0.23282

 Mulliken charges:
               1
     1  O   -0.446377
     2  C    0.152611
     3  C   -0.269149
     4  C   -0.076345
     5  C   -0.109275
     6  C   -0.244821
     7  C    0.026483
     8  O   -0.281905
     9  C    0.089796
    10  H    0.283076
    11  H    0.080625
    12  H    0.114727
    13  H    0.100916
    14  H    0.085571
    15  H    0.088126
    16  H    0.110223
    17  H    0.106863
    18  H    0.087402
    19  H    0.101456
 Sum of Mulliken charges =   0.00000

 Dipole moment (field-independent basis, Debye):
    X=             -2.1422    Y=              0.5233    Z=             -0.7661  Tot=              2.3345
 Quadrupole moment (field-independent basis, Debye-Ang):
   XX=            -57.2926   YY=            -52.1924   ZZ=            -50.9784
   XY=             -0.7683   XZ=             -0.7262   YZ=              2.1041

  Exact polarizability:  76.015  -0.143  71.680  -0.875   2.138  69.361
 Approx polarizability: 106.719  -0.501 104.827   0.838   0.012 109.495

                      1                      2                      3
                      A                      A                      A
 Frequencies --    121.7539               266.9346               337.8307
 Red. masses --      3.4218                 2.9638                 3.2162
 Frc consts  --      0.0299                 0.1244                 0.2163
 IR Inten    --      1.9879                 3.3658                 1.8233

                      4                      5                      6
                      A                      A                      A
 Frequencies --    425.3009               433.2070               469.2021
 Red. masses --      4.0490                 2.1202                 1.9549
 Frc consts  --      0.4315                 0.2344                 0.2536
 IR Inten    --      1.4283                 0.3408                10.8825

                      7                      8                      9
                      A                      A                      A
 Frequencies --    506.1800               602.6899               672.9205
 Red. masses --      1.5850                 4.8555                 3.6534
 Frc consts  --      0.2393                 1.0391                 0.9747
 IR Inten    --     75.9613                 3.0831                 0.5105

                     10                     11                     12
                      A                      A                      A
 Frequencies --    686.4069               761.9013               784.8963
 Red. masses --      5.9353                 2.6642                 2.0097
 Frc consts  --      1.6476                 0.9112                 0.7295
 IR Inten    --      3.2075                15.4229                23.0723

                     13                     14                     15
                      A                      A                      A
 Frequencies --    807.5697               852.1231               896.5794
 Red. masses --      2.5464                 2.5074                 2.3480
 Frc consts  --      0.9784                 1.0727                 1.1120
 IR Inten    --      6.0524                 8.2479                 4.4405

                     16                     17                     18
                      A                      A                      A
 Frequencies --    923.4139               941.7573               957.9491
 Red. masses --      2.4405                 2.1679                 2.3880
 Frc consts  --      1.2261                 1.1328                 1.2911
 IR Inten    --      5.9944                 6.1705                 7.3015

                     19                     20                     21
                      A                      A                      A
 Frequencies --    991.1108              1019.6094              1034.9913
 Red. masses --      2.1498                 2.0591                 1.6229
 Frc consts  --      1.2442                 1.2612                 1.0243
 IR Inten    --     21.7057                12.8378                 5.3638

                     22                     23                     24
                      A                      A                      A
 Frequencies --   1069.9987              1081.0724              1096.3368
 Red. masses --      1.8916                 2.3060                 1.4543
 Frc consts  --      1.2760                 1.5879                 1.0299
 IR Inten    --     39.5241                 6.5122                16.5079

                     25                     26                     27
                      A                      A                      A
 Frequencies --   1107.0968              1112.3103              1157.1649
 Red. masses --      2.8513                 1.8281                 1.5351
 Frc consts  --      2.0591                 1.3326                 1.2111
 IR Inten    --     56.7449                16.7073                20.5467

                     28                     29                     30
                      A                      A                      A
 Frequencies --   1188.6358              1215.0010              1257.2495
 Red. masses --      1.2141                 1.1941                 1.7955
 Frc consts  --      1.0106                 1.0386                 1.6722
 IR Inten    --      2.8834                33.2287                 4.5721

                     31                     32                     33
                      A                      A                      A
 Frequencies --   1272.9176              1299.9641              1313.4611
 Red. masses --      1.5874                 1.3813                 1.5672
 Frc consts  --      1.5154                 1.3753                 1.5930
 IR Inten    --      0.8567                 5.7503                 4.4193

                     34                     35                     36
                      A                      A                      A
 Frequencies --   1323.0229              1343.9941              1357.6606
 Red. masses --      1.3623                 1.6740                 1.5113
 Frc consts  --      1.4050                 1.7815                 1.6413
 IR Inten    --      1.0229                 6.6172                 3.5019

                     37                     38                     39
                      A                      A                      A
 Frequencies --   1385.3868              1424.5032              1445.1005
 Red. masses --      1.4086                 2.2307                 1.3345
 Frc consts  --      1.5928                 2.6669                 1.6420
 IR Inten    --      5.1925                27.3108                53.2134

                     40                     41                     42
                      A                      A                      A
 Frequencies --   1483.9615              1496.0430              3029.6507
 Red. masses --      1.0949                 1.1063                 1.0670
 Frc consts  --      1.4206                 1.4588                 5.7704
 IR Inten    --      2.0129                 7.9904                23.4330

                     43                     44                     45
                      A                      A                      A
 Frequencies --   3047.0955              3058.0388              3084.5597
 Red. masses --      1.0598                 1.0827                 1.0989
 Frc consts  --      5.7974                 5.9653                 6.1603
 IR Inten    --     20.3385                39.8871                18.3291

                     46                     47                     48
                      A                      A                      A
 Frequencies --   3090.3055              3101.9787              3150.0745
 Red. masses --      1.1050                 1.0897                 1.0886
 Frc consts  --      6.2175                 6.1776                 6.3644
 IR Inten    --     23.1205                38.0870                14.9207

                     49                     50                     51
                      A                      A                      A
 Frequencies --   3185.1454              3198.4852              3750.9012
 Red. masses --      1.0899                 1.0952                 1.0648
 Frc consts  --      6.5149                 6.6016                 8.8264
 IR Inten    --     10.8954                22.5504                28.3677

 - Thermochemistry -
 -------------------
 Temperature   298.150 Kelvin.  Pressure   1.00000 Atm.
 Atom     1 has atomic number  8 and mass  15.99491

 Molecular mass:   126.06808 amu.
 Principal axes and moments of inertia in atomic units:
                           1         2         3
     Eigenvalues --   634.241871014.094961116.35338
           X            0.99999   0.00399  -0.00170
           Y           -0.00381   0.99567   0.09287
           Z            0.00206  -0.09287   0.99568
 This molecule is an asymmetric top.
 Rotational symmetry number  1.
 Warning -- assumption of classical behavior for rotation
           may cause significant error
 Rotational temperatures (Kelvin)      0.13656     0.08541     0.07759
 Rotational constants (GHZ):           2.84551     1.77966     1.61664
 Zero-point vibrational energy     428391.4 (Joules/Mol)
                                  102.38799 (Kcal/Mol)
 Warning -- explicit consideration of   8 degrees of freedom as
           vibrations may cause significant error
 Vibrational temperatures:    175.18   384.06   486.06   611.91   623.29
          (Kelvin)            675.08   728.28   867.14   968.18   987.59
                             1096.20  1129.29  1161.91  1226.01  1289.98
                             1328.58  1354.98  1378.27  1425.99  1466.99
                             1489.12  1539.49  1555.42  1577.38  1592.86
                             1600.36  1664.90  1710.18  1748.11  1808.90
                             1831.44  1870.36  1889.78  1903.53  1933.71
                             1953.37  1993.26  2049.54  2079.17  2135.09
                             2152.47  4358.99  4384.09  4399.83  4437.99
                             4446.25  4463.05  4532.25  4582.71  4601.90
                             5396.70

 Zero-point correction=                           0.163166 (Hartree/Particle)
 Thermal correction to Energy=                    0.169863
 Thermal correction to Enthalpy=                  0.170807
 Thermal correction to Gibbs Free Energy=         0.132368
 Sum of electronic and zero-point Energies=           -423.030708
 Sum of electronic and thermal Energies=              -423.024011
 Sum of electronic and thermal Enthalpies=            -423.023067
 Sum of electronic and thermal Free Energies=         -423.061506

                     E (Thermal)             CV                S
                      KCal/Mol        Cal/Mol-Kelvin    Cal/Mol-Kelvin
 Total                  106.590             28.421             80.902
 Electronic               0.000              0.000              0.000
 Translational            0.889              2.981             40.409
 Rotational               0.889              2.981             28.064
 Vibrational            104.813             22.460             12.429
 Vibration     1          0.609              1.931              3.072
 Vibration     2          0.672              1.734              1.616
 Vibration     3          0.718              1.600              1.222
 Vibration     4          0.787              1.415              0.874
 Vibration     5          0.794              1.398              0.848
 Vibration     6          0.826              1.318              0.740
 Vibration     7          0.861              1.236              0.643
 Vibration     8          0.961              1.026              0.445

 Optimization completed.
    -- Stationary point found.
 Normal termination of Gaussian 09 at Tue Jan 28 03:58:30 2020.
