 Gaussian 09, Revision D.01,
 Gaussian 09:  ES64L-G09RevD.01 24-Apr-2013

 -----------------------------
 # b3lyp 6-31G(2df,p) opt Freq
 -----------------------------

 -----
 titel
 -----
 Symbolic Z-matrix:
 Charge =  0 Multiplicity = 1

 SCF Done:  E(RB3LYP) =  -423.200309885     A.U. after   14 cycles
 Optimization completed.
    -- Stationary point found.
 Normal termination of Gaussian 09 at Tue Jan 28 13:23:39 2020.

 ----------------------------------------------------------------------
 #N Geom=AllCheck Guess=TCheck SCRF=Check GenChk RB3LYP/6-31G(2df,p) Fr
 eq
 ----------------------------------------------------------------------

 Structure from the checkpoint file:  "/scratch/puck/g09_576008f8-1345-4c92-bd36-b5bf1192dc20/Gau-144641.chk"
 -----
 titel
 -----
 Charge =  0 Multiplicity = 1

                         Standard orientation:
 ---------------------------------------------------------------------
 Center     Atomic      Atomic             Coordinates (Angstroms)
 Number     Number       Type             X           Y           Z
 ---------------------------------------------------------------------
      1          6           0       -3.182839   -0.509462   -0.258075
      2          6           0       -1.812707    0.069022   -0.635732
      3          6           0       -0.688490   -0.703308    0.022347
      4          6           0       -0.188414   -0.396550    1.375439
      5          6           0        0.739943   -0.095120    0.189429
      6          6           0        0.987757    1.332887   -0.157626
      7          8           0        0.266104    2.250651    0.161272
      8          6           0        1.850938   -1.044581   -0.069840
      9          8           0        2.903433   -0.757301   -0.585155
     10          1           0       -3.985396    0.049910   -0.747375
     11          1           0       -3.274049   -1.558268   -0.561418
     12          1           0       -3.348319   -0.459579    0.822939
     13          1           0       -1.685736    0.033529   -1.724493
     14          1           0       -1.753438    1.119858   -0.343692
     15          1           0       -0.645372   -1.753867   -0.263230
     16          1           0       -0.559753    0.500029    1.861135
     17          1           0        0.109954   -1.202493    2.037908
     18          1           0        1.914125    1.497650   -0.738980
     19          1           0        1.634558   -2.090893    0.252622
 ---------------------------------------------------------------------

 SCF Done:  E(RB3LYP) =  -423.200309885     A.U. after    1 cycles

 The electronic state is 1-A.
 Alpha  occ. eigenvalues --  -19.14629 -19.14345 -10.28206 -10.27545 -10.23054
 Alpha  occ. eigenvalues --  -10.22312 -10.21855 -10.19611 -10.18573  -1.05602
 Alpha  occ. eigenvalues --   -1.04880  -0.89722  -0.77752  -0.70473  -0.65406
 Alpha  occ. eigenvalues --   -0.63968  -0.58600  -0.55097  -0.50647  -0.48882
 Alpha  occ. eigenvalues --   -0.47103  -0.44281  -0.43755  -0.43349  -0.41936
 Alpha  occ. eigenvalues --   -0.40739  -0.39321  -0.38023  -0.36467  -0.35425
 Alpha  occ. eigenvalues --   -0.32810  -0.29972  -0.27581  -0.24773
 Alpha virt. eigenvalues --   -0.03501  -0.03030   0.07909   0.09937   0.11179
 Alpha virt. eigenvalues --    0.12675   0.13417   0.14096   0.15535   0.16480
 Alpha virt. eigenvalues --    0.16721   0.17816   0.18941   0.20426   0.21194

 Mulliken charges:
               1
     1  C   -0.377955
     2  C   -0.217825
     3  C   -0.024659
     4  C   -0.315037
     5  C    0.099552
     6  C    0.085020
     7  O   -0.276645
     8  C    0.105835
     9  O   -0.265716
    10  H    0.121972
    11  H    0.115474
    12  H    0.122955
    13  H    0.106426
    14  H    0.142970
    15  H    0.102659
    16  H    0.154389
    17  H    0.129740
    18  H    0.118108
    19  H    0.072737
 Sum of Mulliken charges =   0.00000

 Dipole moment (field-independent basis, Debye):
    X=             -2.2616    Y=             -2.2753    Z=              0.7187  Tot=              3.2876
 Quadrupole moment (field-independent basis, Debye-Ang):
   XX=            -60.4182   YY=            -57.4527   ZZ=            -51.6626
   XY=              1.9206   XZ=              2.9754   YZ=             -1.7967

  Exact polarizability:  95.661   0.148  76.625  -5.265  -2.556  64.160
 Approx polarizability: 134.370  -0.839 118.776 -14.572  -1.448 100.128

                      1                      2                      3
                      A                      A                      A
 Frequencies --     69.4602                99.7595               142.3749
 Red. masses --      3.7024                 2.4883                 4.0933
 Frc consts  --      0.0105                 0.0146                 0.0489
 IR Inten    --      2.1291                 2.1205                10.6821

                      4                      5                      6
                      A                      A                      A
 Frequencies --    158.2775               199.1377               216.0735
 Red. masses --      2.8213                 1.5424                 6.2522
 Frc consts  --      0.0416                 0.0360                 0.1720
 IR Inten    --      3.6707                 0.2006                10.3840

                      7                      8                      9
                      A                      A                      A
 Frequencies --    251.8772               291.0826               297.2113
 Red. masses --      1.4320                 3.8531                 2.7651
 Frc consts  --      0.0535                 0.1923                 0.1439
 IR Inten    --      0.3037                 1.3944                 2.0041

                     10                     11                     12
                      A                      A                      A
 Frequencies --    411.2321               439.2348               501.2239
 Red. masses --      3.1522                 2.1142                 5.0777
 Frc consts  --      0.3141                 0.2403                 0.7516
 IR Inten    --      4.4361                 1.1507                 9.2500

                     13                     14                     15
                      A                      A                      A
 Frequencies --    674.8062               743.8416               758.9171
 Red. masses --      5.2243                 3.5702                 3.7510
 Frc consts  --      1.4016                 1.1639                 1.2729
 IR Inten    --     28.8082                15.6676                 3.7253

                     16                     17                     18
                      A                      A                      A
 Frequencies --    798.7776               857.2354               932.8019
 Red. masses --      1.2440                 1.9441                 1.3690
 Frc consts  --      0.4677                 0.8417                 0.7018
 IR Inten    --      6.4360                18.7466                23.9135

                     19                     20                     21
                      A                      A                      A
 Frequencies --    951.5671               989.6959              1030.2293
 Red. masses --      1.4151                 2.3583                 1.6490
 Frc consts  --      0.7549                 1.3610                 1.0312
 IR Inten    --     18.4395                36.1176                 9.1234

                     22                     23                     24
                      A                      A                      A
 Frequencies --   1059.7159              1070.1891              1081.5263
 Red. masses --      1.7397                 2.1444                 1.5468
 Frc consts  --      1.1511                 1.4471                 1.0660
 IR Inten    --      0.4965                16.6063                15.5118

                     25                     26                     27
                      A                      A                      A
 Frequencies --   1108.0097              1129.5858              1205.2951
 Red. masses --      1.5939                 1.7423                 1.7392
 Frc consts  --      1.1529                 1.3098                 1.4886
 IR Inten    --     28.1909                30.9176                 1.0263

                     28                     29                     30
                      A                      A                      A
 Frequencies --   1258.8048              1291.3369              1322.0391
 Red. masses --      1.9289                 1.3786                 2.1909
 Frc consts  --      1.8009                 1.3545                 2.2561
 IR Inten    --     19.8159                13.7811                38.1875

                     31                     32                     33
                      A                      A                      A
 Frequencies --   1350.2488              1409.4297              1415.9538
 Red. masses --      1.3844                 1.2846                 1.2938
 Frc consts  --      1.4871                 1.5035                 1.5283
 IR Inten    --      5.0004                 0.5279                 3.3326

                     34                     35                     36
                      A                      A                      A
 Frequencies --   1432.3544              1441.6747              1479.5586
 Red. masses --      1.3535                 1.2540                 1.4059
 Frc consts  --      1.6362                 1.5356                 1.8133
 IR Inten    --      1.9248                 5.8412                 6.2515

                     37                     38                     39
                      A                      A                      A
 Frequencies --   1495.7857              1498.2264              1510.1696
 Red. masses --      1.0845                 1.0397                 1.0866
 Frc consts  --      1.4296                 1.3751                 1.4600
 IR Inten    --      5.1936                 4.9670                 3.6612

                     40                     41                     42
                      A                      A                      A
 Frequencies --   1796.3300              1814.1652              2846.9093
 Red. masses --      9.8028                10.3567                 1.0823
 Frc consts  --     18.6369                20.0829                 5.1682
 IR Inten    --    170.6776               226.8048                95.0121

                     43                     44                     45
                      A                      A                      A
 Frequencies --   2966.4343              3033.9890              3038.3837
 Red. masses --      1.0854                 1.0372                 1.0667
 Frc consts  --      5.6272                 5.6255                 5.8021
 IR Inten    --     50.7519                24.6612                21.7484

                     46                     47                     48
                      A                      A                      A
 Frequencies --   3092.5226              3109.2479              3112.1324
 Red. masses --      1.0964                 1.0912                 1.1015
 Frc consts  --      6.1781                 6.2156                 6.2857
 IR Inten    --     14.2126                 3.2627                27.2770

                     49                     50                     51
                      A                      A                      A
 Frequencies --   3125.1735              3130.7455              3225.1462
 Red. masses --      1.0936                 1.0537                 1.1174
 Frc consts  --      6.2927                 6.0853                 6.8482
 IR Inten    --     21.5555                 7.2289                 1.1878

 - Thermochemistry -
 -------------------
 Temperature   298.150 Kelvin.  Pressure   1.00000 Atm.
 Atom     1 has atomic number  6 and mass  12.00000

 Molecular mass:   126.06808 amu.
 Principal axes and moments of inertia in atomic units:
                           1         2         3
     Eigenvalues --   710.425981645.291692013.12448
           X            0.99977   0.01907   0.01015
           Y           -0.01880   0.99950  -0.02542
           Z           -0.01063   0.02522   0.99963
 This molecule is an asymmetric top.
 Rotational symmetry number  1.
 Warning -- assumption of classical behavior for rotation
           may cause significant error
 Rotational temperatures (Kelvin)      0.12192     0.05264     0.04302
 Rotational constants (GHZ):           2.54036     1.09691     0.89649
 Zero-point vibrational energy     410713.3 (Joules/Mol)
                                   98.16283 (Kcal/Mol)
 Warning -- explicit consideration of  12 degrees of freedom as
           vibrations may cause significant error
 Vibrational temperatures:     99.94   143.53   204.85   227.73   286.51
          (Kelvin)            310.88   362.39   418.80   427.62   591.67
                              631.96   721.15   970.89  1070.22  1091.91
                             1149.26  1233.37  1342.09  1369.09  1423.95
                             1482.27  1524.69  1539.76  1556.07  1594.18
                             1625.22  1734.15  1811.14  1857.94  1902.12
                             1942.70  2027.85  2037.24  2060.84  2074.25
                             2128.75  2152.10  2155.61  2172.79  2584.51
                             2610.18  4096.06  4268.03  4365.23  4371.55
                             4449.44  4473.51  4477.66  4496.42  4504.44
                             4640.26

 Zero-point correction=                           0.156432 (Hartree/Particle)
 Thermal correction to Energy=                    0.166169
 Thermal correction to Enthalpy=                  0.167113
 Thermal correction to Gibbs Free Energy=         0.121499
 Sum of electronic and zero-point Energies=           -423.043877
 Sum of electronic and thermal Energies=              -423.034141
 Sum of electronic and thermal Enthalpies=            -423.033197
 Sum of electronic and thermal Free Energies=         -423.078810

                     E (Thermal)             CV                S
                      KCal/Mol        Cal/Mol-Kelvin    Cal/Mol-Kelvin
 Total                  104.273             34.711             96.002
 Electronic               0.000              0.000              0.000
 Translational            0.889              2.981             40.409
 Rotational               0.889              2.981             29.244
 Vibrational            102.495             28.750             26.350
 Vibration     1          0.598              1.969              4.169
 Vibration     2          0.604              1.949              3.459
 Vibration     3          0.616              1.911              2.772
 Vibration     4          0.621              1.893              2.570
 Vibration     5          0.637              1.841              2.141
 Vibration     6          0.645              1.817              1.992
 Vibration     7          0.664              1.760              1.717
 Vibration     8          0.687              1.690              1.468
 Vibration     9          0.691              1.679              1.433
 Vibration    10          0.775              1.446              0.922
 Vibration    11          0.799              1.385              0.829
 Vibration    12          0.857              1.247              0.655

 Optimization completed.
    -- Stationary point found.
 Normal termination of Gaussian 09 at Tue Jan 28 14:04:24 2020.
