 Gaussian 09, Revision D.01,
 Gaussian 09:  ES64L-G09RevD.01 24-Apr-2013

 -----------------------------
 # b3lyp 6-31G(2df,p) opt Freq
 -----------------------------

 -----
 titel
 -----
 Symbolic Z-matrix:
 Charge =  0 Multiplicity = 1

 SCF Done:  E(RB3LYP) =  -423.221544799     A.U. after   14 cycles
 Optimization completed.
    -- Stationary point found.
 Normal termination of Gaussian 09 at Mon Jan 27 12:59:37 2020.

 ----------------------------------------------------------------------
 #N Geom=AllCheck Guess=TCheck SCRF=Check GenChk RB3LYP/6-31G(2df,p) Fr
 eq
 ----------------------------------------------------------------------

 Structure from the checkpoint file:  "/scratch/puck/g09_b9d85e74-4e7d-478f-aa08-1c5679f66c6c/Gau-50660.chk"
 -----
 titel
 -----
 Charge =  0 Multiplicity = 1

                         Standard orientation:
 ---------------------------------------------------------------------
 Center     Atomic      Atomic             Coordinates (Angstroms)
 Number     Number       Type             X           Y           Z
 ---------------------------------------------------------------------
      1          8           0       -2.408419   -0.388451   -0.521419
      2          6           0       -1.345922    0.029047   -0.147060
      3          6           0       -0.629035    1.296776   -0.639102
      4          6           0        0.727018    1.269134    0.099465
      5          6           0        0.345475    0.604570    1.445694
      6          6           0       -0.435273   -0.609624    0.937771
      7          8           0        0.458593   -1.553109    0.345252
      8          6           0        1.143254   -1.061677   -0.805926
      9          6           0        1.739749    0.340305   -0.601320
     10          1           0       -0.564019    1.307794   -1.731311
     11          1           0       -1.227155    2.167057   -0.343181
     12          1           0        1.152279    2.267779    0.222975
     13          1           0        1.209135    0.313011    2.048458
     14          1           0       -0.298013    1.258467    2.046168
     15          1           0       -1.012591   -1.159306    1.681775
     16          1           0        1.925122   -1.795125   -1.019768
     17          1           0        0.460603   -1.056378   -1.670269
     18          1           0        2.644413    0.273913    0.013659
     19          1           0        2.037245    0.744084   -1.576305
 ---------------------------------------------------------------------

 SCF Done:  E(RB3LYP) =  -423.221544799     A.U. after    1 cycles

 The electronic state is 1-A.
 Alpha  occ. eigenvalues --  -19.14713 -19.13628 -10.26746 -10.23585 -10.23426
 Alpha  occ. eigenvalues --  -10.20290 -10.19403 -10.19197 -10.18938  -1.05079
 Alpha  occ. eigenvalues --   -1.03251  -0.84592  -0.77675  -0.71615  -0.66131
 Alpha  occ. eigenvalues --   -0.64545  -0.56480  -0.53681  -0.50898  -0.48137
 Alpha  occ. eigenvalues --   -0.45770  -0.45156  -0.43357  -0.42369  -0.41295
 Alpha  occ. eigenvalues --   -0.39678  -0.38889  -0.37318  -0.35880  -0.33673
 Alpha  occ. eigenvalues --   -0.32704  -0.31431  -0.27323  -0.22706
 Alpha virt. eigenvalues --   -0.02769   0.07384   0.10854   0.12278   0.13055
 Alpha virt. eigenvalues --    0.13984   0.14491   0.15205   0.16096   0.16346
 Alpha virt. eigenvalues --    0.17250   0.18565   0.19250   0.21162   0.21755

 Mulliken charges:
               1
     1  O   -0.317620
     2  C    0.397707
     3  C   -0.332035
     4  C   -0.022889
     5  C   -0.242839
     6  C    0.030423
     7  O   -0.270276
     8  C   -0.078782
     9  C   -0.220382
    10  H    0.126640
    11  H    0.130950
    12  H    0.072080
    13  H    0.107933
    14  H    0.100205
    15  H    0.094972
    16  H    0.114412
    17  H    0.104815
    18  H    0.104817
    19  H    0.099868
 Sum of Mulliken charges =   0.00000

 Dipole moment (field-independent basis, Debye):
    X=              2.4642    Y=              2.2360    Z=              0.2707  Tot=              3.3384
 Quadrupole moment (field-independent basis, Debye-Ang):
   XX=            -58.7658   YY=            -54.4676   ZZ=            -50.7980
   XY=             -2.0865   XZ=             -3.6063   YZ=              0.6767

  Exact polarizability:  79.054   0.451  71.105  -0.721   0.042  71.005
 Approx polarizability: 116.446   2.700 105.729   2.336  -0.433 105.454

                      1                      2                      3
                      A                      A                      A
 Frequencies --    104.3465               235.8591               275.2505
 Red. masses --      4.6336                 3.1453                 2.7906
 Frc consts  --      0.0297                 0.1031                 0.1246
 IR Inten    --      3.2126                 1.1601                 5.9570

                      4                      5                      6
                      A                      A                      A
 Frequencies --    347.8421               409.3820               418.5295
 Red. masses --      1.8931                 4.7408                 2.3458
 Frc consts  --      0.1350                 0.4681                 0.2421
 IR Inten    --      0.4008                 1.7947                 0.4888

                      7                      8                      9
                      A                      A                      A
 Frequencies --    466.9532               531.2247               597.0899
 Red. masses --      3.5442                 2.6228                 2.6580
 Frc consts  --      0.4553                 0.4361                 0.5583
 IR Inten    --      7.3779                 1.9451                 3.7218

                     10                     11                     12
                      A                      A                      A
 Frequencies --    642.1774               750.5532               791.6107
 Red. masses --      5.1981                 2.3441                 2.7513
 Frc consts  --      1.2630                 0.7780                 1.0158
 IR Inten    --      1.3969                 4.9534                 1.7659

                     13                     14                     15
                      A                      A                      A
 Frequencies --    813.1931               849.9945               883.1043
 Red. masses --      3.5326                 2.9788                 2.1319
 Frc consts  --      1.3764                 1.2680                 0.9796
 IR Inten    --      0.2025                18.1723                16.7282

                     16                     17                     18
                      A                      A                      A
 Frequencies --    894.2709               927.6682               956.6924
 Red. masses --      2.3893                 2.1266                 2.0837
 Frc consts  --      1.1258                 1.0783                 1.1237
 IR Inten    --      0.3992                 1.7022                 2.3572

                     19                     20                     21
                      A                      A                      A
 Frequencies --    997.6114              1037.3783              1038.8708
 Red. masses --      1.8371                 1.8142                 1.9082
 Frc consts  --      1.0772                 1.1503                 1.2134
 IR Inten    --      5.1826                19.5153                13.5871

                     22                     23                     24
                      A                      A                      A
 Frequencies --   1083.0838              1101.8425              1137.3518
 Red. masses --      2.2284                 2.1694                 1.5885
 Frc consts  --      1.5402                 1.5517                 1.2107
 IR Inten    --     38.5094                18.1040                10.0922

                     25                     26                     27
                      A                      A                      A
 Frequencies --   1148.5389              1186.1949              1207.1711
 Red. masses --      1.7874                 1.5582                 1.8609
 Frc consts  --      1.3892                 1.2918                 1.5977
 IR Inten    --     13.0371                11.4525                34.8251

                     28                     29                     30
                      A                      A                      A
 Frequencies --   1246.5317              1264.8587              1281.9297
 Red. masses --      1.5267                 1.3996                 1.3208
 Frc consts  --      1.3976                 1.3193                 1.2789
 IR Inten    --      3.5328                 0.4037                 4.7927

                     31                     32                     33
                      A                      A                      A
 Frequencies --   1318.6408              1329.3694              1346.8014
 Red. masses --      1.5222                 1.5184                 1.3934
 Frc consts  --      1.5595                 1.5810                 1.4892
 IR Inten    --      2.1366                 5.5459                 1.3142

                     34                     35                     36
                      A                      A                      A
 Frequencies --   1360.0365              1378.4684              1413.9004
 Red. masses --      1.3956                 1.3576                 1.3263
 Frc consts  --      1.5210                 1.5198                 1.5622
 IR Inten    --      1.2114                 0.5567                 6.9832

                     37                     38                     39
                      A                      A                      A
 Frequencies --   1447.0437              1474.4088              1489.7768
 Red. masses --      1.0886                 1.0970                 1.0974
 Frc consts  --      1.3430                 1.4050                 1.4350
 IR Inten    --     10.8344                 2.6798                 5.2953

                     40                     41                     42
                      A                      A                      A
 Frequencies --   1512.9425              1857.5154              2980.7628
 Red. masses --      1.0854                12.6180                 1.0723
 Frc consts  --      1.4638                25.6510                 5.6132
 IR Inten    --      1.5034               186.6607                41.6658

                     43                     44                     45
                      A                      A                      A
 Frequencies --   3031.0609              3038.7951              3042.7202
 Red. masses --      1.0596                 1.0634                 1.0636
 Frc consts  --      5.7358                 5.7857                 5.8016
 IR Inten    --     25.0174                19.9521                11.1464

                     46                     47                     48
                      A                      A                      A
 Frequencies --   3073.3553              3078.2148              3091.3326
 Red. masses --      1.1022                 1.0865                 1.0940
 Frc consts  --      6.1339                 6.0659                 6.1594
 IR Inten    --     29.0367                40.1476                34.4440

                     49                     50                     51
                      A                      A                      A
 Frequencies --   3093.5235              3103.6750              3116.8389
 Red. masses --      1.0992                 1.1012                 1.0889
 Frc consts  --      6.1979                 6.2498                 6.2324
 IR Inten    --     11.2404                24.8518                22.1193

 - Thermochemistry -
 -------------------
 Temperature   298.150 Kelvin.  Pressure   1.00000 Atm.
 Atom     1 has atomic number  8 and mass  15.99491

 Molecular mass:   126.06808 amu.
 Principal axes and moments of inertia in atomic units:
                           1         2         3
     Eigenvalues --   727.901111019.383121175.99569
           X            0.99940  -0.01192  -0.03265
           Y            0.01281   0.99954   0.02743
           Z            0.03231  -0.02783   0.99909
 This molecule is an asymmetric top.
 Rotational symmetry number  1.
 Warning -- assumption of classical behavior for rotation
           may cause significant error
 Rotational temperatures (Kelvin)      0.11899     0.08497     0.07365
 Rotational constants (GHZ):           2.47938     1.77042     1.53465
 Zero-point vibrational energy     425908.2 (Joules/Mol)
                                  101.79450 (Kcal/Mol)
 Warning -- explicit consideration of   9 degrees of freedom as
           vibrations may cause significant error
 Vibrational temperatures:    150.13   339.35   396.02   500.47   589.01
          (Kelvin)            602.17   671.84   764.31   859.08   923.95
                             1079.88  1138.95  1170.00  1222.95  1270.59
                             1286.65  1334.71  1376.47  1435.34  1492.55
                             1494.70  1558.31  1585.30  1636.39  1652.49
                             1706.67  1736.85  1793.48  1819.85  1844.41
                             1897.23  1912.66  1937.74  1956.79  1983.31
                             2034.28  2081.97  2121.34  2143.45  2176.78
                             2672.55  4288.65  4361.02  4372.14  4377.79
                             4421.87  4428.86  4447.73  4450.88  4465.49
                             4484.43

 Zero-point correction=                           0.162220 (Hartree/Particle)
 Thermal correction to Energy=                    0.169307
 Thermal correction to Enthalpy=                  0.170251
 Thermal correction to Gibbs Free Energy=         0.130902
 Sum of electronic and zero-point Energies=           -423.059325
 Sum of electronic and thermal Energies=              -423.052238
 Sum of electronic and thermal Enthalpies=            -423.051293
 Sum of electronic and thermal Free Energies=         -423.090642

                     E (Thermal)             CV                S
                      KCal/Mol        Cal/Mol-Kelvin    Cal/Mol-Kelvin
 Total                  106.242             28.993             82.817
 Electronic               0.000              0.000              0.000
 Translational            0.889              2.981             40.409
 Rotational               0.889              2.981             28.258
 Vibrational            104.464             23.031             14.150
 Vibration     1          0.605              1.946              3.371
 Vibration     2          0.655              1.786              1.834
 Vibration     3          0.677              1.719              1.563
 Vibration     4          0.725              1.580              1.176
 Vibration     5          0.774              1.450              0.929
 Vibration     6          0.781              1.430              0.897
 Vibration     7          0.824              1.323              0.746
 Vibration     8          0.886              1.181              0.584
 Vibration     9          0.955              1.038              0.455

 Optimization completed.
    -- Stationary point found.
 Normal termination of Gaussian 09 at Mon Jan 27 13:43:56 2020.
