 Gaussian 09, Revision D.01,
 Gaussian 09:  ES64L-G09RevD.01 24-Apr-2013

 -----------------------------
 # b3lyp 6-31G(2df,p) opt Freq
 -----------------------------

 -----
 titel
 -----
 Symbolic Z-matrix:
 Charge =  0 Multiplicity = 1

 SCF Done:  E(RB3LYP) =  -423.152904416     A.U. after   14 cycles
 Optimization completed.
    -- Stationary point found.
 Normal termination of Gaussian 09 at Mon Jan 27 16:24:52 2020.

 ----------------------------------------------------------------------
 #N Geom=AllCheck Guess=TCheck SCRF=Check GenChk RB3LYP/6-31G(2df,p) Fr
 eq
 ----------------------------------------------------------------------

 Structure from the checkpoint file:  "/scratch/puck/g09_53a15900-a709-4758-87a8-83b7c070ce87/Gau-177084.chk"
 -----
 titel
 -----
 Charge =  0 Multiplicity = 1

                         Standard orientation:
 ---------------------------------------------------------------------
 Center     Atomic      Atomic             Coordinates (Angstroms)
 Number     Number       Type             X           Y           Z
 ---------------------------------------------------------------------
      1          6           0       -0.471184   -1.842717   -0.658784
      2          6           0       -0.743607   -0.489294   -0.015065
      3          6           0       -2.002399   -0.518493    0.860585
      4          8           0       -0.919108    0.483923   -1.060897
      5          6           0       -0.237363    1.670076   -0.707331
      6          8           0        0.215560    1.522880    0.620767
      7          6           0        0.444372    0.124438    0.789860
      8          6           0        1.778228   -0.268660    0.329845
      9          6           0        2.883526   -0.569876   -0.033986
     10          1           0       -1.341783   -2.153721   -1.242971
     11          1           0        0.394007   -1.788902   -1.321209
     12          1           0       -0.281187   -2.604419    0.103771
     13          1           0       -2.878839   -0.710375    0.235999
     14          1           0       -1.938419   -1.306488    1.618320
     15          1           0       -2.140615    0.441781    1.364731
     16          1           0        0.606593    1.822913   -1.398921
     17          1           0       -0.910035    2.535216   -0.737352
     18          1           0        0.347864   -0.085376    1.858921
     19          1           0        3.861368   -0.837895   -0.350995
 ---------------------------------------------------------------------

 SCF Done:  E(RB3LYP) =  -423.152904416     A.U. after    1 cycles

 The electronic state is 1-A.
 Alpha  occ. eigenvalues --  -19.15588 -19.14129 -10.27336 -10.26138 -10.24982
 Alpha  occ. eigenvalues --  -10.18788 -10.18398 -10.17699 -10.17616  -1.09081
 Alpha  occ. eigenvalues --   -0.99613  -0.81550  -0.75808  -0.70495  -0.69413
 Alpha  occ. eigenvalues --   -0.64647  -0.57937  -0.54768  -0.51074  -0.50653
 Alpha  occ. eigenvalues --   -0.47721  -0.44622  -0.44111  -0.42217  -0.40138
 Alpha  occ. eigenvalues --   -0.38747  -0.37811  -0.35861  -0.34095  -0.33736
 Alpha  occ. eigenvalues --   -0.28897  -0.27782  -0.27495  -0.24990
 Alpha virt. eigenvalues --    0.02995   0.04122   0.09353   0.10942   0.12018
 Alpha virt. eigenvalues --    0.13291   0.14678   0.15104   0.15987   0.16303
 Alpha virt. eigenvalues --    0.17401   0.18111   0.18778   0.19190   0.21273

 Mulliken charges:
               1
     1  C   -0.426995
     2  C    0.369707
     3  C   -0.422983
     4  O   -0.301728
     5  C    0.015741
     6  O   -0.240841
     7  C   -0.169843
     8  C    0.361640
     9  C   -0.457873
    10  H    0.123491
    11  H    0.134891
    12  H    0.116624
    13  H    0.124639
    14  H    0.112473
    15  H    0.129390
    16  H    0.100168
    17  H    0.112796
    18  H    0.116309
    19  H    0.202394
 Sum of Mulliken charges =   0.00000

 Dipole moment (field-independent basis, Debye):
    X=              0.1756    Y=             -1.0031    Z=              0.2712  Tot=              1.0538
 Quadrupole moment (field-independent basis, Debye-Ang):
   XX=            -49.5408   YY=            -52.5452   ZZ=            -54.1782
   XY=             -1.4010   XZ=             -2.9091   YZ=             -2.1522

  Exact polarizability:  92.134  -4.938  73.663  -5.797  -1.905  63.444
 Approx polarizability: 132.716 -11.308 103.084 -10.369  -0.282  98.313

                      1                      2                      3
                      A                      A                      A
 Frequencies --     49.6981               113.3167               150.7156
 Red. masses --      3.3346                 2.7711                 3.4923
 Frc consts  --      0.0049                 0.0210                 0.0467
 IR Inten    --      3.0359                 2.4794                 0.3663

                      4                      5                      6
                      A                      A                      A
 Frequencies --    209.7768               251.7021               264.2308
 Red. masses --      1.0855                 3.4875                 1.0906
 Frc consts  --      0.0281                 0.1302                 0.0449
 IR Inten    --      0.0179                 4.2673                 0.4061

                      7                      8                      9
                      A                      A                      A
 Frequencies --    295.5095               340.9479               375.3186
 Red. masses --      3.1431                 2.4939                 2.7498
 Frc consts  --      0.1617                 0.1708                 0.2282
 IR Inten    --      3.3022                 1.7727                 1.1888

                     10                     11                     12
                      A                      A                      A
 Frequencies --    402.7087               507.3626               552.7790
 Red. masses --      4.0070                 4.9173                 5.0827
 Frc consts  --      0.3829                 0.7458                 0.9150
 IR Inten    --      3.1460                 1.7610                 9.1123

                     13                     14                     15
                      A                      A                      A
 Frequencies --    633.1841               636.5268               671.7366
 Red. masses --      1.3271                 3.4200                 1.2591
 Frc consts  --      0.3135                 0.8164                 0.3347
 IR Inten    --     34.3207                 5.4737                32.7149

                     16                     17                     18
                      A                      A                      A
 Frequencies --    740.5061               842.1819               875.8155
 Red. masses --      7.2209                 4.4131                 2.7651
 Frc consts  --      2.3329                 1.8442                 1.2497
 IR Inten    --      1.5890                18.4682                 3.5004

                     19                     20                     21
                      A                      A                      A
 Frequencies --    930.6332               950.4354               961.9308
 Red. masses --      1.7852                 2.5665                 2.4449
 Frc consts  --      0.9109                 1.3660                 1.3329
 IR Inten    --      3.1641                18.3304                34.5862

                     22                     23                     24
                      A                      A                      A
 Frequencies --    996.0350              1033.4783              1043.3109
 Red. masses --      1.7376                 4.5077                 2.4664
 Frc consts  --      1.0157                 2.8366                 1.5817
 IR Inten    --     11.8046                44.5493                36.6269

                     25                     26                     27
                      A                      A                      A
 Frequencies --   1119.1259              1155.0426              1178.8599
 Red. masses --      5.3873                 1.6750                 1.8998
 Frc consts  --      3.9754                 1.3166                 1.5555
 IR Inten    --    184.1915                16.7645                38.1956

                     28                     29                     30
                      A                      A                      A
 Frequencies --   1206.5146              1216.2561              1266.7005
 Red. masses --      1.9158                 1.3219                 2.4530
 Frc consts  --      1.6431                 1.1521                 2.3190
 IR Inten    --      8.7905                28.6628                16.7951

                     31                     32                     33
                      A                      A                      A
 Frequencies --   1295.7291              1353.1593              1398.3784
 Red. masses --      1.7206                 1.2792                 1.2939
 Frc consts  --      1.7020                 1.3800                 1.4908
 IR Inten    --     15.9633                11.2736                 7.6388

                     34                     35                     36
                      A                      A                      A
 Frequencies --   1416.5847              1428.6943              1476.3216
 Red. masses --      1.2518                 1.2420                 1.0493
 Frc consts  --      1.4801                 1.4937                 1.3474
 IR Inten    --      5.2179                10.3571                 1.6337

                     37                     38                     39
                      A                      A                      A
 Frequencies --   1483.9140              1495.9472              1507.3468
 Red. masses --      1.0490                 1.0611                 1.0530
 Frc consts  --      1.3609                 1.3991                 1.4097
 IR Inten    --      1.5906                 0.3434                 6.4412

                     40                     41                     42
                      A                      A                      A
 Frequencies --   1547.1681              2231.7697              2974.4110
 Red. masses --      1.0968                 5.8976                 1.0661
 Frc consts  --      1.5468                17.3071                 5.5570
 IR Inten    --      3.5374                 2.0587                95.7740

                     43                     44                     45
                      A                      A                      A
 Frequencies --   3039.0258              3048.5001              3052.9750
 Red. masses --      1.0357                 1.0366                 1.0990
 Frc consts  --      5.6358                 5.6760                 6.0355
 IR Inten    --     11.3267                15.0080                56.3263

                     46                     47                     48
                      A                      A                      A
 Frequencies --   3073.6971              3111.2647              3117.3652
 Red. masses --      1.0849                 1.1007                 1.1010
 Frc consts  --      6.0391                 6.2774                 6.3042
 IR Inten    --     11.1124                 4.9196                28.8838

                     49                     50                     51
                      A                      A                      A
 Frequencies --   3126.3731              3143.0739              3500.1803
 Red. masses --      1.1025                 1.1008                 1.1626
 Frc consts  --      6.3490                 6.4074                 8.3918
 IR Inten    --     18.5867                14.1623                63.9328

 - Thermochemistry -
 -------------------
 Temperature   298.150 Kelvin.  Pressure   1.00000 Atm.
 Atom     1 has atomic number  6 and mass  12.00000

 Molecular mass:   126.06808 amu.
 Principal axes and moments of inertia in atomic units:
                           1         2         3
     Eigenvalues --   787.267601123.417191433.22375
           X            0.99910   0.02261  -0.03589
           Y           -0.02315   0.99963  -0.01457
           Z            0.03554   0.01539   0.99925
 This molecule is an asymmetric top.
 Rotational symmetry number  1.
 Warning -- assumption of classical behavior for rotation
           may cause significant error
 Rotational temperatures (Kelvin)      0.11002     0.07710     0.06043
 Rotational constants (GHZ):           2.29241     1.60647     1.25922
 Zero-point vibrational energy     411480.8 (Joules/Mol)
                                   98.34627 (Kcal/Mol)
 Warning -- explicit consideration of  12 degrees of freedom as
           vibrations may cause significant error
 Vibrational temperatures:     71.50   163.04   216.85   301.82   362.14
          (Kelvin)            380.17   425.17   490.55   540.00   579.41
                              729.98   795.32   911.01   915.82   966.48
                             1065.42  1211.71  1260.10  1338.97  1367.46
                             1384.00  1433.07  1486.94  1501.09  1610.17
                             1661.85  1696.11  1735.90  1749.92  1822.50
                             1864.26  1946.89  2011.95  2038.15  2055.57
                             2124.09  2135.02  2152.33  2168.73  2226.03
                             3211.01  4279.51  4372.47  4386.11  4392.54
                             4422.36  4476.41  4485.19  4498.15  4522.18
                             5035.97

 Zero-point correction=                           0.156725 (Hartree/Particle)
 Thermal correction to Energy=                    0.166126
 Thermal correction to Enthalpy=                  0.167070
 Thermal correction to Gibbs Free Energy=         0.122540
 Sum of electronic and zero-point Energies=           -422.996180
 Sum of electronic and thermal Energies=              -422.986779
 Sum of electronic and thermal Enthalpies=            -422.985834
 Sum of electronic and thermal Free Energies=         -423.030365

                     E (Thermal)             CV                S
                      KCal/Mol        Cal/Mol-Kelvin    Cal/Mol-Kelvin
 Total                  104.246             35.013             93.722
 Electronic               0.000              0.000              0.000
 Translational            0.889              2.981             40.409
 Rotational               0.889              2.981             28.629
 Vibrational            102.468             29.052             24.684
 Vibration     1          0.595              1.978              4.829
 Vibration     2          0.607              1.938              3.211
 Vibration     3          0.618              1.902              2.663
 Vibration     4          0.642              1.826              2.046
 Vibration     5          0.664              1.760              1.719
 Vibration     6          0.671              1.739              1.634
 Vibration     7          0.690              1.682              1.442
 Vibration     8          0.720              1.594              1.208
 Vibration     9          0.746              1.523              1.058
 Vibration    10          0.768              1.464              0.953
 Vibration    11          0.863              1.234              0.640
 Vibration    12          0.908              1.134              0.538

 Optimization completed.
    -- Stationary point found.
 Normal termination of Gaussian 09 at Mon Jan 27 17:09:07 2020.
