 Gaussian 09, Revision D.01,
 Gaussian 09:  ES64L-G09RevD.01 24-Apr-2013

 -----------------------------
 # b3lyp 6-31G(2df,p) opt Freq
 -----------------------------

 -----
 titel
 -----
 Symbolic Z-matrix:
 Charge =  0 Multiplicity = 1

 SCF Done:  E(RB3LYP) =  -423.122147210     A.U. after   13 cycles
 Optimization completed.
    -- Stationary point found.
 Normal termination of Gaussian 09 at Mon Jan 27 23:10:16 2020.

 ----------------------------------------------------------------------
 #N Geom=AllCheck Guess=TCheck SCRF=Check GenChk RB3LYP/6-31G(2df,p) Fr
 eq
 ----------------------------------------------------------------------

 Structure from the checkpoint file:  "/scratch/puck/g09_37f3dec3-4ad0-477d-8cdc-66ee68cd1687/Gau-79894.chk"
 -----
 titel
 -----
 Charge =  0 Multiplicity = 1

                         Standard orientation:
 ---------------------------------------------------------------------
 Center     Atomic      Atomic             Coordinates (Angstroms)
 Number     Number       Type             X           Y           Z
 ---------------------------------------------------------------------
      1          6           0        2.236360    0.096368   -0.972232
      2          6           0        1.394956    0.160183    0.292911
      3          6           0        0.639541   -1.115358    0.773679
      4          8           0       -0.151823   -1.526434   -0.380426
      5          6           0       -0.966776   -0.374651   -0.124656
      6          6           0       -2.271811   -0.211962   -0.822576
      7          6           0       -0.532195   -0.217037    1.302665
      8          6           0       -0.010479    0.777563    0.278764
      9          8           0       -0.364068    2.109204    0.204138
     10          1           0        2.483694    1.102656   -1.328781
     11          1           0        3.181330   -0.428840   -0.795055
     12          1           0        1.695351   -0.430706   -1.762223
     13          1           0        1.953280    0.580395    1.136914
     14          1           0        1.135514   -1.940270    1.280266
     15          1           0       -2.726122    0.741008   -0.536200
     16          1           0       -2.130262   -0.214147   -1.909445
     17          1           0       -2.965200   -1.019505   -0.568811
     18          1           0       -1.048733   -0.111307    2.246335
     19          1           0       -0.389295    2.367920   -0.724023
 ---------------------------------------------------------------------

 SCF Done:  E(RB3LYP) =  -423.122147210     A.U. after    1 cycles

 The electronic state is 1-A.
 Alpha  occ. eigenvalues --  -19.15618 -19.13177 -10.23995 -10.23898 -10.23749
 Alpha  occ. eigenvalues --  -10.18800 -10.18679 -10.18545 -10.16888  -1.06173
 Alpha  occ. eigenvalues --   -1.03384  -0.84915  -0.77001  -0.72838  -0.65646
 Alpha  occ. eigenvalues --   -0.62030  -0.57117  -0.54048  -0.50244  -0.47437
 Alpha  occ. eigenvalues --   -0.45554  -0.44161  -0.42816  -0.41318  -0.39978
 Alpha  occ. eigenvalues --   -0.39318  -0.37375  -0.36499  -0.35148  -0.33128
 Alpha  occ. eigenvalues --   -0.30384  -0.28063  -0.25467  -0.21407
 Alpha virt. eigenvalues --    0.06450   0.08825   0.10073   0.12549   0.13219
 Alpha virt. eigenvalues --    0.14154   0.14755   0.15455   0.16227   0.16802
 Alpha virt. eigenvalues --    0.17750   0.19012   0.19400   0.20966   0.21501

 Mulliken charges:
               1
     1  C   -0.429937
     2  C   -0.042917
     3  C    0.042176
     4  O   -0.323376
     5  C    0.394493
     6  C   -0.517089
     7  C   -0.247956
     8  C    0.275203
     9  O   -0.458374
    10  H    0.109710
    11  H    0.113909
    12  H    0.131296
    13  H    0.078966
    14  H    0.083796
    15  H    0.134335
    16  H    0.128196
    17  H    0.133689
    18  H    0.103353
    19  H    0.290525
 Sum of Mulliken charges =   0.00000

 Dipole moment (field-independent basis, Debye):
    X=             -0.0934    Y=              0.7686    Z=             -0.2491  Tot=              0.8133
 Quadrupole moment (field-independent basis, Debye-Ang):
   XX=            -50.3812   YY=            -56.4291   ZZ=            -50.9041
   XY=             -0.8892   XZ=              1.5178   YZ=             -5.6722

  Exact polarizability:  82.877  -0.201  70.444   1.413  -3.299  70.582
 Approx polarizability: 108.509  -0.185 109.914   3.122  -2.041 108.454

                      1                      2                      3
                      A                      A                      A
 Frequencies --    156.0406               185.4992               189.1063
 Red. masses --      2.5899                 1.0514                 1.2658
 Frc consts  --      0.0372                 0.0213                 0.0267
 IR Inten    --      1.2758                 3.3073                 0.4515

                      4                      5                      6
                      A                      A                      A
 Frequencies --    204.3440               217.0984               275.8777
 Red. masses --      2.0874                 2.6801                 1.2417
 Frc consts  --      0.0514                 0.0744                 0.0557
 IR Inten    --      0.8444                 0.3117                89.9317

                      7                      8                      9
                      A                      A                      A
 Frequencies --    290.2448               373.6816               428.3812
 Red. masses --      3.3128                 2.7322                 3.5117
 Frc consts  --      0.1644                 0.2248                 0.3797
 IR Inten    --      6.7409                21.4694                 4.4156

                     10                     11                     12
                      A                      A                      A
 Frequencies --    541.1173               586.4651               628.6564
 Red. masses --      4.9928                 2.8699                 3.6784
 Frc consts  --      0.8613                 0.5816                 0.8565
 IR Inten    --      3.1850                 3.0182                 1.4485

                     13                     14                     15
                      A                      A                      A
 Frequencies --    661.2358               729.2772               767.9192
 Red. masses --      3.7730                 3.7769                 2.8154
 Frc consts  --      0.9720                 1.1835                 0.9782
 IR Inten    --      4.4388                 5.0176                 1.2784

                     16                     17                     18
                      A                      A                      A
 Frequencies --    804.3956               858.7660               885.2431
 Red. masses --      2.1067                 1.9136                 2.0915
 Frc consts  --      0.8031                 0.8315                 0.9657
 IR Inten    --      9.7335                 7.5061                18.1196

                     19                     20                     21
                      A                      A                      A
 Frequencies --    924.3137               930.1009               949.5342
 Red. masses --      2.0287                 3.2009                 2.5248
 Frc consts  --      1.0212                 1.6315                 1.3412
 IR Inten    --      4.3537                30.5002                28.4913

                     22                     23                     24
                      A                      A                      A
 Frequencies --   1032.8985              1054.1097              1084.5821
 Red. masses --      2.3589                 1.4946                 1.8214
 Frc consts  --      1.4828                 0.9785                 1.2623
 IR Inten    --      4.2589                 5.7772                12.6970

                     25                     26                     27
                      A                      A                      A
 Frequencies --   1117.1125              1125.8213              1132.3507
 Red. masses --      1.8343                 2.1936                 1.8694
 Frc consts  --      1.3487                 1.6381                 1.4123
 IR Inten    --      1.6742                 5.0906                 4.9517

                     28                     29                     30
                      A                      A                      A
 Frequencies --   1159.5553              1207.4787              1232.1359
 Red. masses --      2.3350                 1.8966                 2.1054
 Frc consts  --      1.8497                 1.6292                 1.8832
 IR Inten    --     34.5262                 9.5137                12.0917

                     31                     32                     33
                      A                      A                      A
 Frequencies --   1273.4021              1305.7462              1356.7291
 Red. masses --      1.8836                 1.4457                 1.6291
 Frc consts  --      1.7996                 1.4523                 1.7668
 IR Inten    --    127.9010                22.5089                 1.3260

                     34                     35                     36
                      A                      A                      A
 Frequencies --   1385.7737              1401.4193              1421.3953
 Red. masses --      1.4452                 1.3201                 2.0927
 Frc consts  --      1.6352                 1.5276                 2.4911
 IR Inten    --      5.9992                 7.9261                11.8482

                     37                     38                     39
                      A                      A                      A
 Frequencies --   1453.6063              1477.6089              1492.9941
 Red. masses --      4.5759                 1.0495                 1.0535
 Frc consts  --      5.6966                 1.3500                 1.3836
 IR Inten    --     17.9165                 4.2621                 4.0771

                     40                     41                     42
                      A                      A                      A
 Frequencies --   1501.8881              1504.3066              3030.8487
 Red. masses --      1.0951                 1.0646                 1.0372
 Frc consts  --      1.4554                 1.4194                 5.6137
 IR Inten    --      2.7731                 8.7154                30.5787

                     43                     44                     45
                      A                      A                      A
 Frequencies --   3032.8770              3052.3554              3089.7903
 Red. masses --      1.0361                 1.0837                 1.1005
 Frc consts  --      5.6153                 5.9488                 6.1898
 IR Inten    --     25.1451                22.3362                22.8436

                     46                     47                     48
                      A                      A                      A
 Frequencies --   3096.7190              3118.1022              3122.5262
 Red. masses --      1.0999                 1.1005                 1.0999
 Frc consts  --      6.2145                 6.3040                 6.3187
 IR Inten    --     16.1187                11.1744                17.0661

                     49                     50                     51
                      A                      A                      A
 Frequencies --   3145.0335              3213.4662              3790.2419
 Red. masses --      1.0928                 1.0984                 1.0661
 Frc consts  --      6.3687                 6.6826                 9.0236
 IR Inten    --     34.0052                 5.8466                22.7468

 - Thermochemistry -
 -------------------
 Temperature   298.150 Kelvin.  Pressure   1.00000 Atm.
 Atom     1 has atomic number  6 and mass  12.00000

 Molecular mass:   126.06808 amu.
 Principal axes and moments of inertia in atomic units:
                           1         2         3
     Eigenvalues --   776.098731015.102871289.03219
           X            0.99999   0.00342  -0.00027
           Y           -0.00343   0.99892  -0.04626
           Z            0.00011   0.04626   0.99893
 This molecule is an asymmetric top.
 Rotational symmetry number  1.
 Warning -- assumption of classical behavior for rotation
           may cause significant error
 Rotational temperatures (Kelvin)      0.11160     0.08533     0.06719
 Rotational constants (GHZ):           2.32540     1.77789     1.40007
 Zero-point vibrational energy     412712.7 (Joules/Mol)
                                   98.64070 (Kcal/Mol)
 Warning -- explicit consideration of  11 degrees of freedom as
           vibrations may cause significant error
 Vibrational temperatures:    224.51   266.89   272.08   294.01   312.36
          (Kelvin)            396.93   417.60   537.64   616.34   778.55
                              843.79   904.50   951.37  1049.27  1104.86
                             1157.34  1235.57  1273.67  1329.88  1338.21
                             1366.17  1486.11  1516.63  1560.47  1607.27
                             1619.80  1629.20  1668.34  1737.29  1772.77
                             1832.14  1878.68  1952.03  1993.82  2016.33
                             2045.07  2091.41  2125.95  2148.08  2160.88
                             2164.36  4360.71  4363.63  4391.65  4445.51
                             4455.48  4486.25  4492.61  4525.00  4623.46
                             5453.31

 Zero-point correction=                           0.157194 (Hartree/Particle)
 Thermal correction to Energy=                    0.165866
 Thermal correction to Enthalpy=                  0.166810
 Thermal correction to Gibbs Free Energy=         0.124591
 Sum of electronic and zero-point Energies=           -422.964953
 Sum of electronic and thermal Energies=              -422.956281
 Sum of electronic and thermal Enthalpies=            -422.955337
 Sum of electronic and thermal Free Energies=         -422.997556

                     E (Thermal)             CV                S
                      KCal/Mol        Cal/Mol-Kelvin    Cal/Mol-Kelvin
 Total                  104.082             33.720             88.857
 Electronic               0.000              0.000              0.000
 Translational            0.889              2.981             40.409
 Rotational               0.889              2.981             28.409
 Vibrational            102.305             27.759             20.040
 Vibration     1          0.620              1.896              2.597
 Vibration     2          0.632              1.860              2.272
 Vibration     3          0.633              1.855              2.237
 Vibration     4          0.640              1.834              2.094
 Vibration     5          0.646              1.815              1.983
 Vibration     6          0.678              1.718              1.559
 Vibration     7          0.686              1.692              1.473
 Vibration     8          0.745              1.526              1.065
 Vibration     9          0.790              1.408              0.864
 Vibration    10          0.896              1.159              0.563
 Vibration    11          0.944              1.061              0.474

 Normal termination of Gaussian 09 at Mon Jan 27 23:56:31 2020.
