 Gaussian 09, Revision D.01,
 Gaussian 09:  ES64L-G09RevD.01 24-Apr-2013

 -----------------------------
 # b3lyp 6-31G(2df,p) opt Freq
 -----------------------------

 -----
 titel
 -----
 Symbolic Z-matrix:
 Charge =  0 Multiplicity = 1

 SCF Done:  E(RB3LYP) =  -423.206963414     A.U. after   14 cycles
 SCF Done:  E(RB3LYP) =  -423.206963501     A.U. after    7 cycles
 Optimization completed.
    -- Stationary point found.
 Normal termination of Gaussian 09 at Mon Jan 27 16:21:58 2020.

 ----------------------------------------------------------------------
 #N Geom=AllCheck Guess=TCheck SCRF=Check GenChk RB3LYP/6-31G(2df,p) Fr
 eq
 ----------------------------------------------------------------------

 Structure from the checkpoint file:  "/scratch/puck/g09_fd7bc33d-daec-49b5-88d5-58e82e25361d/Gau-83452.chk"
 -----
 titel
 -----
 Charge =  0 Multiplicity = 1

                         Standard orientation:
 ---------------------------------------------------------------------
 Center     Atomic      Atomic             Coordinates (Angstroms)
 Number     Number       Type             X           Y           Z
 ---------------------------------------------------------------------
      1          6           0        1.462072    1.473813    0.620571
      2          6           0        1.184587    0.070608    0.094194
      3          6           0        2.457912   -0.603629   -0.421413
      4          6           0        0.366263   -0.882395    1.038713
      5          6           0       -0.697469   -1.094127   -0.087204
      6          6           0        0.048024   -0.058056   -0.960692
      7          8           0       -1.049871    0.891303   -0.769403
      8          6           0       -1.783889   -0.027650   -0.044634
      9          8           0       -2.874061    0.114589    0.405520
     10          1           0        2.136090    1.430510    1.483298
     11          1           0        1.939391    2.094853   -0.145638
     12          1           0        0.540919    1.973226    0.929621
     13          1           0        2.251705   -1.598950   -0.831258
     14          1           0        2.924285   -0.005372   -1.211967
     15          1           0        3.186301   -0.722010    0.387601
     16          1           0        0.899242   -1.796527    1.307050
     17          1           0       -0.025681   -0.428401    1.951256
     18          1           0       -0.977197   -2.103676   -0.378052
     19          1           0        0.291398   -0.162168   -2.018059
 ---------------------------------------------------------------------

 SCF Done:  E(RB3LYP) =  -423.206963501     Actions of A   symmetry.
 SCF Done:  E(RB3LYP) =  -423.206963501     A.U. after    1 cycles

 The electronic state is 1-A.
 Alpha  occ. eigenvalues --  -19.17863 -19.13318 -10.30607 -10.25150 -10.21243
 Alpha  occ. eigenvalues --  -10.21229 -10.20266 -10.19064 -10.18107  -1.10375
 Alpha  occ. eigenvalues --   -1.03171  -0.86050  -0.76606  -0.69891  -0.67536
 Alpha  occ. eigenvalues --   -0.66090  -0.57218  -0.52260  -0.50841  -0.49520
 Alpha  occ. eigenvalues --   -0.47658  -0.44753  -0.43157  -0.42239  -0.41370
 Alpha  occ. eigenvalues --   -0.40501  -0.38740  -0.37101  -0.34565  -0.34376
 Alpha  occ. eigenvalues --   -0.33451  -0.30796  -0.28939  -0.27059
 Alpha virt. eigenvalues --    0.00920   0.07187   0.08460   0.09815   0.11222
 Alpha virt. eigenvalues --    0.11948   0.13726   0.13999   0.15809   0.16230
 Alpha virt. eigenvalues --    0.16626   0.17304   0.18128   0.19903   0.21320

 Mulliken charges:
               1
     1  C   -0.447275
     2  C    0.302627
     3  C   -0.443131
     4  C   -0.296928
     5  C   -0.227757
     6  C    0.080598
     7  O   -0.257907
     8  C    0.450788
     9  O   -0.324389
    10  H    0.115997
    11  H    0.118075
    12  H    0.135241
    13  H    0.115632
    14  H    0.120614
    15  H    0.122697
    16  H    0.113930
    17  H    0.121610
    18  H    0.108460
    19  H    0.091118
 Sum of Mulliken charges =   0.00000

 Dipole moment (field-independent basis, Debye):
    X=              3.7933    Y=             -1.7551    Z=             -0.4589  Tot=              4.2047
 Quadrupole moment (field-independent basis, Debye-Ang):
   XX=            -62.7505   YY=            -52.7979   ZZ=            -51.7514
   XY=              2.2941   XZ=              1.5082   YZ=              1.1203

  Exact polarizability:  88.773   0.509  69.172  -3.471  -0.659  66.765
 Approx polarizability: 124.290  -0.585 102.853  -8.922  -4.112 103.546

                      1                      2                      3
                      A                      A                      A
 Frequencies --     82.1159               172.3511               210.6144
 Red. masses --      4.4413                 3.5794                 1.1944
 Frc consts  --      0.0176                 0.0626                 0.0312
 IR Inten    --      1.3947                 2.4047                 0.2981

                      4                      5                      6
                      A                      A                      A
 Frequencies --    225.9655               259.0249               310.1308
 Red. masses --      2.5702                 1.0651                 2.7231
 Frc consts  --      0.0773                 0.0421                 0.1543
 IR Inten    --      0.9938                 0.1154                 0.6287

                      7                      8                      9
                      A                      A                      A
 Frequencies --    358.3216               365.3186               450.8724
 Red. masses --      2.2233                 2.3604                 4.5517
 Frc consts  --      0.1682                 0.1856                 0.5452
 IR Inten    --      1.5570                 0.0843                 0.7766

                     10                     11                     12
                      A                      A                      A
 Frequencies --    495.8771               604.1760               707.9400
 Red. masses --      3.4947                 3.7237                 4.0696
 Frc consts  --      0.5063                 0.8009                 1.2017
 IR Inten    --      2.4644                 1.2753                 2.9483

                     13                     14                     15
                      A                      A                      A
 Frequencies --    773.1319               800.4486               853.9261
 Red. masses --      5.4019                 2.2824                 2.3780
 Frc consts  --      1.9024                 0.8616                 1.0216
 IR Inten    --      8.7540                 2.3069                 0.2836

                     16                     17                     18
                      A                      A                      A
 Frequencies --    877.8680               899.4964               934.2060
 Red. masses --      2.1397                 2.4337                 2.6773
 Frc consts  --      0.9715                 1.1602                 1.3767
 IR Inten    --      6.5891                 1.3138                60.2413

                     19                     20                     21
                      A                      A                      A
 Frequencies --    943.9202               963.2908               989.7560
 Red. masses --      2.7926                 1.3770                 1.9974
 Frc consts  --      1.4660                 0.7528                 1.1529
 IR Inten    --     30.5205                 2.3337                25.1542

                     22                     23                     24
                      A                      A                      A
 Frequencies --    994.7566              1035.6410              1078.5043
 Red. masses --      2.7266                 1.4950                 2.1007
 Frc consts  --      1.5897                 0.9447                 1.4397
 IR Inten    --      0.7315                 2.6868                50.9143

                     25                     26                     27
                      A                      A                      A
 Frequencies --   1110.4141              1167.9360              1212.8140
 Red. masses --      1.8209                 1.9065                 1.7868
 Frc consts  --      1.3229                 1.5322                 1.5485
 IR Inten    --     32.2601                 2.9746                15.0076

                     28                     29                     30
                      A                      A                      A
 Frequencies --   1219.4551              1234.2003              1242.3221
 Red. masses --      2.1684                 1.6824                 1.9002
 Frc consts  --      1.8998                 1.5099                 1.7279
 IR Inten    --      0.6799                 7.0162                 3.0105

                     31                     32                     33
                      A                      A                      A
 Frequencies --   1279.2761              1303.1548              1325.9694
 Red. masses --      2.0304                 2.1808                 1.6571
 Frc consts  --      1.9578                 2.1820                 1.7166
 IR Inten    --      9.4997                 6.0354                 8.7941

                     34                     35                     36
                      A                      A                      A
 Frequencies --   1400.9658              1421.1411              1481.8177
 Red. masses --      1.2629                 1.2242                 1.0547
 Frc consts  --      1.4604                 1.4567                 1.3645
 IR Inten    --      4.8827                 2.6395                 1.2407

                     37                     38                     39
                      A                      A                      A
 Frequencies --   1486.3305              1486.6113              1501.0417
 Red. masses --      1.0537                 1.0801                 1.0579
 Frc consts  --      1.3716                 1.4064                 1.4044
 IR Inten    --      4.1648                 5.0063                 2.1276

                     40                     41                     42
                      A                      A                      A
 Frequencies --   1507.8633              1935.7453              3023.4335
 Red. masses --      1.0572                12.7726                 1.0348
 Frc consts  --      1.4162                28.1984                 5.5735
 IR Inten    --      7.8014               472.9470                20.1910

                     43                     44                     45
                      A                      A                      A
 Frequencies --   3031.9414              3071.4783              3090.7911
 Red. masses --      1.0373                 1.0586                 1.1013
 Frc consts  --      5.6180                 5.8840                 6.1988
 IR Inten    --     22.4275                20.8486                17.9519

                     46                     47                     48
                      A                      A                      A
 Frequencies --   3092.7805              3100.1758              3117.0565
 Red. masses --      1.1011                 1.1014                 1.0897
 Frc consts  --      6.2057                 6.2366                 6.2378
 IR Inten    --     16.4731                29.7306                26.1511

                     49                     50                     51
                      A                      A                      A
 Frequencies --   3123.1528              3125.3709              3151.0864
 Red. masses --      1.1011                 1.1069                 1.0916
 Frc consts  --      6.3282                 6.3705                 6.3863
 IR Inten    --      8.7657                18.3508                12.8105

 - Thermochemistry -
 -------------------
 Temperature   298.150 Kelvin.  Pressure   1.00000 Atm.
 Atom     1 has atomic number  6 and mass  12.00000

 Molecular mass:   126.06808 amu.
 Principal axes and moments of inertia in atomic units:
                           1         2         3
     Eigenvalues --   524.566921434.439601544.04835
           X            0.99995   0.00973   0.00167
           Y           -0.00984   0.99631   0.08529
           Z           -0.00083  -0.08531   0.99635
 This molecule is an asymmetric top.
 Rotational symmetry number  1.
 Warning -- assumption of classical behavior for rotation
           may cause significant error
 Rotational temperatures (Kelvin)      0.16511     0.06038     0.05610
 Rotational constants (GHZ):           3.44044     1.25815     1.16884
 Zero-point vibrational energy     416491.7 (Joules/Mol)
                                   99.54391 (Kcal/Mol)
 Warning -- explicit consideration of  11 degrees of freedom as
           vibrations may cause significant error
 Vibrational temperatures:    118.15   247.97   303.03   325.11   372.68
          (Kelvin)            446.21   515.54   525.61   648.70   713.46
                              869.27  1018.57  1112.36  1151.67  1228.61
                             1263.05  1294.17  1344.11  1358.09  1385.96
                             1424.04  1431.23  1490.05  1551.73  1597.64
                             1680.40  1744.97  1754.52  1775.74  1787.42
                             1840.59  1874.95  1907.77  2015.67  2044.70
                             2132.00  2138.50  2138.90  2159.66  2169.48
                             2785.10  4350.04  4362.28  4419.17  4446.95
                             4449.82  4460.46  4484.74  4493.51  4496.71
                             4533.70

 Zero-point correction=                           0.158633 (Hartree/Particle)
 Thermal correction to Energy=                    0.167031
 Thermal correction to Enthalpy=                  0.167975
 Thermal correction to Gibbs Free Energy=         0.125865
 Sum of electronic and zero-point Energies=           -423.048330
 Sum of electronic and thermal Energies=              -423.039932
 Sum of electronic and thermal Enthalpies=            -423.038988
 Sum of electronic and thermal Free Energies=         -423.081099

                     E (Thermal)             CV                S
                      KCal/Mol        Cal/Mol-Kelvin    Cal/Mol-Kelvin
 Total                  104.814             32.351             88.629
 Electronic               0.000              0.000              0.000
 Translational            0.889              2.981             40.409
 Rotational               0.889              2.981             28.543
 Vibrational            103.036             26.389             19.678
 Vibration     1          0.600              1.961              3.840
 Vibration     2          0.626              1.877              2.410
 Vibration     3          0.643              1.825              2.038
 Vibration     4          0.650              1.801              1.911
 Vibration     5          0.668              1.747              1.668
 Vibration     6          0.699              1.654              1.362
 Vibration     7          0.733              1.558              1.129
 Vibration     8          0.739              1.544              1.099
 Vibration     9          0.810              1.359              0.793
 Vibration    10          0.851              1.259              0.669
 Vibration    11          0.963              1.023              0.443

 Optimization completed.
    -- Stationary point found.
 Normal termination of Gaussian 09 at Mon Jan 27 17:47:04 2020.
