 Gaussian 09, Revision D.01,
 Gaussian 09:  ES64L-G09RevD.01 24-Apr-2013

 -----------------------------
 # b3lyp 6-31G(2df,p) opt Freq
 -----------------------------

 -----
 titel
 -----
 Symbolic Z-matrix:
 Charge =  0 Multiplicity = 1

 SCF Done:  E(RB3LYP) =  -423.193617876     A.U. after   14 cycles
 Optimization completed.
    -- Stationary point found.
 Normal termination of Gaussian 09 at Mon Jan 27 22:04:40 2020.

 ----------------------------------------------------------------------
 #N Geom=AllCheck Guess=TCheck SCRF=Check GenChk RB3LYP/6-31G(2df,p) Fr
 eq
 ----------------------------------------------------------------------

 Structure from the checkpoint file:  "/scratch/puck/g09_7361ccb7-2b2c-4835-a247-bebd167423ae/Gau-14904.chk"
 -----
 titel
 -----
 Charge =  0 Multiplicity = 1

                         Standard orientation:
 ---------------------------------------------------------------------
 Center     Atomic      Atomic             Coordinates (Angstroms)
 Number     Number       Type             X           Y           Z
 ---------------------------------------------------------------------
      1          6           0       -2.273946   -0.944702    0.335140
      2          6           0       -0.867297   -0.710360   -0.095884
      3          6           0        0.112602   -1.568408   -0.393339
      4          6           0        1.354590   -0.711563   -0.567643
      5          6           0        1.712160   -0.174659    0.856202
      6          8           0        0.616362    0.704623    1.114888
      7          6           0       -0.173935    0.665353   -0.114219
      8          6           0       -0.971861    1.929766   -0.257539
      9          8           0        0.810019    0.502637   -1.113969
     10          1           0       -2.435894   -0.564681    1.351883
     11          1           0       -2.989682   -0.425109   -0.313384
     12          1           0       -2.520758   -2.009716    0.329392
     13          1           0        0.092463   -2.649722   -0.365744
     14          1           0        2.179240   -1.088041   -1.169424
     15          1           0        1.766436   -0.963488    1.613652
     16          1           0        2.648818    0.393428    0.841755
     17          1           0       -1.652918    2.041900    0.589586
     18          1           0       -0.296882    2.787780   -0.280304
     19          1           0       -1.555749    1.907011   -1.181064
 ---------------------------------------------------------------------

 SCF Done:  E(RB3LYP) =  -423.193617876     A.U. after    1 cycles

 The electronic state is 1-A.
 Alpha  occ. eigenvalues --  -19.14085 -19.13336 -10.27769 -10.23854 -10.22521
 Alpha  occ. eigenvalues --  -10.18855 -10.18819 -10.17943 -10.17775  -1.08931
 Alpha  occ. eigenvalues --   -0.98061  -0.80425  -0.78382  -0.71190  -0.68808
 Alpha  occ. eigenvalues --   -0.61272  -0.58320  -0.53452  -0.50654  -0.49115
 Alpha  occ. eigenvalues --   -0.45231  -0.43586  -0.43409  -0.41300  -0.40293
 Alpha  occ. eigenvalues --   -0.38705  -0.37767  -0.37417  -0.36191  -0.33912
 Alpha  occ. eigenvalues --   -0.32098  -0.27565  -0.25493  -0.23452
 Alpha virt. eigenvalues --    0.01184   0.09214   0.11422   0.12600   0.13409
 Alpha virt. eigenvalues --    0.13884   0.15071   0.15161   0.15556   0.16886
 Alpha virt. eigenvalues --    0.17295   0.17784   0.20413   0.21139   0.23240

 Mulliken charges:
               1
     1  C   -0.510994
     2  C    0.342548
     3  C   -0.222729
     4  C   -0.033630
     5  C   -0.081771
     6  O   -0.307264
     7  C    0.377105
     8  C   -0.499783
     9  O   -0.258599
    10  H    0.139466
    11  H    0.130268
    12  H    0.127614
    13  H    0.100969
    14  H    0.087836
    15  H    0.099907
    16  H    0.106118
    17  H    0.132321
    18  H    0.139775
    19  H    0.130843
 Sum of Mulliken charges =   0.00000

 Dipole moment (field-independent basis, Debye):
    X=             -0.5693    Y=             -1.3435    Z=              0.1504  Tot=              1.4668
 Quadrupole moment (field-independent basis, Debye-Ang):
   XX=            -48.0479   YY=            -50.6859   ZZ=            -57.0387
   XY=             -2.8137   XZ=              0.1043   YZ=             -0.6154

  Exact polarizability:  88.567  -5.214  78.060  -0.932   1.252  60.158
 Approx polarizability: 125.004 -13.114 114.776  -4.386   5.136  96.636

                      1                      2                      3
                      A                      A                      A
 Frequencies --    151.4654               179.9773               193.6794
 Red. masses --      2.3529                 1.0566                 1.0847
 Frc consts  --      0.0318                 0.0202                 0.0240
 IR Inten    --      0.6870                 0.0880                 0.1203

                      4                      5                      6
                      A                      A                      A
 Frequencies --    229.7797               278.5742               314.8085
 Red. masses --      2.4986                 2.8284                 2.6736
 Frc consts  --      0.0777                 0.1293                 0.1561
 IR Inten    --      0.6139                 4.8630                 6.1894

                      7                      8                      9
                      A                      A                      A
 Frequencies --    393.5425               444.6505               556.1530
 Red. masses --      2.5863                 3.0603                 4.0278
 Frc consts  --      0.2360                 0.3565                 0.7340
 IR Inten    --      0.6983                 1.2765                 2.8293

                     10                     11                     12
                      A                      A                      A
 Frequencies --    592.7224               638.4902               666.9603
 Red. masses --      4.2256                 4.9537                 3.7676
 Frc consts  --      0.8747                 1.1898                 0.9874
 IR Inten    --      0.6221                 4.1231                 8.1105

                     13                     14                     15
                      A                      A                      A
 Frequencies --    771.4272               772.8062               805.5594
 Red. masses --      3.8117                 3.5990                 1.8806
 Frc consts  --      1.3365                 1.2664                 0.7190
 IR Inten    --     13.3947                24.6414                32.2990

                     16                     17                     18
                      A                      A                      A
 Frequencies --    858.5954               871.2921               896.3622
 Red. masses --      3.7599                 2.4330                 2.4710
 Frc consts  --      1.6330                 1.0882                 1.1697
 IR Inten    --     17.8350                14.8656                19.4638

                     19                     20                     21
                      A                      A                      A
 Frequencies --    926.0213               977.9318              1000.3456
 Red. masses --      2.1120                 2.7632                 5.4947
 Frc consts  --      1.0670                 1.5570                 3.2396
 IR Inten    --      1.9520                 8.6854                71.6613

                     22                     23                     24
                      A                      A                      A
 Frequencies --   1019.1150              1050.2266              1063.0298
 Red. masses --      1.9979                 1.4770                 1.5463
 Frc consts  --      1.2226                 0.9598                 1.0295
 IR Inten    --     19.9833                 1.8855                 4.3061

                     25                     26                     27
                      A                      A                      A
 Frequencies --   1117.5516              1138.1136              1190.5586
 Red. masses --      1.9541                 2.1045                 1.1776
 Frc consts  --      1.4379                 1.6061                 0.9834
 IR Inten    --     25.4457                23.0784                 0.9001

                     28                     29                     30
                      A                      A                      A
 Frequencies --   1211.5718              1249.0901              1284.9201
 Red. masses --      2.2961                 1.4513                 2.1093
 Frc consts  --      1.9858                 1.3342                 2.0518
 IR Inten    --     14.1122                 2.1384                15.1542

                     31                     32                     33
                      A                      A                      A
 Frequencies --   1321.1143              1333.1392              1350.9568
 Red. masses --      1.5971                 2.2300                 1.5768
 Frc consts  --      1.6423                 2.3351                 1.6955
 IR Inten    --     13.7577                20.4290                 8.1037

                     34                     35                     36
                      A                      A                      A
 Frequencies --   1412.1968              1423.8531              1475.1771
 Red. masses --      1.2806                 1.7654                 1.0491
 Frc consts  --      1.5048                 2.1088                 1.3451
 IR Inten    --      2.9041                36.1881                 4.8540

                     37                     38                     39
                      A                      A                      A
 Frequencies --   1478.5826              1487.2438              1490.6267
 Red. masses --      1.0484                 1.0480                 1.0610
 Frc consts  --      1.3504                 1.3658                 1.3891
 IR Inten    --      3.6600                 7.6045                 4.0582

                     40                     41                     42
                      A                      A                      A
 Frequencies --   1512.5678              1697.8924              3020.4323
 Red. masses --      1.0895                 7.4932                 1.0376
 Frc consts  --      1.4687                12.7274                 5.5774
 IR Inten    --      0.7568                 4.7709                23.0595

                     43                     44                     45
                      A                      A                      A
 Frequencies --   3032.5055              3057.8191              3068.7509
 Red. masses --      1.0553                 1.0352                 1.0983
 Frc consts  --      5.7178                 5.7028                 6.0940
 IR Inten    --     58.2222                 7.9358                14.1534

                     46                     47                     48
                      A                      A                      A
 Frequencies --   3081.8430              3111.4826              3134.1571
 Red. masses --      1.1109                 1.0993                 1.1017
 Frc consts  --      6.2163                 6.2707                 6.3761
 IR Inten    --     33.2340                18.8671                10.3053

                     49                     50                     51
                      A                      A                      A
 Frequencies --   3141.6446              3146.2202              3221.2446
 Red. masses --      1.1023                 1.0910                 1.0969
 Frc consts  --      6.4100                 6.3626                 6.7062
 IR Inten    --      9.0807                32.6569                 7.1712

 - Thermochemistry -
 -------------------
 Temperature   298.150 Kelvin.  Pressure   1.00000 Atm.
 Atom     1 has atomic number  6 and mass  12.00000

 Molecular mass:   126.06808 amu.
 Principal axes and moments of inertia in atomic units:
                           1         2         3
     Eigenvalues --   748.45380 941.551521223.43910
           X            0.99877  -0.04963   0.00205
           Y            0.04966   0.99841  -0.02655
           Z           -0.00073   0.02661   0.99965
 This molecule is an asymmetric top.
 Rotational symmetry number  1.
 Warning -- assumption of classical behavior for rotation
           may cause significant error
 Rotational temperatures (Kelvin)      0.11572     0.09199     0.07080
 Rotational constants (GHZ):           2.41129     1.91677     1.47514
 Zero-point vibrational energy     417764.5 (Joules/Mol)
                                   99.84811 (Kcal/Mol)
 Warning -- explicit consideration of  10 degrees of freedom as
           vibrations may cause significant error
 Vibrational temperatures:    217.92   258.95   278.66   330.60   400.81
          (Kelvin)            452.94   566.22   639.75   800.18   852.79
                              918.64   959.61  1109.91  1111.89  1159.02
                             1235.33  1253.59  1289.66  1332.34  1407.02
                             1439.27  1466.28  1511.04  1529.46  1607.91
                             1637.49  1712.95  1743.18  1797.16  1848.71
                             1900.79  1918.09  1943.72  2031.83  2048.60
                             2122.45  2127.35  2139.81  2144.68  2176.24
                             2442.89  4345.72  4363.09  4399.51  4415.24
                             4434.08  4476.72  4509.35  4520.12  4526.70
                             4634.65

 Zero-point correction=                           0.159118 (Hartree/Particle)
 Thermal correction to Energy=                    0.167143
 Thermal correction to Enthalpy=                  0.168087
 Thermal correction to Gibbs Free Energy=         0.127116
 Sum of electronic and zero-point Energies=           -423.034500
 Sum of electronic and thermal Energies=              -423.026475
 Sum of electronic and thermal Enthalpies=            -423.025531
 Sum of electronic and thermal Free Energies=         -423.066502

                     E (Thermal)             CV                S
                      KCal/Mol        Cal/Mol-Kelvin    Cal/Mol-Kelvin
 Total                  104.884             31.765             86.231
 Electronic               0.000              0.000              0.000
 Translational            0.889              2.981             40.409
 Rotational               0.889              2.981             28.246
 Vibrational            103.106             25.803             17.576
 Vibration     1          0.619              1.901              2.654
 Vibration     2          0.629              1.867              2.329
 Vibration     3          0.635              1.849              2.192
 Vibration     4          0.652              1.796              1.881
 Vibration     5          0.679              1.713              1.542
 Vibration     6          0.702              1.645              1.337
 Vibration     7          0.761              1.484              0.987
 Vibration     8          0.804              1.373              0.812
 Vibration     9          0.912              1.126              0.532
 Vibration    10          0.950              1.047              0.462

 Normal termination of Gaussian 09 at Mon Jan 27 22:56:40 2020.
