 Gaussian 09, Revision D.01,
 Gaussian 09:  ES64L-G09RevD.01 24-Apr-2013

 -----------------------------
 # b3lyp 6-31G(2df,p) opt Freq
 -----------------------------

 -----
 titel
 -----
 Symbolic Z-matrix:
 Charge =  0 Multiplicity = 1

 SCF Done:  E(RB3LYP) =  -423.173732429     A.U. after   14 cycles
 Optimization completed.
    -- Stationary point found.
 Normal termination of Gaussian 09 at Tue Jan 28 12:09:22 2020.

 ----------------------------------------------------------------------
 #N Geom=AllCheck Guess=TCheck SCRF=Check GenChk RB3LYP/6-31G(2df,p) Fr
 eq
 ----------------------------------------------------------------------

 Structure from the checkpoint file:  "/scratch/puck/g09_c1a2c139-1d41-44e9-b907-7fb7e45a8d42/Gau-18865.chk"
 -----
 titel
 -----
 Charge =  0 Multiplicity = 1

                         Standard orientation:
 ---------------------------------------------------------------------
 Center     Atomic      Atomic             Coordinates (Angstroms)
 Number     Number       Type             X           Y           Z
 ---------------------------------------------------------------------
      1          6           0       -0.168611    2.394183    0.011682
      2          6           0       -0.363318    0.921573   -0.171695
      3          6           0        0.548135   -0.046898   -0.373535
      4          6           0        2.041908    0.072750   -0.372039
      5          8           0        2.637122   -0.694114    0.675540
      6          6           0       -0.099462   -1.416042   -0.526949
      7          6           0       -1.576288   -1.138119   -0.297792
      8          8           0       -1.882678   -0.615898    0.997506
      9          6           0       -1.731926    0.311285   -0.104685
     10          1           0        0.880048    2.692307   -0.055214
     11          1           0       -0.722679    2.958648   -0.749179
     12          1           0       -0.555531    2.721652    0.984754
     13          1           0        2.459869   -0.344039   -1.296700
     14          1           0        2.354088    1.125362   -0.321075
     15          1           0        2.237815   -0.401254    1.501958
     16          1           0        0.073037   -1.828936   -1.530332
     17          1           0        0.305523   -2.140328    0.187876
     18          1           0       -2.343019   -1.768919   -0.739322
     19          1           0       -2.627332    0.873222   -0.357054
 ---------------------------------------------------------------------

 SCF Done:  E(RB3LYP) =  -423.173732429     A.U. after    1 cycles

 The electronic state is 1-A.
 Alpha  occ. eigenvalues --  -19.14449 -19.13563 -10.23307 -10.23259 -10.23078
 Alpha  occ. eigenvalues --  -10.19294 -10.18985 -10.18742 -10.18718  -1.06481
 Alpha  occ. eigenvalues --   -1.01459  -0.83091  -0.75227  -0.70891  -0.67377
 Alpha  occ. eigenvalues --   -0.63341  -0.58241  -0.53102  -0.50980  -0.48486
 Alpha  occ. eigenvalues --   -0.45165  -0.44503  -0.43350  -0.42248  -0.41205
 Alpha  occ. eigenvalues --   -0.39290  -0.37890  -0.36595  -0.35240  -0.33071
 Alpha  occ. eigenvalues --   -0.30507  -0.27366  -0.25826  -0.23443
 Alpha virt. eigenvalues --    0.00011   0.08238   0.10429   0.11467   0.11802
 Alpha virt. eigenvalues --    0.12577   0.13490   0.13906   0.15892   0.16702
 Alpha virt. eigenvalues --    0.18152   0.19387   0.19859   0.21344   0.21991

 Mulliken charges:
               1
     1  C   -0.512420
     2  C    0.216063
     3  C    0.157211
     4  C   -0.160215
     5  O   -0.413706
     6  C   -0.324676
     7  C    0.036703
     8  O   -0.260775
     9  C   -0.047554
    10  H    0.128386
    11  H    0.130572
    12  H    0.136555
    13  H    0.111527
    14  H    0.091067
    15  H    0.284158
    16  H    0.107896
    17  H    0.132126
    18  H    0.095091
    19  H    0.091992
 Sum of Mulliken charges =   0.00000

 Dipole moment (field-independent basis, Debye):
    X=             -0.5081    Y=              1.4115    Z=             -1.3727  Tot=              2.0334
 Quadrupole moment (field-independent basis, Debye-Ang):
   XX=            -58.3287   YY=            -50.5345   ZZ=            -52.5019
   XY=              1.6647   XZ=              3.2477   YZ=              2.2703

  Exact polarizability:  86.226  -5.747  87.380  -1.758   3.681  59.699
 Approx polarizability: 121.768 -17.307 128.884  -6.483   4.864  97.831

                      1                      2                      3
                      A                      A                      A
 Frequencies --     73.4462               113.3102               165.5039
 Red. masses --      3.3888                 4.0942                 1.0357
 Frc consts  --      0.0108                 0.0310                 0.0167
 IR Inten    --      2.9426                 0.5783                 0.6661

                      4                      5                      6
                      A                      A                      A
 Frequencies --    193.9384               268.4219               276.6920
 Red. masses --      3.0991                 2.9208                 2.2276
 Frc consts  --      0.0687                 0.1240                 0.1005
 IR Inten    --      1.7164                10.1108                 4.6695

                      7                      8                      9
                      A                      A                      A
 Frequencies --    341.0870               383.5082               406.5869
 Red. masses --      1.3797                 2.0234                 2.5990
 Frc consts  --      0.0946                 0.1753                 0.2531
 IR Inten    --     66.0685                 9.6978                48.2416

                     10                     11                     12
                      A                      A                      A
 Frequencies --    475.2012               593.2165               624.3441
 Red. masses --      5.2639                 4.1326                 3.1461
 Frc consts  --      0.7004                 0.8568                 0.7226
 IR Inten    --      0.6755                 2.7709                 5.7237

                     13                     14                     15
                      A                      A                      A
 Frequencies --    685.4779               775.7056               840.3757
 Red. masses --      4.3575                 5.1117                 3.5328
 Frc consts  --      1.2064                 1.8122                 1.4700
 IR Inten    --      1.4168                 2.0085                10.8019

                     16                     17                     18
                      A                      A                      A
 Frequencies --    856.6838               890.3878               914.9015
 Red. masses --      2.5041                 2.3611                 2.1375
 Frc consts  --      1.0828                 1.1029                 1.0542
 IR Inten    --     27.7182                 5.2341                 7.4321

                     19                     20                     21
                      A                      A                      A
 Frequencies --    967.0278              1003.0418              1021.1803
 Red. masses --      1.6019                 1.5984                 2.1737
 Frc consts  --      0.8826                 0.9475                 1.3355
 IR Inten    --     18.0213                18.2038                22.7004

                     22                     23                     24
                      A                      A                      A
 Frequencies --   1036.4788              1058.3472              1103.1490
 Red. masses --      3.5274                 1.5697                 1.2867
 Frc consts  --      2.2327                 1.0359                 0.9226
 IR Inten    --     57.8907                 4.7652                 2.0029

                     25                     26                     27
                      A                      A                      A
 Frequencies --   1111.7127              1172.6875              1182.0254
 Red. masses --      2.4342                 1.2207                 2.3116
 Frc consts  --      1.7725                 0.9891                 1.9029
 IR Inten    --      1.8692                 6.5202                19.9478

                     28                     29                     30
                      A                      A                      A
 Frequencies --   1214.9579              1247.1144              1260.0987
 Red. masses --      1.5383                 1.4749                 1.6377
 Frc consts  --      1.3379                 1.3515                 1.5321
 IR Inten    --      8.2558                 3.6448                 6.3412

                     31                     32                     33
                      A                      A                      A
 Frequencies --   1309.9215              1357.1596              1363.7483
 Red. masses --      1.8194                 2.0743                 1.2623
 Frc consts  --      1.8394                 2.2510                 1.3831
 IR Inten    --      2.2455                 6.6763                 2.4963

                     34                     35                     36
                      A                      A                      A
 Frequencies --   1410.3973              1416.0824              1423.4456
 Red. masses --      1.8196                 1.5157                 1.5076
 Frc consts  --      2.1326                 1.7908                 1.7998
 IR Inten    --     41.3465                 2.6442                38.2518

                     37                     38                     39
                      A                      A                      A
 Frequencies --   1465.7392              1480.4972              1486.0623
 Red. masses --      1.1005                 1.0443                 1.0630
 Frc consts  --      1.3930                 1.3486                 1.3831
 IR Inten    --      1.7920                 4.5625                 3.9206

                     40                     41                     42
                      A                      A                      A
 Frequencies --   1506.3560              1713.6157              3002.2451
 Red. masses --      1.0907                 7.7808                 1.0623
 Frc consts  --      1.4582                13.4617                 5.6416
 IR Inten    --      2.7214                 0.5970                49.8006

                     43                     44                     45
                      A                      A                      A
 Frequencies --   3020.5197              3021.1541              3050.2409
 Red. masses --      1.0407                 1.0663                 1.0988
 Frc consts  --      5.5940                 5.7343                 6.0231
 IR Inten    --     37.0680                17.3200                34.9162

                     46                     47                     48
                      A                      A                      A
 Frequencies --   3064.8630              3076.1072              3120.2119
 Red. masses --      1.0986                 1.0935                 1.0970
 Frc consts  --      6.0799                 6.0963                 6.2926
 IR Inten    --     15.9164                 8.2274                19.3702

                     49                     50                     51
                      A                      A                      A
 Frequencies --   3144.8432              3156.6350              3805.5377
 Red. masses --      1.0872                 1.0956                 1.0662
 Frc consts  --      6.3349                 6.4321                 9.0978
 IR Inten    --     19.2423                41.1114                15.0778

 - Thermochemistry -
 -------------------
 Temperature   298.150 Kelvin.  Pressure   1.00000 Atm.
 Atom     1 has atomic number  6 and mass  12.00000

 Molecular mass:   126.06808 amu.
 Principal axes and moments of inertia in atomic units:
                           1         2         3
     Eigenvalues --   752.130701286.792441753.26565
           X            0.99997   0.00464   0.00692
           Y           -0.00481   0.99971   0.02368
           Z           -0.00681  -0.02371   0.99970
 This molecule is an asymmetric top.
 Rotational symmetry number  1.
 Warning -- assumption of classical behavior for rotation
           may cause significant error
 Rotational temperatures (Kelvin)      0.11516     0.06731     0.04940
 Rotational constants (GHZ):           2.39950     1.40251     1.02936
 Zero-point vibrational energy     416611.4 (Joules/Mol)
                                   99.57252 (Kcal/Mol)
 Warning -- explicit consideration of  11 degrees of freedom as
           vibrations may cause significant error
 Vibrational temperatures:    105.67   163.03   238.12   279.03   386.20
          (Kelvin)            398.10   490.75   551.78   584.99   683.71
                              853.51   898.29   986.25  1116.07  1209.11
                             1232.58  1281.07  1316.34  1391.34  1443.15
                             1469.25  1491.26  1522.72  1587.18  1599.50
                             1687.23  1700.67  1748.05  1794.32  1813.00
                             1884.68  1952.65  1962.13  2029.24  2037.42
                             2048.02  2108.87  2130.10  2138.11  2167.31
                             2465.51  4319.56  4345.85  4346.76  4388.61
                             4409.65  4425.83  4489.28  4524.72  4541.69
                             5475.31

 Zero-point correction=                           0.158679 (Hartree/Particle)
 Thermal correction to Energy=                    0.167476
 Thermal correction to Enthalpy=                  0.168420
 Thermal correction to Gibbs Free Energy=         0.125040
 Sum of electronic and zero-point Energies=           -423.015054
 Sum of electronic and thermal Energies=              -423.006257
 Sum of electronic and thermal Enthalpies=            -423.005312
 Sum of electronic and thermal Free Energies=         -423.048692

                     E (Thermal)             CV                S
                      KCal/Mol        Cal/Mol-Kelvin    Cal/Mol-Kelvin
 Total                  105.093             32.990             91.301
 Electronic               0.000              0.000              0.000
 Translational            0.889              2.981             40.409
 Rotational               0.889              2.981             28.919
 Vibrational            103.315             27.029             21.973
 Vibration     1          0.599              1.967              4.059
 Vibration     2          0.607              1.938              3.211
 Vibration     3          0.624              1.885              2.486
 Vibration     4          0.635              1.848              2.190
 Vibration     5          0.673              1.731              1.606
 Vibration     6          0.678              1.717              1.554
 Vibration     7          0.721              1.593              1.207
 Vibration     8          0.753              1.505              1.025
 Vibration     9          0.771              1.456              0.939
 Vibration    10          0.832              1.305              0.723
 Vibration    11          0.951              1.046              0.461

 Normal termination of Gaussian 09 at Tue Jan 28 12:58:42 2020.
