 Gaussian 09, Revision D.01,
 Gaussian 09:  ES64L-G09RevD.01 24-Apr-2013

 -----------------------------
 # b3lyp 6-31G(2df,p) opt Freq
 -----------------------------

 -----
 titel
 -----
 Symbolic Z-matrix:
 Charge =  0 Multiplicity = 1

 SCF Done:  E(RB3LYP) =  -423.135157221     A.U. after   13 cycles
 Optimization completed.
    -- Stationary point found.
 Normal termination of Gaussian 09 at Mon Jan 27 18:47:08 2020.

 ----------------------------------------------------------------------
 #N Geom=AllCheck Guess=TCheck SCRF=Check GenChk RB3LYP/6-31G(2df,p) Fr
 eq
 ----------------------------------------------------------------------

 Structure from the checkpoint file:  "/scratch/puck/g09_184fb0b4-fcdd-48cd-9d42-0e85af8fdec0/Gau-43445.chk"
 -----
 titel
 -----
 Charge =  0 Multiplicity = 1

                         Standard orientation:
 ---------------------------------------------------------------------
 Center     Atomic      Atomic             Coordinates (Angstroms)
 Number     Number       Type             X           Y           Z
 ---------------------------------------------------------------------
      1          8           0       -0.572551    1.911560   -0.565214
      2          6           0       -0.556878    0.642587    0.007831
      3          6           0       -1.925500    0.237599    0.587906
      4          6           0       -1.819711   -1.160726   -0.088771
      5          6           0       -0.475363   -0.765038   -0.752692
      6          6           0        0.735366   -1.122445    0.110049
      7          8           0        1.976908   -0.702298   -0.496514
      8          6           0        2.016873    0.499517    0.300626
      9          6           0        0.635989    0.221931    0.907294
     10          1           0        0.271499    2.069111   -1.002113
     11          1           0       -2.015293    0.262502    1.677631
     12          1           0       -2.715735    0.856007    0.157107
     13          1           0       -1.753907   -2.010003    0.598151
     14          1           0       -2.620500   -1.366364   -0.801233
     15          1           0       -0.364883   -0.890892   -1.829958
     16          1           0        0.801076   -2.119915    0.554694
     17          1           0        2.838599    0.473000    1.028085
     18          1           0        2.136700    1.407449   -0.309002
     19          1           0        0.522941    0.324458    1.987009
 ---------------------------------------------------------------------

 SCF Done:  E(RB3LYP) =  -423.135157221     A.U. after    1 cycles

 The electronic state is 1-A.
 Alpha  occ. eigenvalues --  -19.14523 -19.13499 -10.23901 -10.23707 -10.23437
 Alpha  occ. eigenvalues --  -10.19097 -10.18489 -10.18049 -10.18012  -1.04530
 Alpha  occ. eigenvalues --   -1.02714  -0.85664  -0.74786  -0.71128  -0.66030
 Alpha  occ. eigenvalues --   -0.61688  -0.56564  -0.54418  -0.50485  -0.50109
 Alpha  occ. eigenvalues --   -0.48842  -0.45217  -0.42489  -0.41676  -0.40322
 Alpha  occ. eigenvalues --   -0.38486  -0.36052  -0.34292  -0.32858  -0.32806
 Alpha  occ. eigenvalues --   -0.30632  -0.27931  -0.24803  -0.24404
 Alpha virt. eigenvalues --    0.06358   0.07142   0.09243   0.09950   0.11774
 Alpha virt. eigenvalues --    0.12821   0.14596   0.15259   0.15852   0.17724
 Alpha virt. eigenvalues --    0.18235   0.19146   0.20150   0.21359   0.22883

 Mulliken charges:
               1
     1  O   -0.476086
     2  C    0.416258
     3  C   -0.267977
     4  C   -0.232911
     5  C   -0.137630
     6  C    0.125187
     7  O   -0.294469
     8  C   -0.104430
     9  C   -0.148425
    10  H    0.282463
    11  H    0.095764
    12  H    0.115924
    13  H    0.098418
    14  H    0.109519
    15  H    0.076203
    16  H    0.075503
    17  H    0.105711
    18  H    0.084995
    19  H    0.075982
 Sum of Mulliken charges =   0.00000

 Dipole moment (field-independent basis, Debye):
    X=             -0.1400    Y=             -0.0248    Z=              0.8856  Tot=              0.8969
 Quadrupole moment (field-independent basis, Debye-Ang):
   XX=            -54.9320   YY=            -54.4169   ZZ=            -51.8662
   XY=              5.5868   XZ=              1.6829   YZ=             -1.4507

  Exact polarizability:  83.368   4.754  73.414   1.092  -0.076  65.666
 Approx polarizability: 110.908   3.330 110.282  -0.892   0.209 101.786

                      1                      2                      3
                      A                      A                      A
 Frequencies --     84.2323               177.8644               244.3165
 Red. masses --      2.9209                 2.0384                 3.1781
 Frc consts  --      0.0122                 0.0380                 0.1118
 IR Inten    --      3.0173                 3.4545                 0.8677

                      4                      5                      6
                      A                      A                      A
 Frequencies --    273.3759               328.4328               368.9811
 Red. masses --      1.4423                 2.0440                 3.7719
 Frc consts  --      0.0635                 0.1299                 0.3026
 IR Inten    --     64.4520                14.1853                13.6941

                      7                      8                      9
                      A                      A                      A
 Frequencies --    406.7762               470.7771               592.9198
 Red. masses --      3.1379                 3.9159                 3.7388
 Frc consts  --      0.3059                 0.5113                 0.7744
 IR Inten    --      9.0080                 6.3946                 7.4041

                     10                     11                     12
                      A                      A                      A
 Frequencies --    658.8550               742.4584               781.6341
 Red. masses --      3.4180                 1.2778                 2.2560
 Frc consts  --      0.8742                 0.4150                 0.8121
 IR Inten    --      1.2345                 0.7768                 2.9575

                     13                     14                     15
                      A                      A                      A
 Frequencies --    831.1376               873.3880               890.5826
 Red. masses --      1.9949                 2.4298                 2.9999
 Frc consts  --      0.8119                 1.0920                 1.4018
 IR Inten    --     11.4570                 5.1164                 6.3783

                     16                     17                     18
                      A                      A                      A
 Frequencies --    914.9251               955.5462               959.3475
 Red. masses --      2.3688                 2.5562                 2.6799
 Frc consts  --      1.1683                 1.3752                 1.4532
 IR Inten    --      2.7962                17.5142                 3.4716

                     19                     20                     21
                      A                      A                      A
 Frequencies --    992.5202              1014.6502              1028.0523
 Red. masses --      1.6301                 5.5637                 1.6248
 Frc consts  --      0.9461                 3.3748                 1.0117
 IR Inten    --      9.1816                60.2145                 8.7964

                     22                     23                     24
                      A                      A                      A
 Frequencies --   1032.7572              1073.8993              1097.7451
 Red. masses --      3.6969                 1.7375                 2.3217
 Frc consts  --      2.3232                 1.1806                 1.6484
 IR Inten    --      8.8632                 8.0905                 4.8665

                     25                     26                     27
                      A                      A                      A
 Frequencies --   1116.9331              1136.4876              1155.2914
 Red. masses --      2.2730                 1.6767                 1.2824
 Frc consts  --      1.6707                 1.2760                 1.0084
 IR Inten    --     63.1520                 6.5327                 5.5384

                     28                     29                     30
                      A                      A                      A
 Frequencies --   1185.8157              1217.8517              1222.9837
 Red. masses --      1.6586                 1.4352                 1.6000
 Frc consts  --      1.3741                 1.2541                 1.4100
 IR Inten    --      4.0938                 4.5891                31.1501

                     31                     32                     33
                      A                      A                      A
 Frequencies --   1252.5701              1263.1481              1267.1963
 Red. masses --      1.6423                 1.2680                 1.5622
 Frc consts  --      1.5181                 1.1920                 1.4780
 IR Inten    --      0.8843                10.3254                25.7240

                     34                     35                     36
                      A                      A                      A
 Frequencies --   1273.1074              1311.1208              1319.5034
 Red. masses --      1.4296                 1.6172                 2.1882
 Frc consts  --      1.3652                 1.6380                 2.2447
 IR Inten    --     16.9480                17.0921                60.8988

                     37                     38                     39
                      A                      A                      A
 Frequencies --   1363.2139              1374.8557              1475.3806
 Red. masses --      1.5493                 1.8796                 1.0848
 Frc consts  --      1.6963                 2.0933                 1.3912
 IR Inten    --     16.3558                34.0333                 0.5672

                     40                     41                     42
                      A                      A                      A
 Frequencies --   1495.2633              1532.0227              2987.5267
 Red. masses --      1.1202                 1.1005                 1.0606
 Frc consts  --      1.4757                 1.5218                 5.5771
 IR Inten    --      3.9055                 1.1746                91.9883

                     43                     44                     45
                      A                      A                      A
 Frequencies --   3029.9230              3053.0297              3059.9196
 Red. masses --      1.1030                 1.0618                 1.0653
 Frc consts  --      5.9659                 5.8310                 5.8768
 IR Inten    --     47.1917                24.8792                33.8458

                     46                     47                     48
                      A                      A                      A
 Frequencies --   3063.8856              3102.7566              3103.7961
 Red. masses --      1.0840                 1.0974                 1.0947
 Frc consts  --      5.9952                 6.2244                 6.2137
 IR Inten    --     65.6480                17.5509                25.0655

                     49                     50                     51
                      A                      A                      A
 Frequencies --   3114.4038              3124.8883              3802.1339
 Red. masses --      1.0934                 1.1036                 1.0654
 Frc consts  --      6.2486                 6.3495                 9.0743
 IR Inten    --      6.1332                40.7194                11.7920

 - Thermochemistry -
 -------------------
 Temperature   298.150 Kelvin.  Pressure   1.00000 Atm.
 Atom     1 has atomic number  8 and mass  15.99491

 Molecular mass:   126.06808 amu.
 Principal axes and moments of inertia in atomic units:
                           1         2         3
     Eigenvalues --   631.871771068.792791380.22739
           X            0.99788   0.06482   0.00613
           Y           -0.06479   0.99789  -0.00482
           Z           -0.00643   0.00442   0.99997
 This molecule is an asymmetric top.
 Rotational symmetry number  1.
 Warning -- assumption of classical behavior for rotation
           may cause significant error
 Rotational temperatures (Kelvin)      0.13707     0.08104     0.06275
 Rotational constants (GHZ):           2.85618     1.68858     1.30757
 Zero-point vibrational energy     419890.3 (Joules/Mol)
                                  100.35620 (Kcal/Mol)
 Warning -- explicit consideration of   9 degrees of freedom as
           vibrations may cause significant error
 Vibrational temperatures:    121.19   255.91   351.52   393.33   472.54
          (Kelvin)            530.88   585.26   677.34   853.08   947.94
                             1068.23  1124.60  1195.82  1256.61  1281.35
                             1316.37  1374.82  1380.29  1428.01  1459.85
                             1479.14  1485.91  1545.10  1579.41  1607.02
                             1635.15  1662.20  1706.12  1752.21  1759.60
                             1802.17  1817.39  1823.21  1831.72  1886.41
                             1898.47  1961.36  1978.11  2122.74  2151.35
                             2204.24  4298.38  4359.38  4392.62  4402.54
                             4408.24  4464.17  4465.66  4480.93  4496.01
                             5470.42

 Zero-point correction=                           0.159928 (Hartree/Particle)
 Thermal correction to Energy=                    0.167554
 Thermal correction to Enthalpy=                  0.168498
 Thermal correction to Gibbs Free Energy=         0.127921
 Sum of electronic and zero-point Energies=           -422.975229
 Sum of electronic and thermal Energies=              -422.967603
 Sum of electronic and thermal Enthalpies=            -422.966659
 Sum of electronic and thermal Free Energies=         -423.007236

                     E (Thermal)             CV                S
                      KCal/Mol        Cal/Mol-Kelvin    Cal/Mol-Kelvin
 Total                  105.142             30.365             85.403
 Electronic               0.000              0.000              0.000
 Translational            0.889              2.981             40.409
 Rotational               0.889              2.981             28.324
 Vibrational            103.364             24.403             16.670
 Vibration     1          0.601              1.960              3.790
 Vibration     2          0.628              1.870              2.351
 Vibration     3          0.660              1.772              1.771
 Vibration     4          0.676              1.722              1.575
 Vibration     5          0.712              1.619              1.268
 Vibration     6          0.741              1.536              1.084
 Vibration     7          0.772              1.455              0.938
 Vibration     8          0.828              1.315              0.735
 Vibration     9          0.950              1.047              0.462

 Optimization completed.
    -- Stationary point found.
 Normal termination of Gaussian 09 at Mon Jan 27 19:50:06 2020.
