 Gaussian 09, Revision D.01,
 Gaussian 09:  ES64L-G09RevD.01 24-Apr-2013

 -----------------------------
 # b3lyp 6-31G(2df,p) opt Freq
 -----------------------------

 -----
 titel
 -----
 Symbolic Z-matrix:
 Charge =  0 Multiplicity = 1

 SCF Done:  E(RB3LYP) =  -423.205669409     A.U. after   14 cycles
 Optimization completed.
    -- Stationary point found.
 Normal termination of Gaussian 09 at Mon Jan 27 22:55:48 2020.

 ----------------------------------------------------------------------
 #N Geom=AllCheck Guess=TCheck SCRF=Check GenChk RB3LYP/6-31G(2df,p) Fr
 eq
 ----------------------------------------------------------------------

 Structure from the checkpoint file:  "/scratch/puck/g09_7684e3eb-9acb-4356-964f-22adf64e0fab/Gau-65113.chk"
 -----
 titel
 -----
 Charge =  0 Multiplicity = 1

                         Standard orientation:
 ---------------------------------------------------------------------
 Center     Atomic      Atomic             Coordinates (Angstroms)
 Number     Number       Type             X           Y           Z
 ---------------------------------------------------------------------
      1          6           0        2.746699   -0.517486    0.205756
      2          6           0        1.239802   -0.420258    0.429006
      3          6           0        0.380908   -1.499933   -0.268147
      4          6           0       -0.946483   -0.826471   -0.615964
      5          6           0       -1.652041   -0.100932    0.464561
      6          8           0       -3.026790    0.036843    0.296699
      7          6           0       -0.751939    0.686952   -0.503154
      8          6           0        0.651998    0.919343   -0.065556
      9          8           0        1.258258    1.962818   -0.122832
     10          1           0        2.980802   -0.542440   -0.863746
     11          1           0        3.246441    0.355245    0.633410
     12          1           0        3.159026   -1.420870    0.664894
     13          1           0        1.046995   -0.446337    1.512406
     14          1           0        0.874084   -1.813597   -1.195491
     15          1           0        0.244307   -2.395692    0.346494
     16          1           0       -1.560683   -1.231797   -1.411619
     17          1           0       -1.321207   -0.219603    1.496753
     18          1           0       -3.298569    0.867696    0.701444
     19          1           0       -1.236590    1.402818   -1.154488
 ---------------------------------------------------------------------

 SCF Done:  E(RB3LYP) =  -423.205669409     A.U. after    1 cycles

 The electronic state is 1-A.
 Alpha  occ. eigenvalues --  -19.15821 -19.12209 -10.26078 -10.25433 -10.20511
 Alpha  occ. eigenvalues --  -10.19612 -10.19596 -10.19536 -10.17699  -1.04538
 Alpha  occ. eigenvalues --   -1.03217  -0.88623  -0.78729  -0.70116  -0.67366
 Alpha  occ. eigenvalues --   -0.61780  -0.57093  -0.53979  -0.53105  -0.48303
 Alpha  occ. eigenvalues --   -0.46485  -0.44962  -0.42789  -0.41227  -0.39590
 Alpha  occ. eigenvalues --   -0.39290  -0.37938  -0.36520  -0.34645  -0.33420
 Alpha  occ. eigenvalues --   -0.33224  -0.29750  -0.26602  -0.23480
 Alpha virt. eigenvalues --   -0.01087   0.06794   0.08849   0.10042   0.11919
 Alpha virt. eigenvalues --    0.13160   0.13892   0.15640   0.16810   0.17846
 Alpha virt. eigenvalues --    0.18270   0.18758   0.20658   0.21041   0.23327

 Mulliken charges:
               1
     1  C   -0.403146
     2  C   -0.107445
     3  C   -0.245634
     4  C   -0.069501
     5  C    0.094517
     6  O   -0.424974
     7  C   -0.207027
     8  C    0.415839
     9  O   -0.344412
    10  H    0.120203
    11  H    0.137945
    12  H    0.111404
    13  H    0.102142
    14  H    0.110128
    15  H    0.106617
    16  H    0.107532
    17  H    0.094952
    18  H    0.292947
    19  H    0.107913
 Sum of Mulliken charges =   0.00000

 Dipole moment (field-independent basis, Debye):
    X=             -1.0951    Y=             -1.5982    Z=              0.7677  Tot=              2.0840
 Quadrupole moment (field-independent basis, Debye-Ang):
   XX=            -55.1860   YY=            -57.2651   ZZ=            -50.3123
   XY=             -8.6181   XZ=             -1.2021   YZ=              1.4851

  Exact polarizability:  91.140   0.312  75.769   0.493  -0.261  61.681
 Approx polarizability: 120.580   9.487 120.290  -1.408  -1.329  97.163

                      1                      2                      3
                      A                      A                      A
 Frequencies --     88.2319               161.1008               193.5878
 Red. masses --      3.2681                 4.3879                 1.0737
 Frc consts  --      0.0150                 0.0671                 0.0237
 IR Inten    --      1.3970                 4.7067                 1.0596

                      4                      5                      6
                      A                      A                      A
 Frequencies --    234.1328               263.7326               294.0550
 Red. masses --      2.8253                 2.7776                 3.0246
 Frc consts  --      0.0913                 0.1138                 0.1541
 IR Inten    --      3.1735                 6.5507                 9.8308

                      7                      8                      9
                      A                      A                      A
 Frequencies --    339.4364               376.9236               417.1608
 Red. masses --      1.2840                 2.4380                 3.7354
 Frc consts  --      0.0872                 0.2041                 0.3830
 IR Inten    --     97.0089                17.3095                10.5223

                     10                     11                     12
                      A                      A                      A
 Frequencies --    467.8230               605.3630               631.1439
 Red. masses --      4.5858                 5.4922                 4.1227
 Frc consts  --      0.5913                 1.1859                 0.9676
 IR Inten    --      4.4450                 2.1580                 1.3695

                     13                     14                     15
                      A                      A                      A
 Frequencies --    715.0749               768.0547               823.0048
 Red. masses --      4.4219                 3.3441                 3.3059
 Frc consts  --      1.3322                 1.1623                 1.3193
 IR Inten    --      2.4415                 2.5348                 5.6864

                     16                     17                     18
                      A                      A                      A
 Frequencies --    853.5856               887.6092               925.3758
 Red. masses --      1.9362                 1.6162                 2.4985
 Frc consts  --      0.8312                 0.7502                 1.2606
 IR Inten    --      8.1053                 6.6488                29.0139

                     19                     20                     21
                      A                      A                      A
 Frequencies --    954.0246              1010.9907              1031.2853
 Red. masses --      1.4464                 1.8226                 1.3874
 Frc consts  --      0.7756                 1.0976                 0.8694
 IR Inten    --      3.4931                26.4414                23.0872

                     22                     23                     24
                      A                      A                      A
 Frequencies --   1055.1669              1069.0126              1105.2845
 Red. masses --      1.4948                 1.1937                 2.8850
 Frc consts  --      0.9806                 0.8037                 2.0766
 IR Inten    --      1.1949                 9.0566                 3.0858

                     25                     26                     27
                      A                      A                      A
 Frequencies --   1132.1575              1146.1264              1180.8542
 Red. masses --      2.0030                 1.5865                 2.5904
 Frc consts  --      1.5127                 1.2278                 2.1282
 IR Inten    --     18.3921                82.3700                 9.9228

                     28                     29                     30
                      A                      A                      A
 Frequencies --   1193.0988              1214.6262              1259.4475
 Red. masses --      2.6686                 1.4943                 1.5836
 Frc consts  --      2.2381                 1.2989                 1.4800
 IR Inten    --     36.5239                 3.2438               113.2455

                     31                     32                     33
                      A                      A                      A
 Frequencies --   1286.3154              1307.0325              1313.7959
 Red. masses --      1.3526                 1.4037                 1.4009
 Frc consts  --      1.3186                 1.4129                 1.4247
 IR Inten    --      4.7019                 2.3241                20.7393

                     34                     35                     36
                      A                      A                      A
 Frequencies --   1330.0263              1364.6350              1407.8369
 Red. masses --      1.6403                 1.5943                 1.2204
 Frc consts  --      1.7096                 1.7493                 1.4251
 IR Inten    --     11.4902                 5.9590                 3.7617

                     37                     38                     39
                      A                      A                      A
 Frequencies --   1468.4899              1491.1087              1497.1540
 Red. masses --      2.0310                 1.0677                 1.0517
 Frc consts  --      2.5805                 1.3987                 1.3888
 IR Inten    --      9.7168                 6.1908                 3.6873

                     40                     41                     42
                      A                      A                      A
 Frequencies --   1499.0905              1821.3903              2992.6580
 Red. masses --      1.1107                12.3326                 1.0805
 Frc consts  --      1.4706                24.1053                 5.7018
 IR Inten    --      4.5048               239.9835                10.6002

                     43                     44                     45
                      A                      A                      A
 Frequencies --   3036.6577              3040.3971              3078.5896
 Red. masses --      1.0525                 1.0425                 1.1045
 Frc consts  --      5.7184                 5.6781                 6.1674
 IR Inten    --     13.2598                46.4416                18.9717

                     46                     47                     48
                      A                      A                      A
 Frequencies --   3092.7956              3105.9043              3125.5396
 Red. masses --      1.0879                 1.1015                 1.1010
 Frc consts  --      6.1310                 6.2607                 6.3369
 IR Inten    --     25.9380                29.3971                11.6138

                     49                     50                     51
                      A                      A                      A
 Frequencies --   3185.7283              3206.1592              3804.4057
 Red. masses --      1.0900                 1.0922                 1.0662
 Frc consts  --      6.5178                 6.6152                 9.0920
 IR Inten    --      5.8297                 3.2659                31.5786

 - Thermochemistry -
 -------------------
 Temperature   298.150 Kelvin.  Pressure   1.00000 Atm.
 Atom     1 has atomic number  6 and mass  12.00000

 Molecular mass:   126.06808 amu.
 Principal axes and moments of inertia in atomic units:
                           1         2         3
     Eigenvalues --   573.404561476.810751857.24322
           X            0.99920  -0.03984   0.00413
           Y            0.03981   0.99918   0.00684
           Z           -0.00440  -0.00667   0.99997
 This molecule is an asymmetric top.
 Rotational symmetry number  1.
 Warning -- assumption of classical behavior for rotation
           may cause significant error
 Rotational temperatures (Kelvin)      0.15105     0.05865     0.04664
 Rotational constants (GHZ):           3.14741     1.22205     0.97173
 Zero-point vibrational energy     417814.8 (Joules/Mol)
                                   99.86014 (Kcal/Mol)
 Warning -- explicit consideration of  11 degrees of freedom as
           vibrations may cause significant error
 Vibrational temperatures:    126.95   231.79   278.53   336.86   379.45
          (Kelvin)            423.08   488.37   542.31   600.20   673.09
                              870.98   908.07  1028.83  1105.06  1184.12
                             1228.12  1277.07  1331.41  1372.63  1454.59
                             1483.79  1518.15  1538.07  1590.26  1628.92
                             1649.02  1698.98  1716.60  1747.57  1812.06
                             1850.72  1880.53  1890.26  1913.61  1963.40
                             2025.56  2112.83  2145.37  2154.07  2156.85
                             2620.57  4305.76  4369.07  4374.45  4429.40
                             4449.84  4468.70  4496.95  4583.55  4612.94
                             5473.68

 Zero-point correction=                           0.159137 (Hartree/Particle)
 Thermal correction to Energy=                    0.167694
 Thermal correction to Enthalpy=                  0.168638
 Thermal correction to Gibbs Free Energy=         0.126127
 Sum of electronic and zero-point Energies=           -423.046532
 Sum of electronic and thermal Energies=              -423.037976
 Sum of electronic and thermal Enthalpies=            -423.037031
 Sum of electronic and thermal Free Energies=         -423.079543

                     E (Thermal)             CV                S
                      KCal/Mol        Cal/Mol-Kelvin    Cal/Mol-Kelvin
 Total                  105.230             32.862             89.472
 Electronic               0.000              0.000              0.000
 Translational            0.889              2.981             40.409
 Rotational               0.889              2.981             28.844
 Vibrational            103.452             26.901             20.220
 Vibration     1          0.601              1.957              3.699
 Vibration     2          0.622              1.890              2.537
 Vibration     3          0.635              1.849              2.193
 Vibration     4          0.654              1.789              1.847
 Vibration     5          0.670              1.739              1.637
 Vibration     6          0.689              1.685              1.451
 Vibration     7          0.719              1.597              1.215
 Vibration     8          0.747              1.519              1.051
 Vibration     9          0.780              1.433              0.902
 Vibration    10          0.825              1.321              0.744
 Vibration    11          0.964              1.020              0.441

 Normal termination of Gaussian 09 at Mon Jan 27 23:38:37 2020.
