 Gaussian 09, Revision D.01,
 Gaussian 09:  ES64L-G09RevD.01 24-Apr-2013

 -----------------------------
 # b3lyp 6-31G(2df,p) opt Freq
 -----------------------------

 -----
 titel
 -----
 Symbolic Z-matrix:
 Charge =  0 Multiplicity = 1

 SCF Done:  E(RB3LYP) =  -423.177104822     A.U. after   13 cycles
 Optimization completed.
    -- Stationary point found.
 Normal termination of Gaussian 09 at Tue Jan 28 12:48:59 2020.

 ----------------------------------------------------------------------
 #N Geom=AllCheck Guess=TCheck SCRF=Check GenChk RB3LYP/6-31G(2df,p) Fr
 eq
 ----------------------------------------------------------------------

 Structure from the checkpoint file:  "/scratch/puck/g09_515e8260-ec5c-4f89-8309-34d66ee7a23a/Gau-10929.chk"
 -----
 titel
 -----
 Charge =  0 Multiplicity = 1

                         Standard orientation:
 ---------------------------------------------------------------------
 Center     Atomic      Atomic             Coordinates (Angstroms)
 Number     Number       Type             X           Y           Z
 ---------------------------------------------------------------------
      1          6           0        3.013120    0.365863   -0.097431
      2          6           0        1.829697   -0.561982    0.196656
      3          6           0        0.553374   -0.175285   -0.550233
      4          6           0       -0.135633    1.110752   -0.096929
      5          6           0       -1.094720    0.651779    0.998706
      6          8           0       -0.966304   -0.752255    1.134528
      7          6           0       -0.683411   -1.053631   -0.228646
      8          8           0       -1.732781   -0.428411   -0.959318
      9          6           0       -1.608787    0.868131   -0.402117
     10          1           0        3.912729    0.033073    0.429267
     11          1           0        3.244058    0.389259   -1.168355
     12          1           0        2.806395    1.393557    0.219074
     13          1           0        2.101507   -1.588888   -0.082286
     14          1           0        1.622399   -0.578262    1.271531
     15          1           0        0.718658   -0.174301   -1.633073
     16          1           0        0.318791    2.090702   -0.117458
     17          1           0       -1.373597    1.182821    1.896226
     18          1           0       -0.660637   -2.126208   -0.401629
     19          1           0       -2.339468    1.589826   -0.735017
 ---------------------------------------------------------------------

 SCF Done:  E(RB3LYP) =  -423.177104822     A.U. after    1 cycles

 The electronic state is 1-A.
 Alpha  occ. eigenvalues --  -19.15157 -19.15006 -10.27682 -10.23641 -10.23612
 Alpha  occ. eigenvalues --  -10.19338 -10.19197 -10.18235 -10.17614  -1.10878
 Alpha  occ. eigenvalues --   -0.99862  -0.84130  -0.79295  -0.72524  -0.63281
 Alpha  occ. eigenvalues --   -0.60319  -0.59626  -0.55963  -0.54957  -0.48184
 Alpha  occ. eigenvalues --   -0.46354  -0.44163  -0.42414  -0.41778  -0.40479
 Alpha  occ. eigenvalues --   -0.39320  -0.38418  -0.36603  -0.33854  -0.33279
 Alpha  occ. eigenvalues --   -0.31185  -0.30799  -0.25989  -0.23846
 Alpha virt. eigenvalues --    0.08679   0.10175   0.11673   0.12292   0.13639
 Alpha virt. eigenvalues --    0.13838   0.14586   0.14969   0.16391   0.16955
 Alpha virt. eigenvalues --    0.17747   0.18842   0.19304   0.20813   0.23301

 Mulliken charges:
               1
     1  C   -0.382626
     2  C   -0.195794
     3  C    0.009311
     4  C   -0.180627
     5  C    0.038923
     6  O   -0.248768
     7  C    0.122289
     8  O   -0.248307
     9  C    0.029269
    10  H    0.114297
    11  H    0.114265
    12  H    0.116316
    13  H    0.093392
    14  H    0.113718
    15  H    0.082683
    16  H    0.097812
    17  H    0.113035
    18  H    0.097238
    19  H    0.113574
 Sum of Mulliken charges =   0.00000

 Dipole moment (field-independent basis, Debye):
    X=              1.2047    Y=              1.3385    Z=             -0.1139  Tot=              1.8044
 Quadrupole moment (field-independent basis, Debye-Ang):
   XX=            -55.0698   YY=            -49.3671   ZZ=            -55.0710
   XY=             -3.7861   XZ=             -1.1779   YZ=              1.9910

  Exact polarizability:  81.145  -3.079  71.202  -0.631   1.577  64.756
 Approx polarizability: 106.243  -2.050 108.357   0.447   1.221 105.237

                      1                      2                      3
                      A                      A                      A
 Frequencies --     79.3159               167.9373               193.5718
 Red. masses --      2.3149                 2.9711                 1.6928
 Frc consts  --      0.0086                 0.0494                 0.0374
 IR Inten    --      0.2337                 0.8128                 0.2522

                      4                      5                      6
                      A                      A                      A
 Frequencies --    267.9915               358.1465               508.8026
 Red. masses --      1.5021                 3.5257                 3.6350
 Frc consts  --      0.0636                 0.2665                 0.5544
 IR Inten    --      0.0417                 2.1980                 0.8097

                      7                      8                      9
                      A                      A                      A
 Frequencies --    591.4664               618.6174               713.1912
 Red. masses --      4.0160                 6.2741                 2.8705
 Frc consts  --      0.8277                 1.4146                 0.8602
 IR Inten    --      7.3783                13.2254                 2.8493

                     10                     11                     12
                      A                      A                      A
 Frequencies --    729.3915               795.4297               801.4738
 Red. masses --      5.0670                 1.6262                 1.7376
 Frc consts  --      1.5883                 0.6062                 0.6576
 IR Inten    --      3.4000                13.5192                13.8996

                     13                     14                     15
                      A                      A                      A
 Frequencies --    804.9878               835.7555               884.8510
 Red. masses --      1.6600                 2.8918                 3.9613
 Frc consts  --      0.6338                 1.1901                 1.8274
 IR Inten    --     12.1999                11.3379                48.3759

                     16                     17                     18
                      A                      A                      A
 Frequencies --    898.9580               944.2972               977.2778
 Red. masses --      2.2036                 2.2143                 2.1738
 Frc consts  --      1.0492                 1.1634                 1.2232
 IR Inten    --     15.1707                21.7457                14.1862

                     19                     20                     21
                      A                      A                      A
 Frequencies --    989.8129              1011.8721              1024.3158
 Red. masses --      2.9157                 2.8763                 1.8744
 Frc consts  --      1.6831                 1.7351                 1.1587
 IR Inten    --      8.7793                13.7576                 6.5018

                     22                     23                     24
                      A                      A                      A
 Frequencies --   1037.5196              1043.0976              1068.2898
 Red. masses --      1.3827                 2.1740                 2.2126
 Frc consts  --      0.8769                 1.3937                 1.4878
 IR Inten    --      0.5165                 9.6134                 5.0516

                     25                     26                     27
                      A                      A                      A
 Frequencies --   1088.8037              1096.3327              1117.6667
 Red. masses --      2.3090                 3.8252                 1.6450
 Frc consts  --      1.6128                 2.7089                 1.2107
 IR Inten    --      6.4088                80.5797                 3.6845

                     28                     29                     30
                      A                      A                      A
 Frequencies --   1151.4321              1219.6774              1232.5018
 Red. masses --      2.2233                 1.5377                 1.2446
 Frc consts  --      1.7367                 1.3478                 1.1140
 IR Inten    --      0.2516                 5.7241                 0.7792

                     31                     32                     33
                      A                      A                      A
 Frequencies --   1248.7627              1276.9296              1301.0662
 Red. masses --      1.5389                 1.2856                 1.4245
 Frc consts  --      1.4139                 1.2351                 1.4207
 IR Inten    --      3.4554                 1.3230                 9.6157

                     34                     35                     36
                      A                      A                      A
 Frequencies --   1341.1034              1347.8707              1378.6248
 Red. masses --      1.6458                 1.5534                 1.9602
 Frc consts  --      1.7440                 1.6627                 2.1950
 IR Inten    --     14.5819                 8.6302                 5.9307

                     37                     38                     39
                      A                      A                      A
 Frequencies --   1390.7272              1413.4891              1489.2728
 Red. masses --      1.6462                 1.2340                 1.0584
 Frc consts  --      1.8759                 1.4526                 1.3831
 IR Inten    --      1.2931                 1.1424                 0.8744

                     40                     41                     42
                      A                      A                      A
 Frequencies --   1501.2046              1507.4719              3019.3938
 Red. masses --      1.0407                 1.0734                 1.0671
 Frc consts  --      1.3818                 1.4372                 5.7320
 IR Inten    --      4.9644                 3.0667                27.0261

                     43                     44                     45
                      A                      A                      A
 Frequencies --   3031.5940              3054.5901              3075.8872
 Red. masses --      1.0358                 1.0841                 1.0941
 Frc consts  --      5.6087                 5.9597                 6.0990
 IR Inten    --     26.1325                10.3669                 5.9286

                     46                     47                     48
                      A                      A                      A
 Frequencies --   3101.4235              3104.2257              3174.8639
 Red. masses --      1.1011                 1.1010                 1.0932
 Frc consts  --      6.2405                 6.2508                 6.4920
 IR Inten    --     48.6456                35.8839                19.7491

                     49                     50                     51
                      A                      A                      A
 Frequencies --   3222.6436              3232.7245              3243.0030
 Red. masses --      1.0916                 1.0919                 1.1003
 Frc consts  --      6.6794                 6.7229                 6.8179
 IR Inten    --      3.7547                 3.3901                 9.0983

 - Thermochemistry -
 -------------------
 Temperature   298.150 Kelvin.  Pressure   1.00000 Atm.
 Atom     1 has atomic number  6 and mass  12.00000

 Molecular mass:   126.06808 amu.
 Principal axes and moments of inertia in atomic units:
                           1         2         3
     Eigenvalues --   508.313531357.355391406.23130
           X            0.99994  -0.00854  -0.00651
           Y            0.00909   0.99593   0.08968
           Z            0.00572  -0.08974   0.99595
 This molecule is an asymmetric top.
 Rotational symmetry number  1.
 Warning -- assumption of classical behavior for rotation
           may cause significant error
 Rotational temperatures (Kelvin)      0.17039     0.06381     0.06159
 Rotational constants (GHZ):           3.55045     1.32960     1.28339
 Zero-point vibrational energy     422937.7 (Joules/Mol)
                                  101.08453 (Kcal/Mol)
 Warning -- explicit consideration of   8 degrees of freedom as
           vibrations may cause significant error
 Vibrational temperatures:    114.12   241.62   278.51   385.58   515.29
          (Kelvin)            732.05   850.99   890.05  1026.12  1049.43
                             1144.44  1153.14  1158.20  1202.46  1273.10
                             1293.40  1358.63  1406.08  1424.12  1455.86
                             1473.76  1492.76  1500.78  1537.03  1566.54
                             1577.38  1608.07  1656.65  1754.84  1773.29
                             1796.69  1837.21  1871.94  1929.55  1939.28
                             1983.53  2000.94  2033.69  2142.73  2159.90
                             2168.91  4344.23  4361.78  4394.87  4425.51
                             4462.25  4466.28  4567.92  4636.66  4651.16
                             4665.95

 Zero-point correction=                           0.161088 (Hartree/Particle)
 Thermal correction to Energy=                    0.168353
 Thermal correction to Enthalpy=                  0.169297
 Thermal correction to Gibbs Free Energy=         0.129147
 Sum of electronic and zero-point Energies=           -423.016016
 Sum of electronic and thermal Energies=              -423.008752
 Sum of electronic and thermal Enthalpies=            -423.007808
 Sum of electronic and thermal Free Energies=         -423.047958

                     E (Thermal)             CV                S
                      KCal/Mol        Cal/Mol-Kelvin    Cal/Mol-Kelvin
 Total                  105.643             29.032             84.503
 Electronic               0.000              0.000              0.000
 Translational            0.889              2.981             40.409
 Rotational               0.889              2.981             28.364
 Vibrational            103.865             23.071             15.731
 Vibration     1          0.600              1.963              3.908
 Vibration     2          0.625              1.882              2.458
 Vibration     3          0.635              1.849              2.193
 Vibration     4          0.673              1.732              1.609
 Vibration     5          0.733              1.559              1.130
 Vibration     6          0.864              1.230              0.636
 Vibration     7          0.949              1.050              0.465
 Vibration     8          0.978              0.993              0.419

 Optimization completed.
    -- Stationary point found.
 Normal termination of Gaussian 09 at Tue Jan 28 14:48:04 2020.
