 Gaussian 09, Revision D.01,
 Gaussian 09:  ES64L-G09RevD.01 24-Apr-2013

 -----------------------------
 # b3lyp 6-31G(2df,p) opt Freq
 -----------------------------

 -----
 titel
 -----
 Symbolic Z-matrix:
 Charge =  0 Multiplicity = 1

 SCF Done:  E(RB3LYP) =  -423.170040661     A.U. after   14 cycles
 Optimization completed.
    -- Stationary point found.
 Normal termination of Gaussian 09 at Mon Jan 27 14:10:02 2020.

 ----------------------------------------------------------------------
 #N Geom=AllCheck Guess=TCheck SCRF=Check GenChk RB3LYP/6-31G(2df,p) Fr
 eq
 ----------------------------------------------------------------------

 Structure from the checkpoint file:  "/scratch/puck/g09_ffee5852-0b0f-4100-bfb3-60c13ac970bf/Gau-31457.chk"
 -----
 titel
 -----
 Charge =  0 Multiplicity = 1

                         Standard orientation:
 ---------------------------------------------------------------------
 Center     Atomic      Atomic             Coordinates (Angstroms)
 Number     Number       Type             X           Y           Z
 ---------------------------------------------------------------------
      1          6           0       -2.645462   -0.912986    0.044625
      2          6           0       -1.753731    0.307618    0.058278
      3          8           0       -2.133357    1.417292   -0.238182
      4          6           0       -0.306709    0.093962    0.502741
      5          8           0        0.191194   -1.236640    0.219552
      6          6           0        1.204539   -0.711444   -0.671147
      7          6           0        2.561271   -0.474550    0.029991
      8          6           0        2.128917    0.992859    0.349969
      9          6           0        0.773780    0.753891   -0.368891
     10          1           0       -2.245680   -1.654807   -0.652796
     11          1           0       -2.644891   -1.392246    1.030397
     12          1           0       -3.660056   -0.627895   -0.234977
     13          1           0       -0.256226    0.329839    1.577774
     14          1           0        1.186514   -1.204646   -1.646248
     15          1           0        2.731506   -1.133685    0.883810
     16          1           0        3.419639   -0.539027   -0.643867
     17          1           0        2.055009    1.258538    1.407960
     18          1           0        2.749319    1.742212   -0.146103
     19          1           0        0.426546    1.480413   -1.100311
 ---------------------------------------------------------------------

 SCF Done:  E(RB3LYP) =  -423.170040661     A.U. after    1 cycles

 The electronic state is 1-A.
 Alpha  occ. eigenvalues --  -19.14289 -19.13152 -10.26968 -10.24196 -10.23819
 Alpha  occ. eigenvalues --  -10.19585 -10.19067 -10.18630 -10.18524  -1.05251
 Alpha  occ. eigenvalues --   -1.03733  -0.82841  -0.75792  -0.71954  -0.65568
 Alpha  occ. eigenvalues --   -0.63825  -0.55573  -0.52064  -0.50175  -0.48693
 Alpha  occ. eigenvalues --   -0.47427  -0.45242  -0.43213  -0.42874  -0.40572
 Alpha  occ. eigenvalues --   -0.38932  -0.37491  -0.36428  -0.34917  -0.33469
 Alpha  occ. eigenvalues --   -0.30904  -0.28900  -0.27748  -0.23256
 Alpha virt. eigenvalues --   -0.01686   0.06635   0.09251   0.10214   0.10740
 Alpha virt. eigenvalues --    0.12536   0.13799   0.15233   0.16529   0.16611
 Alpha virt. eigenvalues --    0.17545   0.18199   0.18787   0.19832   0.21695

 Mulliken charges:
               1
     1  C   -0.474855
     2  C    0.339305
     3  O   -0.298648
     4  C    0.031208
     5  O   -0.309450
     6  C    0.120117
     7  C   -0.232114
     8  C   -0.247173
     9  C   -0.073227
    10  H    0.155489
    11  H    0.143095
    12  H    0.137372
    13  H    0.101433
    14  H    0.079133
    15  H    0.113323
    16  H    0.105293
    17  H    0.104174
    18  H    0.109493
    19  H    0.096032
 Sum of Mulliken charges =   0.00000

 Dipole moment (field-independent basis, Debye):
    X=              1.5515    Y=             -0.9359    Z=              0.0684  Tot=              1.8132
 Quadrupole moment (field-independent basis, Debye-Ang):
   XX=            -52.3675   YY=            -58.1801   ZZ=            -50.6061
   XY=              5.6918   XZ=             -2.2765   YZ=              1.6123

  Exact polarizability:  90.351   0.596  72.907  -0.498   0.446  63.093
 Approx polarizability: 110.348  -4.200 115.995  -1.101  -2.406  97.995

                      1                      2                      3
                      A                      A                      A
 Frequencies --     32.9362                78.0604               111.9807
 Red. masses --      3.4772                 3.1351                 1.1301
 Frc consts  --      0.0022                 0.0113                 0.0083
 IR Inten    --      5.5098                 0.0752                 0.2938

                      4                      5                      6
                      A                      A                      A
 Frequencies --    168.6953               204.7743               300.3610
 Red. masses --      3.4547                 2.3437                 3.2246
 Frc consts  --      0.0579                 0.0579                 0.1714
 IR Inten    --      7.4809                 1.4600                 0.3551

                      7                      8                      9
                      A                      A                      A
 Frequencies --    382.0878               448.6242               507.3929
 Red. masses --      3.3108                 2.8014                 4.6632
 Frc consts  --      0.2848                 0.3322                 0.7073
 IR Inten    --      5.8127                 6.2089                 1.5092

                     10                     11                     12
                      A                      A                      A
 Frequencies --    576.0945               713.1656               732.5534
 Red. masses --      3.2220                 2.9838                 1.4333
 Frc consts  --      0.6300                 0.8941                 0.4532
 IR Inten    --     12.9307                 0.6080                 0.4563

                     13                     14                     15
                      A                      A                      A
 Frequencies --    777.0071               823.5735               829.3064
 Red. masses --      2.7850                 2.2387                 1.6814
 Frc consts  --      0.9907                 0.8946                 0.6813
 IR Inten    --      2.3628                 8.4281                 9.7535

                     16                     17                     18
                      A                      A                      A
 Frequencies --    911.8074               929.0657               947.5047
 Red. masses --      3.5022                 2.4393                 2.6038
 Frc consts  --      1.7155                 1.2406                 1.3773
 IR Inten    --     16.6172                 1.5087                 6.8538

                     19                     20                     21
                      A                      A                      A
 Frequencies --    969.1129               981.5699              1026.1951
 Red. masses --      2.1512                 1.7697                 2.9788
 Frc consts  --      1.1904                 1.0046                 1.8482
 IR Inten    --     13.3607                10.2803                70.7930

                     22                     23                     24
                      A                      A                      A
 Frequencies --   1035.9651              1056.9436              1075.9275
 Red. masses --      2.5447                 2.2458                 1.9465
 Frc consts  --      1.6091                 1.4782                 1.3276
 IR Inten    --     23.5868                14.2350                 1.8012

                     25                     26                     27
                      A                      A                      A
 Frequencies --   1141.1127              1167.8878              1198.4064
 Red. masses --      1.6318                 1.8112                 1.4454
 Frc consts  --      1.2520                 1.4555                 1.2230
 IR Inten    --      6.0517                10.1877                 5.8574

                     28                     29                     30
                      A                      A                      A
 Frequencies --   1212.4339              1239.7803              1247.6370
 Red. masses --      1.8737                 1.2654                 1.7059
 Frc consts  --      1.6228                 1.1460                 1.5645
 IR Inten    --     23.1104                 2.4415                47.1923

                     31                     32                     33
                      A                      A                      A
 Frequencies --   1264.2620              1279.5339              1300.3626
 Red. masses --      1.5586                 1.5130                 1.4629
 Frc consts  --      1.4678                 1.4595                 1.4574
 IR Inten    --      2.2196                 3.1112                 5.7364

                     34                     35                     36
                      A                      A                      A
 Frequencies --   1328.0970              1356.1495              1380.0380
 Red. masses --      1.4874                 1.6389                 1.3568
 Frc consts  --      1.5457                 1.7759                 1.5225
 IR Inten    --      3.7435                 4.8860                39.5065

                     37                     38                     39
                      A                      A                      A
 Frequencies --   1456.1116              1464.2966              1465.5354
 Red. masses --      1.0529                 1.0883                 1.0533
 Frc consts  --      1.3153                 1.3748                 1.3328
 IR Inten    --     15.3558                 1.7114                 8.4232

                     40                     41                     42
                      A                      A                      A
 Frequencies --   1489.1153              1809.7072              2980.3383
 Red. masses --      1.1079                11.3163                 1.0823
 Frc consts  --      1.4475                21.8360                 5.6642
 IR Inten    --      1.9418               136.5837                35.7545

                     43                     44                     45
                      A                      A                      A
 Frequencies --   3043.8511              3060.0547              3064.0585
 Red. masses --      1.0373                 1.0586                 1.0648
 Frc consts  --      5.6627                 5.8401                 5.8902
 IR Inten    --      1.4803                25.9211                43.9789

                     46                     47                     48
                      A                      A                      A
 Frequencies --   3078.7124              3107.3961              3108.3246
 Red. masses --      1.0855                 1.1068                 1.0944
 Frc consts  --      6.0622                 6.2968                 6.2301
 IR Inten    --     47.4327                 2.8040                 4.2639

                     49                     50                     51
                      A                      A                      A
 Frequencies --   3127.4727              3140.5279              3158.9361
 Red. masses --      1.1063                 1.0907                 1.1044
 Frc consts  --      6.3754                 6.3378                 6.4932
 IR Inten    --     25.6992                18.7125                10.3294

 - Thermochemistry -
 -------------------
 Temperature   298.150 Kelvin.  Pressure   1.00000 Atm.
 Atom     1 has atomic number  6 and mass  12.00000

 Molecular mass:   126.06808 amu.
 Principal axes and moments of inertia in atomic units:
                           1         2         3
     Eigenvalues --   480.290081558.373531863.63717
           X            0.99932   0.03680  -0.00079
           Y           -0.03678   0.99917   0.01747
           Z            0.00144  -0.01743   0.99985
 This molecule is an asymmetric top.
 Rotational symmetry number  1.
 Warning -- assumption of classical behavior for rotation
           may cause significant error
 Rotational temperatures (Kelvin)      0.18034     0.05558     0.04648
 Rotational constants (GHZ):           3.75761     1.15809     0.96840
 Zero-point vibrational energy     414451.3 (Joules/Mol)
                                   99.05624 (Kcal/Mol)
 Warning -- explicit consideration of  10 degrees of freedom as
           vibrations may cause significant error
 Vibrational temperatures:     47.39   112.31   161.12   242.71   294.62
          (Kelvin)            432.15   549.74   645.47   730.02   828.87
                             1026.08  1053.98  1117.94  1184.94  1193.19
                             1311.89  1336.72  1363.25  1394.34  1412.26
                             1476.46  1490.52  1520.70  1548.02  1641.80
                             1680.33  1724.24  1744.42  1783.77  1795.07
                             1818.99  1840.96  1870.93  1910.83  1951.19
                             1985.56  2095.02  2106.79  2108.58  2142.50
                             2603.76  4288.04  4379.42  4402.73  4408.49
                             4429.57  4470.84  4472.18  4499.73  4518.51
                             4545.00

 Zero-point correction=                           0.157856 (Hartree/Particle)
 Thermal correction to Energy=                    0.166590
 Thermal correction to Enthalpy=                  0.167534
 Thermal correction to Gibbs Free Energy=         0.123167
 Sum of electronic and zero-point Energies=           -423.012185
 Sum of electronic and thermal Energies=              -423.003451
 Sum of electronic and thermal Enthalpies=            -423.002506
 Sum of electronic and thermal Free Energies=         -423.046874

                     E (Thermal)             CV                S
                      KCal/Mol        Cal/Mol-Kelvin    Cal/Mol-Kelvin
 Total                  104.537             31.842             93.379
 Electronic               0.000              0.000              0.000
 Translational            0.889              2.981             40.409
 Rotational               0.889              2.981             28.724
 Vibrational            102.759             25.880             24.246
 Vibration     1          0.594              1.983              5.644
 Vibration     2          0.599              1.964              3.939
 Vibration     3          0.607              1.940              3.234
 Vibration     4          0.625              1.881              2.450
 Vibration     5          0.640              1.833              2.090
 Vibration     6          0.693              1.673              1.415
 Vibration     7          0.752              1.508              1.031
 Vibration     8          0.808              1.364              0.800
 Vibration     9          0.863              1.234              0.640
 Vibration    10          0.933              1.083              0.493

 Optimization completed.
    -- Stationary point found.
 Normal termination of Gaussian 09 at Mon Jan 27 15:03:30 2020.
