 Gaussian 09, Revision D.01,
 Gaussian 09:  ES64L-G09RevD.01 24-Apr-2013

 -----------------------------
 # b3lyp 6-31G(2df,p) opt Freq
 -----------------------------

 -----
 titel
 -----
 Symbolic Z-matrix:
 Charge =  0 Multiplicity = 1

 SCF Done:  E(RB3LYP) =  -423.166616371     A.U. after   14 cycles
 Optimization completed.
    -- Stationary point found.
 Normal termination of Gaussian 09 at Tue Jan 28 03:58:25 2020.

 ----------------------------------------------------------------------
 #N Geom=AllCheck Guess=TCheck SCRF=Check GenChk RB3LYP/6-31G(2df,p) Fr
 eq
 ----------------------------------------------------------------------

 Structure from the checkpoint file:  "/scratch/puck/g09_882dc555-bc1d-45a2-9822-c9cde0e24beb/Gau-95034.chk"
 -----
 titel
 -----
 Charge =  0 Multiplicity = 1

                         Standard orientation:
 ---------------------------------------------------------------------
 Center     Atomic      Atomic             Coordinates (Angstroms)
 Number     Number       Type             X           Y           Z
 ---------------------------------------------------------------------
      1          8           0        2.560624   -0.894062    0.445642
      2          6           0        1.784332   -0.048449   -0.363399
      3          6           0        1.313897    1.352723    0.184906
      4          6           0       -0.100402    1.059152   -0.408215
      5          6           0       -1.386629    1.167362    0.404085
      6          8           0       -2.313877    0.207226   -0.093448
      7          6           0       -1.928986   -1.145424    0.103542
      8          6           0       -0.459996   -1.409417   -0.119701
      9          6           0        0.321987   -0.393861   -0.451935
     10          1           0        3.488408   -0.677840    0.311643
     11          1           0        2.234036    0.073752   -1.361234
     12          1           0        1.304711    1.331193    1.278017
     13          1           0        1.843981    2.240955   -0.167154
     14          1           0       -0.229966    1.512402   -1.396724
     15          1           0       -1.171749    0.989922    1.470370
     16          1           0       -1.884474    2.136559    0.308626
     17          1           0       -2.191960   -1.470884    1.126976
     18          1           0       -2.553066   -1.731313   -0.582541
     19          1           0       -0.079112   -2.402567    0.098769
 ---------------------------------------------------------------------

 SCF Done:  E(RB3LYP) =  -423.166616371     A.U. after    1 cycles

 The electronic state is 1-A.
 Alpha  occ. eigenvalues --  -19.14140 -19.13343 -10.23934 -10.22704 -10.22354
 Alpha  occ. eigenvalues --  -10.18575 -10.18535 -10.17837 -10.17500  -1.02609
 Alpha  occ. eigenvalues --   -1.02380  -0.85118  -0.76371  -0.71166  -0.66007
 Alpha  occ. eigenvalues --   -0.60646  -0.59169  -0.52683  -0.51523  -0.48909
 Alpha  occ. eigenvalues --   -0.47295  -0.45104  -0.43877  -0.40704  -0.40065
 Alpha  occ. eigenvalues --   -0.37862  -0.37083  -0.35738  -0.32871  -0.31984
 Alpha  occ. eigenvalues --   -0.29378  -0.27074  -0.24749  -0.23372
 Alpha virt. eigenvalues --    0.01736   0.08160   0.10730   0.11219   0.12271
 Alpha virt. eigenvalues --    0.12958   0.14795   0.15705   0.16563   0.16941
 Alpha virt. eigenvalues --    0.17310   0.18249   0.20449   0.20850   0.22639

 Mulliken charges:
               1
     1  O   -0.428117
     2  C    0.047439
     3  C   -0.300461
     4  C   -0.063580
     5  C   -0.105976
     6  O   -0.254892
     7  C   -0.099421
     8  C   -0.253440
     9  C    0.299614
    10  H    0.285471
    11  H    0.076210
    12  H    0.112810
    13  H    0.094696
    14  H    0.081887
    15  H    0.086498
    16  H    0.104128
    17  H    0.097588
    18  H    0.118102
    19  H    0.101445
 Sum of Mulliken charges =   0.00000

 Dipole moment (field-independent basis, Debye):
    X=              1.9405    Y=              0.6969    Z=             -0.1655  Tot=              2.0685
 Quadrupole moment (field-independent basis, Debye-Ang):
   XX=            -50.2356   YY=            -51.3279   ZZ=            -53.6258
   XY=              3.3315   XZ=             -2.7953   YZ=              0.2000

  Exact polarizability:  91.767   8.614  84.894  -3.062  -3.188  60.015
 Approx polarizability: 124.208  15.056 127.168  -4.076  -8.909  95.136

                      1                      2                      3
                      A                      A                      A
 Frequencies --    110.4377               155.7754               249.5058
 Red. masses --      3.5744                 3.5343                 1.5024
 Frc consts  --      0.0257                 0.0505                 0.0551
 IR Inten    --      1.0922                 4.5862                45.8814

                      4                      5                      6
                      A                      A                      A
 Frequencies --    255.3420               281.9979               332.4810
 Red. masses --      1.8436                 2.3015                 2.3819
 Frc consts  --      0.0708                 0.1078                 0.1551
 IR Inten    --     59.6051                 3.3893                 0.7644

                      7                      8                      9
                      A                      A                      A
 Frequencies --    418.5640               444.1840               499.5827
 Red. masses --      2.9298                 5.4685                 4.2060
 Frc consts  --      0.3024                 0.6357                 0.6185
 IR Inten    --      2.7251                 2.0533                 3.7388

                     10                     11                     12
                      A                      A                      A
 Frequencies --    569.0742               646.6884               706.0243
 Red. masses --      4.5338                 2.2749                 2.6743
 Frc consts  --      0.8651                 0.5605                 0.7854
 IR Inten    --     17.5588                 3.2180                 3.1373

                     13                     14                     15
                      A                      A                      A
 Frequencies --    796.8708               831.9918               854.1004
 Red. masses --      3.2759                 1.2810                 2.5814
 Frc consts  --      1.2256                 0.5224                 1.1095
 IR Inten    --      7.8842                 7.9894                 4.7932

                     16                     17                     18
                      A                      A                      A
 Frequencies --    900.9091               928.7663               972.1229
 Red. masses --      2.7868                 1.8080                 2.7735
 Frc consts  --      1.3327                 0.9189                 1.5443
 IR Inten    --     12.3502                 3.3705                17.2718

                     19                     20                     21
                      A                      A                      A
 Frequencies --   1005.3398              1020.1823              1044.6652
 Red. masses --      2.2910                 3.0855                 2.2896
 Frc consts  --      1.3643                 1.8921                 1.4722
 IR Inten    --      2.6888                11.0946                 8.1444

                     22                     23                     24
                      A                      A                      A
 Frequencies --   1069.8241              1102.8870              1134.7177
 Red. masses --      2.1546                 2.2100                 2.1689
 Frc consts  --      1.4529                 1.5838                 1.6453
 IR Inten    --      9.5342                29.5785                45.1590

                     25                     26                     27
                      A                      A                      A
 Frequencies --   1140.3433              1165.4286              1198.7938
 Red. masses --      2.4900                 3.0144                 1.2037
 Frc consts  --      1.9078                 2.4123                 1.0192
 IR Inten    --     25.4070                53.9797                 3.4210

                     28                     29                     30
                      A                      A                      A
 Frequencies --   1225.0075              1237.1129              1253.2962
 Red. masses --      1.3801                 1.3822                 1.1770
 Frc consts  --      1.2202                 1.2464                 1.0892
 IR Inten    --     84.4291                 3.7922                 8.5048

                     31                     32                     33
                      A                      A                      A
 Frequencies --   1281.2999              1303.5650              1313.4010
 Red. masses --      1.2471                 1.2651                 1.4183
 Frc consts  --      1.2063                 1.2666                 1.4415
 IR Inten    --      8.9467                17.8179                 9.7475

                     34                     35                     36
                      A                      A                      A
 Frequencies --   1356.5594              1367.9330              1405.9996
 Red. masses --      1.6893                 1.2979                 1.3736
 Frc consts  --      1.8316                 1.4309                 1.5999
 IR Inten    --      0.3115                 3.3414                19.7350

                     37                     38                     39
                      A                      A                      A
 Frequencies --   1438.2494              1477.8773              1486.8079
 Red. masses --      1.4707                 1.1278                 1.0836
 Frc consts  --      1.7925                 1.4513                 1.4113
 IR Inten    --     17.5456                 3.7103                 0.9276

                     40                     41                     42
                      A                      A                      A
 Frequencies --   1500.1732              1777.5941              2937.1603
 Red. masses --      1.0920                 8.5469                 1.0728
 Frc consts  --      1.4479                15.9119                 5.4528
 IR Inten    --      3.5362                 2.4190                68.1111

                     43                     44                     45
                      A                      A                      A
 Frequencies --   2974.5870              2975.8841              3041.8384
 Red. masses --      1.0823                 1.0694                 1.0868
 Frc consts  --      5.6422                 5.5797                 5.9247
 IR Inten    --     67.4654                36.1254                36.3354

                     46                     47                     48
                      A                      A                      A
 Frequencies --   3046.2573              3058.5135              3084.8460
 Red. masses --      1.0832                 1.0568                 1.0954
 Frc consts  --      5.9225                 5.8247                 6.1416
 IR Inten    --     21.3678                38.1879                47.8477

                     49                     50                     51
                      A                      A                      A
 Frequencies --   3122.4218              3176.7141              3824.1056
 Red. masses --      1.1092                 1.0913                 1.0663
 Frc consts  --      6.3717                 6.4886                 9.1871
 IR Inten    --     34.0592                 8.6608                24.1495

 - Thermochemistry -
 -------------------
 Temperature   298.150 Kelvin.  Pressure   1.00000 Atm.
 Atom     1 has atomic number  8 and mass  15.99491

 Molecular mass:   126.06808 amu.
 Principal axes and moments of inertia in atomic units:
                           1         2         3
     Eigenvalues --   550.825661362.749781760.10388
           X            0.99961   0.02606  -0.01041
           Y           -0.02605   0.99966   0.00075
           Z            0.01043  -0.00048   0.99995
 This molecule is an asymmetric top.
 Rotational symmetry number  1.
 Warning -- assumption of classical behavior for rotation
           may cause significant error
 Rotational temperatures (Kelvin)      0.15724     0.06356     0.04921
 Rotational constants (GHZ):           3.27643     1.32434     1.02536
 Zero-point vibrational energy     421706.4 (Joules/Mol)
                                  100.79025 (Kcal/Mol)
 Warning -- explicit consideration of  10 degrees of freedom as
           vibrations may cause significant error
 Vibrational temperatures:    158.89   224.13   358.98   367.38   405.73
          (Kelvin)            478.37   602.22   639.08   718.79   818.77
                              930.44  1015.81  1146.52  1197.05  1228.86
                             1296.21  1336.29  1398.67  1446.46  1467.81
                             1503.04  1539.24  1586.81  1632.60  1640.70
                             1676.79  1724.79  1762.51  1779.93  1803.21
                             1843.50  1875.54  1889.69  1951.78  1968.15
                             2022.92  2069.32  2126.33  2139.18  2158.41
                             2557.56  4225.91  4279.76  4281.63  4376.52
                             4382.88  4400.51  4438.40  4492.46  4570.58
                             5502.03

 Zero-point correction=                           0.160619 (Hartree/Particle)
 Thermal correction to Energy=                    0.168514
 Thermal correction to Enthalpy=                  0.169458
 Thermal correction to Gibbs Free Energy=         0.128357
 Sum of electronic and zero-point Energies=           -423.005997
 Sum of electronic and thermal Energies=              -422.998103
 Sum of electronic and thermal Enthalpies=            -422.997158
 Sum of electronic and thermal Free Energies=         -423.038260

                     E (Thermal)             CV                S
                      KCal/Mol        Cal/Mol-Kelvin    Cal/Mol-Kelvin
 Total                  105.744             30.994             86.505
 Electronic               0.000              0.000              0.000
 Translational            0.889              2.981             40.409
 Rotational               0.889              2.981             28.670
 Vibrational            103.967             25.032             17.426
 Vibration     1          0.606              1.941              3.261
 Vibration     2          0.620              1.896              2.600
 Vibration     3          0.662              1.764              1.734
 Vibration     4          0.666              1.754              1.693
 Vibration     5          0.681              1.707              1.522
 Vibration     6          0.714              1.611              1.248
 Vibration     7          0.781              1.430              0.897
 Vibration     8          0.804              1.374              0.814
 Vibration     9          0.855              1.251              0.659
 Vibration    10          0.925              1.098              0.506

 Optimization completed.
    -- Stationary point found.
 Normal termination of Gaussian 09 at Tue Jan 28 04:44:34 2020.
