 Gaussian 09, Revision D.01,
 Gaussian 09:  ES64L-G09RevD.01 24-Apr-2013

 -----------------------------
 # b3lyp 6-31G(2df,p) opt Freq
 -----------------------------

 -----
 titel
 -----
 Symbolic Z-matrix:
 Charge =  0 Multiplicity = 1

 SCF Done:  E(RB3LYP) =  -423.109257839     A.U. after   13 cycles
 Optimization completed.
    -- Stationary point found.
 Normal termination of Gaussian 09 at Mon Jan 27 22:07:35 2020.

 ----------------------------------------------------------------------
 #N Geom=AllCheck Guess=TCheck SCRF=Check GenChk RB3LYP/6-31G(2df,p) Fr
 eq
 ----------------------------------------------------------------------

 Structure from the checkpoint file:  "/scratch/puck/g09_7fbd211f-0376-4b70-becd-7376a018414a/Gau-159557.chk"
 -----
 titel
 -----
 Charge =  0 Multiplicity = 1

                         Standard orientation:
 ---------------------------------------------------------------------
 Center     Atomic      Atomic             Coordinates (Angstroms)
 Number     Number       Type             X           Y           Z
 ---------------------------------------------------------------------
      1          6           0        2.350298   -1.112438    0.009394
      2          6           0        0.829564   -1.160439    0.009256
      3          6           0        0.024744   -0.239832   -0.942754
      4          6           0       -1.221759   -0.256444   -0.004729
      5          8           0       -2.195500   -1.229608   -0.093513
      6          6           0       -1.375319    1.278963   -0.008547
      7          6           0        0.145960    1.002626   -0.004588
      8          8           0        1.176195    1.919360   -0.094377
      9          6           0        0.025236   -0.240367    0.959952
     10          1           0        2.755557   -1.617731    0.893844
     11          1           0        2.756055   -1.622726   -0.871641
     12          1           0        2.717044   -0.083048    0.004445
     13          1           0        0.467993   -2.195121    0.006482
     14          1           0       -0.005695   -0.210260   -2.033358
     15          1           0       -2.747422   -1.182703    0.694566
     16          1           0       -1.790143    1.731402   -0.914815
     17          1           0       -1.797893    1.738592    0.893148
     18          1           0        1.130610    2.503916    0.670146
     19          1           0       -0.004010   -0.212748    2.052404
 ---------------------------------------------------------------------

 SCF Done:  E(RB3LYP) =  -423.109257839     A.U. after    1 cycles

 The electronic state is 1-A.
 Alpha  occ. eigenvalues --  -19.15137 -19.15013 -10.24527 -10.24461 -10.18783
 Alpha  occ. eigenvalues --  -10.18620 -10.18198 -10.17931 -10.16132  -1.04107
 Alpha  occ. eigenvalues --   -1.03300  -0.92472  -0.76049  -0.68464  -0.63676
 Alpha  occ. eigenvalues --   -0.62215  -0.57873  -0.55181  -0.49912  -0.47255
 Alpha  occ. eigenvalues --   -0.45764  -0.44477  -0.43486  -0.39674  -0.39262
 Alpha  occ. eigenvalues --   -0.38030  -0.36743  -0.34752  -0.32598  -0.30047
 Alpha  occ. eigenvalues --   -0.29244  -0.27755  -0.26439  -0.24344
 Alpha virt. eigenvalues --    0.06905   0.08333   0.11305   0.12570   0.12737
 Alpha virt. eigenvalues --    0.14188   0.14702   0.16198   0.17055   0.17919
 Alpha virt. eigenvalues --    0.18614   0.19260   0.19904   0.20224   0.21672

 Mulliken charges:
               1
     1  C   -0.433441
     2  C   -0.001135
     3  C   -0.133091
     4  C    0.416485
     5  O   -0.478124
     6  C   -0.397949
     7  C    0.408113
     8  O   -0.473252
     9  C   -0.206520
    10  H    0.106404
    11  H    0.110926
    12  H    0.132157
    13  H    0.071806
    14  H    0.072417
    15  H    0.284795
    16  H    0.099816
    17  H    0.078945
    18  H    0.284557
    19  H    0.057092
 Sum of Mulliken charges =   0.00000

 Dipole moment (field-independent basis, Debye):
    X=             -0.8481    Y=              0.9174    Z=              2.1911  Tot=              2.5222
 Quadrupole moment (field-independent basis, Debye-Ang):
   XX=            -53.2322   YY=            -52.5418   ZZ=            -50.6372
   XY=             -1.1664   XZ=             -2.2675   YZ=              1.7700

  Exact polarizability:  82.326  -4.690  76.665  -1.002   0.937  68.448
 Approx polarizability: 111.398   0.258 111.067  -1.619   1.656 109.629

                      1                      2                      3
                      A                      A                      A
 Frequencies --    178.2938               216.1447               224.9908
 Red. masses --      3.1448                 1.0525                 2.1119
 Frc consts  --      0.0589                 0.0290                 0.0630
 IR Inten    --      1.5827                 8.6982                 3.3756

                      4                      5                      6
                      A                      A                      A
 Frequencies --    236.3775               253.3857               270.7121
 Red. masses --      1.5314                 1.3391                 2.8512
 Frc consts  --      0.0504                 0.0507                 0.1231
 IR Inten    --     50.8732                15.1244                 1.7231

                      7                      8                      9
                      A                      A                      A
 Frequencies --    326.6242               385.8105               432.7230
 Red. masses --      2.5354                 3.8246                 2.1985
 Frc consts  --      0.1594                 0.3354                 0.2425
 IR Inten    --    127.0624                 5.6380                 3.9132

                     10                     11                     12
                      A                      A                      A
 Frequencies --    468.3075               553.5058               606.7439
 Red. masses --      2.2539                 3.1541                 9.0768
 Frc consts  --      0.2912                 0.5693                 1.9688
 IR Inten    --      7.9639                 0.3119                 0.2484

                     13                     14                     15
                      A                      A                      A
 Frequencies --    671.7439               702.3194               760.2347
 Red. masses --      3.7765                 3.6271                 2.4689
 Frc consts  --      1.0040                 1.0541                 0.8407
 IR Inten    --      3.3962                 0.4201                 2.8152

                     16                     17                     18
                      A                      A                      A
 Frequencies --    847.5265               849.7279               913.9230
 Red. masses --      2.1630                 2.1553                 3.4684
 Frc consts  --      0.9154                 0.9169                 1.7069
 IR Inten    --      0.3748                 0.4482                10.5752

                     19                     20                     21
                      A                      A                      A
 Frequencies --    945.5875               992.8294              1031.6278
 Red. masses --      2.1078                 1.1241                 1.6825
 Frc consts  --      1.1104                 0.6528                 1.0550
 IR Inten    --      0.7529                 1.8827                11.6011

                     22                     23                     24
                      A                      A                      A
 Frequencies --   1033.1694              1072.9225              1074.9822
 Red. masses --      3.3127                 1.7868                 1.6765
 Frc consts  --      2.0834                 1.2119                 1.1415
 IR Inten    --      2.1994                 1.4213                 3.7655

                     25                     26                     27
                      A                      A                      A
 Frequencies --   1083.4542              1090.5408              1134.4416
 Red. masses --      1.2681                 1.5676                 2.0954
 Frc consts  --      0.8771                 1.0985                 1.5888
 IR Inten    --     10.4183                57.6033                25.6450

                     28                     29                     30
                      A                      A                      A
 Frequencies --   1149.0083              1160.2211              1181.1786
 Red. masses --      1.7760                 2.4670                 2.2029
 Frc consts  --      1.3814                 1.9566                 1.8108
 IR Inten    --      2.2304                12.5727                 5.5462

                     31                     32                     33
                      A                      A                      A
 Frequencies --   1237.5411              1260.4337              1273.6069
 Red. masses --      1.5777                 2.0461                 1.9464
 Frc consts  --      1.4236                 1.9152                 1.8601
 IR Inten    --     11.4171               335.0690                90.2964

                     34                     35                     36
                      A                      A                      A
 Frequencies --   1328.4938              1348.0373              1393.5362
 Red. masses --      2.1262                 1.9952                 1.4732
 Frc consts  --      2.2109                 2.1362                 1.6855
 IR Inten    --      3.1634                22.4709                10.4808

                     37                     38                     39
                      A                      A                      A
 Frequencies --   1412.8198              1422.7984              1497.2792
 Red. masses --      1.3377                 2.2277                 1.0499
 Frc consts  --      1.5731                 2.6570                 1.3868
 IR Inten    --      6.4660                 0.6764                 2.1091

                     40                     41                     42
                      A                      A                      A
 Frequencies --   1504.7955              1520.0125              3025.5605
 Red. masses --      1.0486                 1.3846                 1.0568
 Frc consts  --      1.3990                 1.8848                 5.6997
 IR Inten    --      2.5215                 0.2430                60.7694

                     43                     44                     45
                      A                      A                      A
 Frequencies --   3027.3388              3041.1872              3078.2434
 Red. masses --      1.0401                 1.0812                 1.0897
 Frc consts  --      5.6160                 5.8918                 6.0838
 IR Inten    --     28.4936                38.9607                68.2331

                     46                     47                     48
                      A                      A                      A
 Frequencies --   3083.6572              3093.4064              3103.1882
 Red. masses --      1.1003                 1.1074                 1.0909
 Frc consts  --      6.1642                 6.2438                 6.1896
 IR Inten    --     26.4851                24.6757                33.0860

                     49                     50                     51
                      A                      A                      A
 Frequencies --   3124.1538              3802.8176              3805.0577
 Red. masses --      1.0990                 1.0658                 1.0658
 Frc consts  --      6.3202                 9.0814                 9.0918
 IR Inten    --     17.4397                29.0036                30.5553

 - Thermochemistry -
 -------------------
 Temperature   298.150 Kelvin.  Pressure   1.00000 Atm.
 Atom     1 has atomic number  6 and mass  12.00000

 Molecular mass:   126.06808 amu.
 Principal axes and moments of inertia in atomic units:
                           1         2         3
     Eigenvalues --   733.117191031.134171517.45940
           X            0.99231  -0.12371  -0.00482
           Y            0.12374   0.99230   0.00583
           Z            0.00406  -0.00638   0.99997
 This molecule is an asymmetric top.
 Rotational symmetry number  1.
 Warning -- assumption of classical behavior for rotation
           may cause significant error
 Rotational temperatures (Kelvin)      0.11814     0.08400     0.05708
 Rotational constants (GHZ):           2.46174     1.75025     1.18932
 Zero-point vibrational energy     414105.4 (Joules/Mol)
                                   98.97358 (Kcal/Mol)
 Warning -- explicit consideration of  12 degrees of freedom as
           vibrations may cause significant error
 Vibrational temperatures:    256.52   310.98   323.71   340.09   364.57
          (Kelvin)            389.49   469.94   555.09   622.59   673.79
                              796.37   872.97   966.49  1010.48  1093.81
                             1219.40  1222.57  1314.93  1360.49  1428.46
                             1484.28  1486.50  1543.69  1546.66  1558.85
                             1569.04  1632.21  1653.16  1669.30  1699.45
                             1780.54  1813.48  1832.43  1911.40  1939.52
                             2004.99  2032.73  2047.09  2154.25  2165.06
                             2186.96  4353.10  4355.66  4375.58  4428.90
                             4436.69  4450.72  4464.79  4494.95  5471.40
                             5474.62

 Zero-point correction=                           0.157724 (Hartree/Particle)
 Thermal correction to Energy=                    0.166179
 Thermal correction to Enthalpy=                  0.167124
 Thermal correction to Gibbs Free Energy=         0.125492
 Sum of electronic and zero-point Energies=           -422.951533
 Sum of electronic and thermal Energies=              -422.943078
 Sum of electronic and thermal Enthalpies=            -422.942134
 Sum of electronic and thermal Free Energies=         -422.983766

                     E (Thermal)             CV                S
                      KCal/Mol        Cal/Mol-Kelvin    Cal/Mol-Kelvin
 Total                  104.279             33.711             87.621
 Electronic               0.000              0.000              0.000
 Translational            0.889              2.981             40.409
 Rotational               0.889              2.981             28.530
 Vibrational            102.502             27.749             18.683
 Vibration     1          0.629              1.869              2.346
 Vibration     2          0.645              1.816              1.991
 Vibration     3          0.650              1.803              1.919
 Vibration     4          0.655              1.785              1.830
 Vibration     5          0.665              1.757              1.707
 Vibration     6          0.674              1.727              1.592
 Vibration     7          0.710              1.622              1.277
 Vibration     8          0.754              1.500              1.016
 Vibration     9          0.794              1.399              0.850
 Vibration    10          0.825              1.320              0.742
 Vibration    11          0.909              1.132              0.537
 Vibration    12          0.965              1.018              0.438

 Normal termination of Gaussian 09 at Mon Jan 27 23:00:36 2020.
