 Gaussian 09, Revision D.01,
 Gaussian 09:  ES64L-G09RevD.01 24-Apr-2013

 -----------------------------
 # b3lyp 6-31G(2df,p) opt Freq
 -----------------------------

 -----
 titel
 -----
 Symbolic Z-matrix:
 Charge =  0 Multiplicity = 1

 SCF Done:  E(RB3LYP) =  -423.152950607     A.U. after   15 cycles
 Optimization completed.
    -- Stationary point found.
 Normal termination of Gaussian 09 at Mon Jan 27 15:54:09 2020.

 ----------------------------------------------------------------------
 #N Geom=AllCheck Guess=TCheck SCRF=Check GenChk RB3LYP/6-31G(2df,p) Fr
 eq
 ----------------------------------------------------------------------

 Structure from the checkpoint file:  "/scratch/puck/g09_0f684719-d132-4191-bcca-79a0049d1f8d/Gau-10119.chk"
 -----
 titel
 -----
 Charge =  0 Multiplicity = 1

                         Standard orientation:
 ---------------------------------------------------------------------
 Center     Atomic      Atomic             Coordinates (Angstroms)
 Number     Number       Type             X           Y           Z
 ---------------------------------------------------------------------
      1          6           0       -2.152025    1.742541    0.110438
      2          6           0       -1.239626    0.568861   -0.300934
      3          6           0        0.215132    0.844682    0.109932
      4          6           0        1.195993   -0.232362   -0.371242
      5          8           0        0.838943   -1.434651    0.307041
      6          6           0        2.591729    0.137937   -0.115070
      7          6           0        3.740767    0.424530    0.090742
      8          6           0       -1.806685   -0.692822    0.334081
      9          8           0       -2.495364   -1.492144   -0.244957
     10          1           0       -3.178546    1.574921   -0.226520
     11          1           0       -2.167656    1.867469    1.199232
     12          1           0       -1.793688    2.679136   -0.327731
     13          1           0       -1.304181    0.432332   -1.386788
     14          1           0        0.530156    1.810664   -0.297081
     15          1           0        0.298459    0.915263    1.201250
     16          1           0        1.066179   -0.358543   -1.458422
     17          1           0        1.369081   -2.156660   -0.045723
     18          1           0        4.755551    0.679333    0.274180
     19          1           0       -1.595703   -0.789757    1.423238
 ---------------------------------------------------------------------

 SCF Done:  E(RB3LYP) =  -423.152950607     A.U. after    1 cycles

 The electronic state is 1-A.
 Alpha  occ. eigenvalues --  -19.15515 -19.12611 -10.26770 -10.25962 -10.19928
 Alpha  occ. eigenvalues --  -10.19907 -10.18985 -10.18984 -10.18584  -1.03875
 Alpha  occ. eigenvalues --   -1.03347  -0.82253  -0.77610  -0.72663  -0.66142
 Alpha  occ. eigenvalues --   -0.62612  -0.56757  -0.55431  -0.52474  -0.49276
 Alpha  occ. eigenvalues --   -0.46433  -0.45385  -0.42821  -0.41873  -0.39904
 Alpha  occ. eigenvalues --   -0.38009  -0.37933  -0.36760  -0.34786  -0.34020
 Alpha  occ. eigenvalues --   -0.30073  -0.28046  -0.27427  -0.23830
 Alpha virt. eigenvalues --   -0.00663   0.02732   0.04305   0.08095   0.10145
 Alpha virt. eigenvalues --    0.11546   0.11819   0.13184   0.14796   0.15940
 Alpha virt. eigenvalues --    0.16467   0.17751   0.18832   0.19479   0.22949

 Mulliken charges:
               1
     1  C   -0.417903
     2  C   -0.059647
     3  C   -0.194040
     4  C   -0.093742
     5  O   -0.403844
     6  C    0.313746
     7  C   -0.443586
     8  C    0.184462
     9  O   -0.268018
    10  H    0.135246
    11  H    0.123482
    12  H    0.123026
    13  H    0.091514
    14  H    0.115381
    15  H    0.120236
    16  H    0.102944
    17  H    0.294913
    18  H    0.201987
    19  H    0.073844
 Sum of Mulliken charges =   0.00000

 Dipole moment (field-independent basis, Debye):
    X=              2.3629    Y=              1.8962    Z=             -0.2060  Tot=              3.0366
 Quadrupole moment (field-independent basis, Debye-Ang):
   XX=            -53.2856   YY=            -53.3949   ZZ=            -53.1161
   XY=             -7.1854   XZ=             -2.0947   YZ=              0.5362

  Exact polarizability: 103.008   5.777  73.100   3.805   1.179  61.124
 Approx polarizability: 140.446  17.326 106.484  10.377   4.658  96.921

                      1                      2                      3
                      A                      A                      A
 Frequencies --     39.3380                84.3205               118.2513
 Red. masses --      5.9078                 6.1603                 2.8835
 Frc consts  --      0.0054                 0.0258                 0.0238
 IR Inten    --      1.8100                 1.0997                 0.8402

                      4                      5                      6
                      A                      A                      A
 Frequencies --    125.6868               198.6015               227.4642
 Red. masses --      3.4476                 2.7288                 1.0680
 Frc consts  --      0.0321                 0.0634                 0.0326
 IR Inten    --      7.4134                 5.9943                 0.1744

                      7                      8                      9
                      A                      A                      A
 Frequencies --    261.3515               282.5180               303.5349
 Red. masses --      3.9563                 1.3504                 3.2871
 Frc consts  --      0.1592                 0.0635                 0.1784
 IR Inten    --      4.9687                73.0831                20.0153

                     10                     11                     12
                      A                      A                      A
 Frequencies --    320.9140               359.0851               433.2449
 Red. masses --      2.4754                 2.1260                 3.9219
 Frc consts  --      0.1502                 0.1615                 0.4337
 IR Inten    --      4.5539                 2.7656                 0.9425

                     13                     14                     15
                      A                      A                      A
 Frequencies --    512.1386               573.5347               591.2762
 Red. masses --      3.0625                 5.2255                 4.1423
 Frc consts  --      0.4733                 1.0127                 0.8532
 IR Inten    --     17.2792                 6.5271                 2.0107

                     16                     17                     18
                      A                      A                      A
 Frequencies --    634.8004               672.7615               835.3568
 Red. masses --      1.2173                 1.2527                 2.1540
 Frc consts  --      0.2890                 0.3341                 0.8856
 IR Inten    --     45.5673                35.0274                 5.6239

                     19                     20                     21
                      A                      A                      A
 Frequencies --    886.0995               927.4773               933.2097
 Red. masses --      2.1872                 1.8642                 1.9700
 Frc consts  --      1.0118                 0.9448                 1.0108
 IR Inten    --     23.5984                12.5935                 2.8410

                     22                     23                     24
                      A                      A                      A
 Frequencies --    974.0022              1017.4273              1051.5410
 Red. masses --      2.5901                 2.1328                 3.0989
 Frc consts  --      1.4477                 1.3008                 2.0189
 IR Inten    --      4.7764                 9.9483                91.5024

                     25                     26                     27
                      A                      A                      A
 Frequencies --   1106.6251              1112.8750              1159.4343
 Red. masses --      2.5762                 1.9067                 1.8819
 Frc consts  --      1.8588                 1.3913                 1.4905
 IR Inten    --     13.7276                 0.1608                 0.9981

                     28                     29                     30
                      A                      A                      A
 Frequencies --   1203.5150              1284.3022              1295.0963
 Red. masses --      1.4152                 1.2201                 1.2817
 Frc consts  --      1.2078                 1.1857                 1.2666
 IR Inten    --      1.7250                 5.4410                55.2378

                     31                     32                     33
                      A                      A                      A
 Frequencies --   1329.3918              1355.2350              1373.8550
 Red. masses --      1.3551                 1.3165                 1.3258
 Frc consts  --      1.4110                 1.4246                 1.4744
 IR Inten    --      2.9163                 9.0386                10.6573

                     34                     35                     36
                      A                      A                      A
 Frequencies --   1399.3113              1409.3368              1426.0894
 Red. masses --      1.2902                 1.4039                 1.2045
 Frc consts  --      1.4885                 1.6429                 1.4433
 IR Inten    --      6.5947                 7.1954                 3.3296

                     37                     38                     39
                      A                      A                      A
 Frequencies --   1470.6381              1497.1646              1501.1371
 Red. masses --      1.0890                 1.0470                 1.0561
 Frc consts  --      1.3876                 1.3828                 1.4021
 IR Inten    --      2.8512                 5.2447                 5.5808

                     40                     41                     42
                      A                      A                      A
 Frequencies --   1832.2687              2233.6831              2873.9465
 Red. masses --     10.2123                 5.8931                 1.0829
 Frc consts  --     20.2000                17.3236                 5.2697
 IR Inten    --    178.4878                 1.2639                86.7975

                     43                     44                     45
                      A                      A                      A
 Frequencies --   2970.4525              3032.3740              3040.0351
 Red. masses --      1.0810                 1.0361                 1.0688
 Frc consts  --      5.6200                 5.6130                 5.8196
 IR Inten    --     27.5262                16.8764                 3.1415

                     46                     47                     48
                      A                      A                      A
 Frequencies --   3048.0346              3090.1937              3101.4838
 Red. masses --      1.0747                 1.1021                 1.1006
 Frc consts  --      5.8825                 6.2008                 6.2373
 IR Inten    --     27.0183                 8.8197                32.7469

                     49                     50                     51
                      A                      A                      A
 Frequencies --   3118.1822              3501.7669              3823.4002
 Red. masses --      1.1021                 1.1629                 1.0665
 Frc consts  --      6.3135                 8.4016                 9.1857
 IR Inten    --     18.5340                66.9356                36.2726

 - Thermochemistry -
 -------------------
 Temperature   298.150 Kelvin.  Pressure   1.00000 Atm.
 Atom     1 has atomic number  6 and mass  12.00000

 Molecular mass:   126.06808 amu.
 Principal axes and moments of inertia in atomic units:
                           1         2         3
     Eigenvalues --   590.792361984.475122457.85701
           X            0.99952  -0.03082  -0.00367
           Y            0.03084   0.99951   0.00532
           Z            0.00350  -0.00543   0.99998
 This molecule is an asymmetric top.
 Rotational symmetry number  1.
 Warning -- assumption of classical behavior for rotation
           may cause significant error
 Rotational temperatures (Kelvin)      0.14661     0.04365     0.03524
 Rotational constants (GHZ):           3.05478     0.90943     0.73427
 Zero-point vibrational energy     406453.8 (Joules/Mol)
                                   97.14478 (Kcal/Mol)
 Warning -- explicit consideration of  15 degrees of freedom as
           vibrations may cause significant error
 Vibrational temperatures:     56.60   121.32   170.14   180.83   285.74
          (Kelvin)            327.27   376.03   406.48   436.72   461.72
                              516.64   623.34   736.85   825.19   850.71
                              913.34   967.95  1201.89  1274.90  1334.43
                             1342.68  1401.37  1463.85  1512.93  1592.18
                             1601.18  1668.17  1731.59  1847.82  1863.35
                             1912.70  1949.88  1976.67  2013.29  2027.72
                             2051.82  2115.92  2154.08  2159.80  2636.22
                             3213.77  4134.96  4273.81  4362.90  4373.93
                             4385.44  4446.09  4462.34  4486.36  5038.26
                             5501.01

 Zero-point correction=                           0.154810 (Hartree/Particle)
 Thermal correction to Energy=                    0.165408
 Thermal correction to Enthalpy=                  0.166353
 Thermal correction to Gibbs Free Energy=         0.118575
 Sum of electronic and zero-point Energies=           -422.998141
 Sum of electronic and thermal Energies=              -422.987542
 Sum of electronic and thermal Enthalpies=            -422.986598
 Sum of electronic and thermal Free Energies=         -423.034376

                     E (Thermal)             CV                S
                      KCal/Mol        Cal/Mol-Kelvin    Cal/Mol-Kelvin
 Total                  103.795             37.661            100.557
 Electronic               0.000              0.000              0.000
 Translational            0.889              2.981             40.409
 Rotational               0.889              2.981             29.445
 Vibrational            102.018             31.700             30.704
 Vibration     1          0.594              1.981              5.292
 Vibration     2          0.601              1.960              3.788
 Vibration     3          0.608              1.934              3.129
 Vibration     4          0.611              1.927              3.011
 Vibration     5          0.637              1.842              2.146
 Vibration     6          0.651              1.799              1.899
 Vibration     7          0.669              1.743              1.653
 Vibration     8          0.682              1.706              1.518
 Vibration     9          0.695              1.667              1.397
 Vibration    10          0.706              1.633              1.305
 Vibration    11          0.734              1.557              1.126
 Vibration    12          0.794              1.398              0.848
 Vibration    13          0.867              1.223              0.628
 Vibration    14          0.930              1.088              0.497
 Vibration    15          0.949              1.050              0.465

 Optimization completed.
    -- Stationary point found.
 Normal termination of Gaussian 09 at Mon Jan 27 17:29:43 2020.
