 Gaussian 09, Revision D.01,
 Gaussian 09:  ES64L-G09RevD.01 24-Apr-2013

 -----------------------------
 # b3lyp 6-31G(2df,p) opt Freq
 -----------------------------

 -----
 titel
 -----
 Symbolic Z-matrix:
 Charge =  0 Multiplicity = 1

 SCF Done:  E(RB3LYP) =  -423.157930095     A.U. after   14 cycles
 Optimization completed.
    -- Stationary point found.
 Normal termination of Gaussian 09 at Tue Jan 28 02:50:03 2020.

 ----------------------------------------------------------------------
 #N Geom=AllCheck Guess=TCheck SCRF=Check GenChk RB3LYP/6-31G(2df,p) Fr
 eq
 ----------------------------------------------------------------------

 Structure from the checkpoint file:  "/scratch/puck/g09_48de991d-98dd-42f6-a095-aded4e1f988a/Gau-113668.chk"
 -----
 titel
 -----
 Charge =  0 Multiplicity = 1

                         Standard orientation:
 ---------------------------------------------------------------------
 Center     Atomic      Atomic             Coordinates (Angstroms)
 Number     Number       Type             X           Y           Z
 ---------------------------------------------------------------------
      1          8           0        2.894248   -0.827768   -0.435285
      2          6           0        2.065101    0.025329    0.325672
      3          6           0        0.828766   -0.774276    0.825240
      4          6           0       -0.088202    0.137364   -0.010217
      5          6           0       -1.311693   -0.314614   -0.770647
      6          6           0       -2.491695   -0.553237    0.151034
      7          8           0       -3.579574   -0.055272    0.017731
      8          6           0        0.119980    1.567271    0.416651
      9          6           0        1.128474    0.924800   -0.498120
     10          1           0        3.588882   -0.290977   -0.831045
     11          1           0        2.643650    0.549876    1.100729
     12          1           0        0.887072   -1.792741    0.434265
     13          1           0        0.648801   -0.807169    1.904171
     14          1           0       -1.609931    0.422228   -1.522715
     15          1           0       -1.093551   -1.260725   -1.288265
     16          1           0       -2.279919   -1.243487    1.000801
     17          1           0       -0.535451    2.295236   -0.051552
     18          1           0        0.384161    1.806464    1.445141
     19          1           0        1.344498    1.309799   -1.488778
 ---------------------------------------------------------------------

 SCF Done:  E(RB3LYP) =  -423.157930095     A.U. after    1 cycles

 The electronic state is 1-A.
 Alpha  occ. eigenvalues --  -19.14286 -19.13781 -10.27017 -10.24088 -10.21052
 Alpha  occ. eigenvalues --  -10.19739 -10.19559 -10.19426 -10.18850  -1.04455
 Alpha  occ. eigenvalues --   -1.02673  -0.90272  -0.76303  -0.72998  -0.64143
 Alpha  occ. eigenvalues --   -0.60024  -0.57615  -0.53392  -0.52794  -0.49244
 Alpha  occ. eigenvalues --   -0.47833  -0.45569  -0.43545  -0.41699  -0.41332
 Alpha  occ. eigenvalues --   -0.39249  -0.38555  -0.36658  -0.34809  -0.32337
 Alpha  occ. eigenvalues --   -0.29907  -0.27802  -0.26888  -0.23930
 Alpha virt. eigenvalues --   -0.01951   0.07214   0.09114   0.10027   0.11003
 Alpha virt. eigenvalues --    0.12999   0.13239   0.13983   0.14170   0.15807
 Alpha virt. eigenvalues --    0.16504   0.18390   0.19552   0.21016   0.23040

 Mulliken charges:
               1
     1  O   -0.437906
     2  C    0.146904
     3  C   -0.308888
     4  C    0.360601
     5  C   -0.396976
     6  C    0.167338
     7  O   -0.239337
     8  C   -0.329737
     9  C   -0.160520
    10  H    0.282362
    11  H    0.065200
    12  H    0.120562
    13  H    0.096576
    14  H    0.120081
    15  H    0.121716
    16  H    0.075451
    17  H    0.121013
    18  H    0.107044
    19  H    0.088517
 Sum of Mulliken charges =   0.00000

 Dipole moment (field-independent basis, Debye):
    X=              2.8499    Y=              0.6063    Z=             -0.2684  Tot=              2.9260
 Quadrupole moment (field-independent basis, Debye-Ang):
   XX=            -63.3609   YY=            -53.0248   ZZ=            -51.1025
   XY=              5.5354   XZ=             -1.0909   YZ=             -0.9571

  Exact polarizability:  91.969  -1.426  70.821  -1.473  -2.364  67.497
 Approx polarizability: 124.569  -5.322 107.951  -3.412  -2.732 102.003

                      1                      2                      3
                      A                      A                      A
 Frequencies --     48.3223                59.5843               107.9080
 Red. masses --      5.7721                 3.5737                 3.5758
 Frc consts  --      0.0079                 0.0075                 0.0245
 IR Inten    --      3.7756                 3.6739                 1.4681

                      4                      5                      6
                      A                      A                      A
 Frequencies --    189.1109               294.2248               328.2700
 Red. masses --      2.6725                 1.2682                 2.1180
 Frc consts  --      0.0563                 0.0647                 0.1345
 IR Inten    --      1.1461                78.1825                 8.9307

                      7                      8                      9
                      A                      A                      A
 Frequencies --    347.2338               362.5011               423.4466
 Red. masses --      2.4622                 3.2480                 2.1790
 Frc consts  --      0.1749                 0.2515                 0.2302
 IR Inten    --     27.5379                 1.9951                 1.0306

                     10                     11                     12
                      A                      A                      A
 Frequencies --    466.5863               490.4088               657.3358
 Red. masses --      3.3935                 2.9792                 2.3590
 Frc consts  --      0.4353                 0.4221                 0.6005
 IR Inten    --      8.4013                22.0656                 0.1967

                     13                     14                     15
                      A                      A                      A
 Frequencies --    744.7620               813.2092               826.7956
 Red. masses --      2.5839                 1.7556                 2.2371
 Frc consts  --      0.8444                 0.6840                 0.9010
 IR Inten    --      0.3157                 4.7194                 6.4500

                     16                     17                     18
                      A                      A                      A
 Frequencies --    884.9494               887.2282               940.1004
 Red. masses --      2.3227                 2.1771                 1.9354
 Frc consts  --      1.0717                 1.0097                 1.0078
 IR Inten    --      4.1695                 2.0892                 6.9549

                     19                     20                     21
                      A                      A                      A
 Frequencies --    964.7425               997.7968              1020.7767
 Red. masses --      1.7639                 1.5890                 1.8552
 Frc consts  --      0.9673                 0.9321                 1.1389
 IR Inten    --      7.4698                16.2153                16.1747

                     22                     23                     24
                      A                      A                      A
 Frequencies --   1040.0685              1047.1636              1066.4451
 Red. masses --      1.4740                 2.3393                 1.9600
 Frc consts  --      0.9395                 1.5114                 1.3134
 IR Inten    --      4.0726                56.5960                 7.0305

                     25                     26                     27
                      A                      A                      A
 Frequencies --   1088.2136              1123.3576              1169.7401
 Red. masses --      1.4906                 2.2278                 1.5631
 Frc consts  --      1.0400                 1.6564                 1.2602
 IR Inten    --      6.6656                 7.3264                 7.5949

                     28                     29                     30
                      A                      A                      A
 Frequencies --   1185.2599              1222.2239              1249.8838
 Red. masses --      1.6494                 1.3439                 1.4391
 Frc consts  --      1.3652                 1.1828                 1.3246
 IR Inten    --      8.5669                40.8728                13.5084

                     31                     32                     33
                      A                      A                      A
 Frequencies --   1258.5062              1291.4277              1302.1356
 Red. masses --      1.7025                 1.5651                 1.7255
 Frc consts  --      1.5888                 1.5379                 1.7237
 IR Inten    --      2.0229                15.6949                 0.9144

                     34                     35                     36
                      A                      A                      A
 Frequencies --   1327.0897              1386.9514              1423.2325
 Red. masses --      1.5874                 2.4616                 1.4613
 Frc consts  --      1.6472                 2.7899                 1.7440
 IR Inten    --     69.8834                 5.2711                 9.8324

                     37                     38                     39
                      A                      A                      A
 Frequencies --   1430.8201              1454.3180              1475.0385
 Red. masses --      1.2052                 1.1085                 1.1281
 Frc consts  --      1.4537                 1.3813                 1.4461
 IR Inten    --      6.0014                 6.6044                 3.7466

                     40                     41                     42
                      A                      A                      A
 Frequencies --   1502.1705              1834.6816              2860.1553
 Red. masses --      1.2989                10.0833                 1.0819
 Frc consts  --      1.7269                19.9975                 5.2144
 IR Inten    --      1.6646               185.7292                98.0647

                     43                     44                     45
                      A                      A                      A
 Frequencies --   2982.7995              3004.5773              3051.3962
 Red. masses --      1.0845                 1.0651                 1.0610
 Frc consts  --      5.6848                 5.6652                 5.8206
 IR Inten    --     78.0906                15.2936                36.1918

                     46                     47                     48
                      A                      A                      A
 Frequencies --   3090.2173              3100.8194              3116.6319
 Red. masses --      1.0953                 1.0581                 1.1048
 Frc consts  --      6.1625                 5.9940                 6.3229
 IR Inten    --     10.5996                18.1625                15.3840

                     49                     50                     51
                      A                      A                      A
 Frequencies --   3172.4273              3195.7182              3810.6097
 Red. masses --      1.0941                 1.1109                 1.0660
 Frc consts  --      6.4874                 6.6843                 9.1199
 IR Inten    --     12.9614                11.0206                23.2877

 - Thermochemistry -
 -------------------
 Temperature   298.150 Kelvin.  Pressure   1.00000 Atm.
 Atom     1 has atomic number  8 and mass  15.99491

 Molecular mass:   126.06808 amu.
 Principal axes and moments of inertia in atomic units:
                           1         2         3
     Eigenvalues --   432.157552076.677782222.99357
           X            0.99997   0.00673   0.00323
           Y           -0.00663   0.99958  -0.02838
           Z           -0.00342   0.02836   0.99959
 This molecule is an asymmetric top.
 Rotational symmetry number  1.
 Rotational temperatures (Kelvin)      0.20042     0.04171     0.03896
 Rotational constants (GHZ):           4.17612     0.86905     0.81185
 Zero-point vibrational energy     413425.7 (Joules/Mol)
                                   98.81110 (Kcal/Mol)
 Warning -- explicit consideration of  11 degrees of freedom as
           vibrations may cause significant error
 Vibrational temperatures:     69.52    85.73   155.26   272.09   423.32
          (Kelvin)            472.31   499.59   521.56   609.24   671.31
                              705.59   945.76  1071.55  1170.03  1189.57
                             1273.24  1276.52  1352.59  1388.05  1435.61
                             1468.67  1496.42  1506.63  1534.37  1565.69
                             1616.26  1682.99  1705.32  1758.51  1798.30
                             1810.71  1858.07  1873.48  1909.38  1995.51
                             2047.71  2058.63  2092.44  2122.25  2161.29
                             2639.69  4115.12  4291.58  4322.91  4390.27
                             4446.13  4461.38  4484.13  4564.41  4597.92
                             5482.61

 Zero-point correction=                           0.157466 (Hartree/Particle)
 Thermal correction to Energy=                    0.166479
 Thermal correction to Enthalpy=                  0.167423
 Thermal correction to Gibbs Free Energy=         0.122700
 Sum of electronic and zero-point Energies=           -423.000465
 Sum of electronic and thermal Energies=              -422.991451
 Sum of electronic and thermal Enthalpies=            -422.990507
 Sum of electronic and thermal Free Energies=         -423.035230

                     E (Thermal)             CV                S
                      KCal/Mol        Cal/Mol-Kelvin    Cal/Mol-Kelvin
 Total                  104.467             33.199             94.127
 Electronic               0.000              0.000              0.000
 Translational            0.889              2.981             40.409
 Rotational               0.889              2.981             29.080
 Vibrational            102.690             27.238             24.638
 Vibration     1          0.595              1.978              4.885
 Vibration     2          0.597              1.974              4.471
 Vibration     3          0.606              1.943              3.306
 Vibration     4          0.633              1.855              2.237
 Vibration     5          0.689              1.685              1.450
 Vibration     6          0.711              1.619              1.269
 Vibration     7          0.725              1.581              1.179
 Vibration     8          0.736              1.549              1.111
 Vibration     9          0.786              1.419              0.880
 Vibration    10          0.824              1.324              0.747
 Vibration    11          0.846              1.271              0.683

 Normal termination of Gaussian 09 at Tue Jan 28 03:30:03 2020.
