 Gaussian 09, Revision D.01,
 Gaussian 09:  ES64L-G09RevD.01 24-Apr-2013

 -----------------------------
 # b3lyp 6-31G(2df,p) opt Freq
 -----------------------------

 -----
 titel
 -----
 Symbolic Z-matrix:
 Charge =  0 Multiplicity = 1

 SCF Done:  E(RB3LYP) =  -423.163601345     A.U. after   14 cycles
 Optimization completed.
    -- Stationary point found.
 Normal termination of Gaussian 09 at Tue Jan 28 14:12:31 2020.

 ----------------------------------------------------------------------
 #N Geom=AllCheck Guess=TCheck SCRF=Check GenChk RB3LYP/6-31G(2df,p) Fr
 eq
 ----------------------------------------------------------------------

 Structure from the checkpoint file:  "/scratch/puck/g09_22030d2e-306b-4b5f-b7f1-dfee1587a113/Gau-44110.chk"
 -----
 titel
 -----
 Charge =  0 Multiplicity = 1

                         Standard orientation:
 ---------------------------------------------------------------------
 Center     Atomic      Atomic             Coordinates (Angstroms)
 Number     Number       Type             X           Y           Z
 ---------------------------------------------------------------------
      1          6           0       -3.334492    0.244145   -0.210072
      2          8           0       -2.040449   -0.302050   -0.100381
      3          6           0       -1.044266    0.680368    0.088159
      4          6           0        0.289043    0.000448    0.212916
      5          6           0        0.467358   -1.340438    0.914297
      6          6           0        0.893897   -1.239517   -0.506954
      7          6           0        2.280497   -0.579838   -0.572998
      8          6           0        1.620640    0.670820    0.068359
      9          8           0        1.971137    1.813283    0.180469
     10          1           0       -3.416444    0.927558   -1.069442
     11          1           0       -4.028361   -0.587711   -0.351813
     12          1           0       -3.620867    0.797890    0.697520
     13          1           0       -1.029587    1.386432   -0.759204
     14          1           0       -1.251101    1.274668    0.994663
     15          1           0        1.206953   -1.457868    1.702231
     16          1           0       -0.479786   -1.836216    1.094962
     17          1           0        0.423340   -1.797285   -1.304847
     18          1           0        3.087574   -1.075273   -0.025108
     19          1           0        2.626709   -0.337984   -1.581906
 ---------------------------------------------------------------------

 SCF Done:  E(RB3LYP) =  -423.163601346     A.U. after    1 cycles

 The electronic state is 1-A.
 Alpha  occ. eigenvalues --  -19.15051 -19.12697 -10.26630 -10.23889 -10.23122
 Alpha  occ. eigenvalues --  -10.21019 -10.20648 -10.20117 -10.19409  -1.04354
 Alpha  occ. eigenvalues --   -1.03720  -0.90701  -0.75045  -0.71737  -0.66799
 Alpha  occ. eigenvalues --   -0.61483  -0.58928  -0.51926  -0.49762  -0.48590
 Alpha  occ. eigenvalues --   -0.47923  -0.45568  -0.44653  -0.43464  -0.41017
 Alpha  occ. eigenvalues --   -0.40098  -0.38678  -0.37269  -0.35401  -0.33245
 Alpha  occ. eigenvalues --   -0.30525  -0.27785  -0.26136  -0.23887
 Alpha virt. eigenvalues --   -0.00564   0.07550   0.10158   0.11214   0.11731
 Alpha virt. eigenvalues --    0.12805   0.13985   0.14612   0.15515   0.16080
 Alpha virt. eigenvalues --    0.16342   0.18092   0.18290   0.20294   0.22055

 Mulliken charges:
               1
     1  C   -0.223266
     2  O   -0.241766
     3  C   -0.180160
     4  C    0.209375
     5  C   -0.318454
     6  C   -0.090757
     7  C   -0.355573
     8  C    0.345438
     9  O   -0.319844
    10  H    0.109104
    11  H    0.129415
    12  H    0.109092
    13  H    0.101107
    14  H    0.103774
    15  H    0.115272
    16  H    0.142741
    17  H    0.113855
    18  H    0.119380
    19  H    0.131268
 Sum of Mulliken charges =   0.00000

 Dipole moment (field-independent basis, Debye):
    X=             -1.8337    Y=             -1.8288    Z=             -0.4113  Tot=              2.6223
 Quadrupole moment (field-independent basis, Debye-Ang):
   XX=            -50.7158   YY=            -58.0681   ZZ=            -51.3740
   XY=             -7.3509   XZ=             -0.6785   YZ=             -0.8641

  Exact polarizability:  91.342   0.209  77.354  -2.711  -0.125  64.339
 Approx polarizability: 112.876   5.309 126.423  -3.327   2.603  98.561

                      1                      2                      3
                      A                      A                      A
 Frequencies --     62.2020                81.5532               104.0250
 Red. masses --      2.4825                 2.5882                 4.6531
 Frc consts  --      0.0057                 0.0101                 0.0297
 IR Inten    --      2.1396                 3.9234                 5.1097

                      4                      5                      6
                      A                      A                      A
 Frequencies --    158.3792               220.1941               264.0262
 Red. masses --      3.0176                 1.3062                 2.7767
 Frc consts  --      0.0446                 0.0373                 0.1140
 IR Inten    --      3.2089                 2.0793                 0.8988

                      7                      8                      9
                      A                      A                      A
 Frequencies --    319.9644               355.6487               417.2401
 Red. masses --      3.7064                 3.2755                 1.9264
 Frc consts  --      0.2236                 0.2441                 0.1976
 IR Inten    --      1.2202                 0.8028                 0.1700

                     10                     11                     12
                      A                      A                      A
 Frequencies --    550.6508               558.6151               648.4595
 Red. masses --      3.9974                 3.0791                 3.3093
 Frc consts  --      0.7141                 0.5661                 0.8199
 IR Inten    --      5.9981                 2.3361                 0.8746

                     13                     14                     15
                      A                      A                      A
 Frequencies --    707.1430               803.6771               842.2731
 Red. masses --      3.2080                 2.8621                 2.3578
 Frc consts  --      0.9451                 1.0892                 0.9855
 IR Inten    --      9.6663                12.8127                 1.8602

                     16                     17                     18
                      A                      A                      A
 Frequencies --    892.9426               937.6253               978.4645
 Red. masses --      2.6740                 1.6605                 1.6198
 Frc consts  --      1.2562                 0.8601                 0.9137
 IR Inten    --      6.4683                 4.3919                32.7643

                     19                     20                     21
                      A                      A                      A
 Frequencies --    981.2662              1012.1236              1026.1071
 Red. masses --      1.8298                 3.1515                 1.5012
 Frc consts  --      1.0381                 1.9021                 0.9312
 IR Inten    --      3.7432                23.7289                25.6290

                     22                     23                     24
                      A                      A                      A
 Frequencies --   1078.6832              1080.6475              1099.1196
 Red. masses --      1.6052                 1.9071                 1.4711
 Frc consts  --      1.1004                 1.3122                 1.0471
 IR Inten    --      4.0093                22.8907                 0.5601

                     25                     26                     27
                      A                      A                      A
 Frequencies --   1147.1709              1165.5087              1185.7149
 Red. masses --      1.9908                 2.8236                 1.2892
 Frc consts  --      1.5436                 2.2599                 1.0679
 IR Inten    --     51.6764                97.4965                 1.8528

                     28                     29                     30
                      A                      A                      A
 Frequencies --   1209.0659              1224.1461              1252.1924
 Red. masses --      1.6941                 1.6879                 1.1678
 Frc consts  --      1.4591                 1.4903                 1.0789
 IR Inten    --      9.8002                28.8630                 5.7063

                     31                     32                     33
                      A                      A                      A
 Frequencies --   1261.8793              1281.4434              1369.9273
 Red. masses --      1.9700                 2.4621                 2.0512
 Frc consts  --      1.8482                 2.3821                 2.2680
 IR Inten    --     13.6746                 7.5885                 1.2608

                     34                     35                     36
                      A                      A                      A
 Frequencies --   1430.5654              1457.9729              1480.9893
 Red. masses --      1.7434                 1.1084                 1.1827
 Frc consts  --      2.1022                 1.3882                 1.5284
 IR Inten    --     56.1724                 1.5654                 0.2809

                     37                     38                     39
                      A                      A                      A
 Frequencies --   1484.5157              1491.9294              1504.1615
 Red. masses --      1.0474                 1.2896                 1.0656
 Frc consts  --      1.3600                 1.6912                 1.4204
 IR Inten    --      5.0081                 3.0681                 6.1421

                     40                     41                     42
                      A                      A                      A
 Frequencies --   1526.7758              1867.9879              2952.9756
 Red. masses --      1.0839                12.7086                 1.0534
 Frc consts  --      1.4886                26.1274                 5.4119
 IR Inten    --      1.5396               333.9585                30.0328

                     43                     44                     45
                      A                      A                      A
 Frequencies --   2976.2449              2979.1839              3021.3268
 Red. masses --      1.0417                 1.1001                 1.1035
 Frc consts  --      5.4367                 5.7528                 5.9347
 IR Inten    --     75.2524                51.4431                51.1449

                     46                     47                     48
                      A                      A                      A
 Frequencies --   3055.3386              3110.6895              3115.3007
 Red. masses --      1.0587                 1.1055                 1.0580
 Frc consts  --      5.8231                 6.3026                 6.0499
 IR Inten    --     24.0539                 8.6582                19.6783

                     49                     50                     51
                      A                      A                      A
 Frequencies --   3117.5873              3212.7764              3221.4471
 Red. masses --      1.0965                 1.0998                 1.1056
 Frc consts  --      6.2789                 6.6885                 6.7603
 IR Inten    --     26.0465                 1.9132                 4.4956

 - Thermochemistry -
 -------------------
 Temperature   298.150 Kelvin.  Pressure   1.00000 Atm.
 Atom     1 has atomic number  6 and mass  12.00000

 Molecular mass:   126.06808 amu.
 Principal axes and moments of inertia in atomic units:
                           1         2         3
     Eigenvalues --   554.934021698.398642034.48281
           X            0.99926  -0.03851  -0.00225
           Y            0.03846   0.99913  -0.01633
           Z            0.00287   0.01623   0.99986
 This molecule is an asymmetric top.
 Rotational symmetry number  1.
 Warning -- assumption of classical behavior for rotation
           may cause significant error
 Rotational temperatures (Kelvin)      0.15608     0.05100     0.04257
 Rotational constants (GHZ):           3.25217     1.06261     0.88708
 Zero-point vibrational energy     414421.4 (Joules/Mol)
                                   99.04909 (Kcal/Mol)
 Warning -- explicit consideration of  11 degrees of freedom as
           vibrations may cause significant error
 Vibrational temperatures:     89.49   117.34   149.67   227.87   316.81
          (Kelvin)            379.87   460.36   511.70   600.31   792.26
                              803.72   932.99  1017.42  1156.31  1211.84
                             1284.74  1349.03  1407.79  1411.82  1456.22
                             1476.34  1551.98  1554.81  1581.39  1650.52
                             1676.90  1705.98  1739.57  1761.27  1801.62
                             1815.56  1843.71  1971.02  2058.26  2097.70
                             2130.81  2135.88  2146.55  2164.15  2196.69
                             2687.61  4248.67  4282.15  4286.38  4347.01
                             4395.95  4475.58  4482.22  4485.51  4622.46
                             4634.94

 Zero-point correction=                           0.157845 (Hartree/Particle)
 Thermal correction to Energy=                    0.166921
 Thermal correction to Enthalpy=                  0.167865
 Thermal correction to Gibbs Free Energy=         0.123219
 Sum of electronic and zero-point Energies=           -423.005757
 Sum of electronic and thermal Energies=              -422.996681
 Sum of electronic and thermal Enthalpies=            -422.995736
 Sum of electronic and thermal Free Energies=         -423.040383

                     E (Thermal)             CV                S
                      KCal/Mol        Cal/Mol-Kelvin    Cal/Mol-Kelvin
 Total                  104.744             32.771             93.966
 Electronic               0.000              0.000              0.000
 Translational            0.889              2.981             40.409
 Rotational               0.889              2.981             29.040
 Vibrational            102.967             26.809             24.517
 Vibration     1          0.597              1.972              4.386
 Vibration     2          0.600              1.962              3.853
 Vibration     3          0.605              1.946              3.377
 Vibration     4          0.621              1.893              2.569
 Vibration     5          0.647              1.810              1.957
 Vibration     6          0.671              1.739              1.635
 Vibration     7          0.706              1.635              1.310
 Vibration     8          0.731              1.564              1.141
 Vibration     9          0.780              1.433              0.901
 Vibration    10          0.906              1.138              0.543
 Vibration    11          0.914              1.121              0.527

 Optimization completed.
    -- Stationary point found.
 Normal termination of Gaussian 09 at Tue Jan 28 14:56:44 2020.
