 Gaussian 09, Revision D.01,
 Gaussian 09:  ES64L-G09RevD.01 24-Apr-2013

 -----------------------------
 # b3lyp 6-31G(2df,p) opt Freq
 -----------------------------

 -----
 titel
 -----
 Symbolic Z-matrix:
 Charge =  0 Multiplicity = 1

 SCF Done:  E(RB3LYP) =  -423.147875870     A.U. after   14 cycles
 Optimization completed.
    -- Stationary point found.
 Normal termination of Gaussian 09 at Mon Jan 27 15:50:20 2020.

 ----------------------------------------------------------------------
 #N Geom=AllCheck Guess=TCheck SCRF=Check GenChk RB3LYP/6-31G(2df,p) Fr
 eq
 ----------------------------------------------------------------------

 Structure from the checkpoint file:  "/scratch/puck/g09_8051f811-6f0e-46c6-bb4f-ca3fa66fa768/Gau-165014.chk"
 -----
 titel
 -----
 Charge =  0 Multiplicity = 1

                         Standard orientation:
 ---------------------------------------------------------------------
 Center     Atomic      Atomic             Coordinates (Angstroms)
 Number     Number       Type             X           Y           Z
 ---------------------------------------------------------------------
      1          6           0        2.598229   -1.400539   -0.138434
      2          6           0        1.554072   -0.301878   -0.342485
      3          8           0        0.323935   -0.772551    0.171854
      4          6           0       -0.798072   -0.003157   -0.221433
      5          6           0       -2.036398   -0.646259    0.410678
      6          6           0       -3.261131    0.057765    0.057035
      7          6           0       -4.255176    0.658179   -0.251461
      8          6           0        2.001159    0.955822    0.401532
      9          8           0        2.709135    1.808700   -0.063765
     10          1           0        2.274563   -2.311761   -0.647299
     11          1           0        3.562866   -1.084250   -0.542654
     12          1           0        2.715805   -1.624768    0.926241
     13          1           0        1.470018   -0.056619   -1.411994
     14          1           0       -0.706670    1.041875    0.111655
     15          1           0       -0.893277    0.008709   -1.317660
     16          1           0       -2.089201   -1.692474    0.086980
     17          1           0       -1.906205   -0.663245    1.499191
     18          1           0       -5.141437    1.179728   -0.516022
     19          1           0        1.632874    0.994022    1.454260
 ---------------------------------------------------------------------

 SCF Done:  E(RB3LYP) =  -423.147875870     A.U. after    1 cycles

 The electronic state is 1-A.
 Alpha  occ. eigenvalues --  -19.15885 -19.14879 -10.27478 -10.24994 -10.24630
 Alpha  occ. eigenvalues --  -10.21572 -10.19349 -10.18697 -10.17616  -1.06064
 Alpha  occ. eigenvalues --   -1.04818  -0.81530  -0.77478  -0.72021  -0.66367
 Alpha  occ. eigenvalues --   -0.64199  -0.58324  -0.53754  -0.51774  -0.49476
 Alpha  occ. eigenvalues --   -0.47199  -0.45951  -0.44927  -0.43589  -0.41419
 Alpha  occ. eigenvalues --   -0.40062  -0.39064  -0.38115  -0.36816  -0.33703
 Alpha  occ. eigenvalues --   -0.29241  -0.27124  -0.26935  -0.24811
 Alpha virt. eigenvalues --   -0.03359   0.04776   0.05367   0.08932   0.10629
 Alpha virt. eigenvalues --    0.11776   0.12589   0.13334   0.14897   0.15189
 Alpha virt. eigenvalues --    0.15570   0.16950   0.17377   0.19512   0.20538

 Mulliken charges:
               1
     1  C   -0.411561
     2  C    0.053173
     3  O   -0.253493
     4  C   -0.065387
     5  C   -0.349587
     6  C    0.284518
     7  C   -0.443018
     8  C    0.135467
     9  O   -0.237383
    10  H    0.134499
    11  H    0.139470
    12  H    0.132024
    13  H    0.093313
    14  H    0.110167
    15  H    0.109871
    16  H    0.142460
    17  H    0.141500
    18  H    0.199363
    19  H    0.084605
 Sum of Mulliken charges =   0.00000

 Dipole moment (field-independent basis, Debye):
    X=             -0.7947    Y=             -1.4997    Z=              0.0056  Tot=              1.6973
 Quadrupole moment (field-independent basis, Debye-Ang):
   XX=            -55.2887   YY=            -57.0728   ZZ=            -52.1981
   XY=             -8.2149   XZ=              1.6545   YZ=              0.7948

  Exact polarizability: 102.486  -8.343  72.578   2.182  -2.252  62.770
 Approx polarizability: 130.734 -12.118 110.520   4.683  -9.198  96.412

                      1                      2                      3
                      A                      A                      A
 Frequencies --     43.0194                65.6453                67.7463
 Red. masses --      5.6933                 2.3023                 3.4537
 Frc consts  --      0.0062                 0.0058                 0.0093
 IR Inten    --      2.3905                 0.4153                 3.0689

                      4                      5                      6
                      A                      A                      A
 Frequencies --    102.7769               152.6387               208.6288
 Red. masses --      3.5586                 2.8305                 3.1386
 Frc consts  --      0.0221                 0.0389                 0.0805
 IR Inten    --      2.3346                 2.0406                 0.0181

                      7                      8                      9
                      A                      A                      A
 Frequencies --    222.4135               271.8122               351.4336
 Red. masses --      1.1113                 2.6096                 4.1874
 Frc consts  --      0.0324                 0.1136                 0.3047
 IR Inten    --      0.6239                 3.0639                 5.8946

                     10                     11                     12
                      A                      A                      A
 Frequencies --    353.8233               370.1196               415.2602
 Red. masses --      3.5890                 3.2488                 3.5274
 Frc consts  --      0.2647                 0.2622                 0.3584
 IR Inten    --      0.2598                20.8048                 3.1763

                     13                     14                     15
                      A                      A                      A
 Frequencies --    537.6492               580.6538               627.4010
 Red. masses --      4.5116                 5.0908                 1.2077
 Frc consts  --      0.7684                 1.0113                 0.2801
 IR Inten    --      5.3053                 0.8789                44.1173

                     16                     17                     18
                      A                      A                      A
 Frequencies --    653.8830               798.1808               878.3311
 Red. masses --      1.2315                 1.1624                 1.7907
 Frc consts  --      0.3102                 0.4363                 0.8139
 IR Inten    --     41.8569                 0.0775                10.7105

                     19                     20                     21
                      A                      A                      A
 Frequencies --    905.8343               947.0024               984.3271
 Red. masses --      1.7901                 2.7427                 2.8378
 Frc consts  --      0.8654                 1.4492                 1.6200
 IR Inten    --      6.0938                 4.8360                 1.9426

                     22                     23                     24
                      A                      A                      A
 Frequencies --   1059.3410              1078.6102              1090.3527
 Red. masses --      3.3098                 2.9104                 1.6117
 Frc consts  --      2.1884                 1.9949                 1.1289
 IR Inten    --      0.9472                21.4993                 1.2315

                     25                     26                     27
                      A                      A                      A
 Frequencies --   1131.5742              1160.4028              1164.6841
 Red. masses --      3.4945                 2.5128                 2.6750
 Frc consts  --      2.6363                 1.9935                 2.1379
 IR Inten    --    124.2344                17.4592               118.3178

                     28                     29                     30
                      A                      A                      A
 Frequencies --   1228.6132              1302.4315              1306.2295
 Red. masses --      1.1938                 1.1571                 1.3109
 Frc consts  --      1.0617                 1.1565                 1.3178
 IR Inten    --      2.5304                 6.0727                12.4198

                     31                     32                     33
                      A                      A                      A
 Frequencies --   1309.9225              1341.5187              1390.0394
 Red. masses --      1.3437                 1.2632                 1.2303
 Frc consts  --      1.3585                 1.3394                 1.4006
 IR Inten    --      8.2150                26.0780                 4.4942

                     34                     35                     36
                      A                      A                      A
 Frequencies --   1401.3350              1431.8993              1477.2854
 Red. masses --      1.2364                 1.4049                 1.0840
 Frc consts  --      1.4306                 1.6972                 1.3938
 IR Inten    --     18.1115                 4.9636                 2.0554

                     37                     38                     39
                      A                      A                      A
 Frequencies --   1483.3033              1498.1057              1524.4648
 Red. masses --      1.0478                 1.0547                 1.0850
 Frc consts  --      1.3582                 1.3947                 1.4857
 IR Inten    --      5.7643                 1.5380                 2.8977

                     40                     41                     42
                      A                      A                      A
 Frequencies --   1840.1476              2243.5225              2858.8202
 Red. masses --     10.6862                 5.9201                 1.0830
 Frc consts  --     21.3196                17.5564                 5.2149
 IR Inten    --    137.5777                 2.1916                87.7339

                     43                     44                     45
                      A                      A                      A
 Frequencies --   2982.1907              2999.9863              3017.1822
 Red. masses --      1.0558                 1.0822                 1.1063
 Frc consts  --      5.5322                 5.7385                 5.9336
 IR Inten    --     20.6020                32.6766                30.3725

                     46                     47                     48
                      A                      A                      A
 Frequencies --   3036.0650              3047.2650              3074.0644
 Red. masses --      1.0581                 1.0341                 1.1032
 Frc consts  --      5.7464                 5.6574                 6.1422
 IR Inten    --     14.9659                12.6291                15.5862

                     49                     50                     51
                      A                      A                      A
 Frequencies --   3122.7873              3137.3067              3506.4210
 Red. masses --      1.1017                 1.1030                 1.1628
 Frc consts  --      6.3299                 6.3965                 8.4235
 IR Inten    --     15.2459                10.9922                69.2085

 - Thermochemistry -
 -------------------
 Temperature   298.150 Kelvin.  Pressure   1.00000 Atm.
 Atom     1 has atomic number  6 and mass  12.00000

 Molecular mass:   126.06808 amu.
 Principal axes and moments of inertia in atomic units:
                           1         2         3
     Eigenvalues --   503.066102726.816493104.57617
           X            0.99975  -0.02233   0.00008
           Y            0.02233   0.99974   0.00439
           Z           -0.00017  -0.00439   0.99999
 This molecule is an asymmetric top.
 Rotational symmetry number  1.
 Warning -- assumption of classical behavior for rotation
           may cause significant error
 Rotational temperatures (Kelvin)      0.17217     0.03176     0.02790
 Rotational constants (GHZ):           3.58748     0.66185     0.58132
 Zero-point vibrational energy     405441.1 (Joules/Mol)
                                   96.90274 (Kcal/Mol)
 Warning -- explicit consideration of  14 degrees of freedom as
           vibrations may cause significant error
 Vibrational temperatures:     61.90    94.45    97.47   147.87   219.61
          (Kelvin)            300.17   320.00   391.08   505.63   509.07
                              532.52   597.47   773.56   835.43   902.69
                              940.79  1148.40  1263.72  1303.29  1362.52
                             1416.23  1524.15  1551.88  1568.77  1628.08
                             1669.56  1675.72  1767.70  1873.91  1879.37
                             1884.68  1930.14  1999.95  2016.21  2060.18
                             2125.48  2134.14  2155.44  2193.36  2647.56
                             3227.92  4113.20  4290.70  4316.31  4341.05
                             4368.21  4384.33  4422.89  4492.99  4513.88
                             5044.95

 Zero-point correction=                           0.154424 (Hartree/Particle)
 Thermal correction to Energy=                    0.165122
 Thermal correction to Enthalpy=                  0.166066
 Thermal correction to Gibbs Free Energy=         0.117170
 Sum of electronic and zero-point Energies=           -422.993452
 Sum of electronic and thermal Energies=              -422.982754
 Sum of electronic and thermal Enthalpies=            -422.981810
 Sum of electronic and thermal Free Energies=         -423.030706

                     E (Thermal)             CV                S
                      KCal/Mol        Cal/Mol-Kelvin    Cal/Mol-Kelvin
 Total                  103.615             36.856            102.909
 Electronic               0.000              0.000              0.000
 Translational            0.889              2.981             40.409
 Rotational               0.889              2.981             29.833
 Vibrational            101.838             30.894             32.668
 Vibration     1          0.595              1.980              5.115
 Vibration     2          0.597              1.971              4.280
 Vibration     3          0.598              1.970              4.218
 Vibration     4          0.605              1.947              3.401
 Vibration     5          0.619              1.900              2.639
 Vibration     6          0.642              1.828              2.056
 Vibration     7          0.648              1.807              1.939
 Vibration     8          0.675              1.725              1.585
 Vibration     9          0.728              1.572              1.160
 Vibration    10          0.730              1.567              1.149
 Vibration    11          0.742              1.534              1.079
 Vibration    12          0.779              1.437              0.908
 Vibration    13          0.893              1.167              0.570
 Vibration    14          0.937              1.073              0.484

 Optimization completed.
    -- Stationary point found.
 Normal termination of Gaussian 09 at Mon Jan 27 16:25:33 2020.
