 Gaussian 09, Revision D.01,
 Gaussian 09:  ES64L-G09RevD.01 24-Apr-2013

 -----------------------------
 # b3lyp 6-31G(2df,p) opt Freq
 -----------------------------

 -----
 titel
 -----
 Symbolic Z-matrix:
 Charge =  0 Multiplicity = 1

 SCF Done:  E(RB3LYP) =  -423.173716820     A.U. after   14 cycles
 Optimization completed.
    -- Stationary point found.
 Normal termination of Gaussian 09 at Tue Jan 28 00:05:44 2020.

 ----------------------------------------------------------------------
 #N Geom=AllCheck Guess=TCheck SCRF=Check GenChk RB3LYP/6-31G(2df,p) Fr
 eq
 ----------------------------------------------------------------------

 Structure from the checkpoint file:  "/scratch/puck/g09_d80e4c8f-ed61-425a-873e-6ea5a7c453df/Gau-21331.chk"
 -----
 titel
 -----
 Charge =  0 Multiplicity = 1

                         Standard orientation:
 ---------------------------------------------------------------------
 Center     Atomic      Atomic             Coordinates (Angstroms)
 Number     Number       Type             X           Y           Z
 ---------------------------------------------------------------------
      1          8           0        2.689032    0.234750    0.307821
      2          6           0        1.455241   -0.067057   -0.332380
      3          6           0        1.016578   -1.511725   -0.268244
      4          6           0       -0.295653   -1.609523   -0.040841
      5          6           0       -0.934545   -0.277393    0.110426
      6          6           0       -2.164057    0.107515   -0.689057
      7          6           0       -2.257364   -0.062338    0.802602
      8          6           0        0.241334    0.687794    0.274549
      9          8           0       -0.029007    1.949203   -0.298976
     10          1           0        2.650871   -0.141591    1.194585
     11          1           0        1.597715    0.259466   -1.371068
     12          1           0        1.701912   -2.333480   -0.441209
     13          1           0       -0.864471   -2.532634    0.005792
     14          1           0       -2.182309    1.114081   -1.088656
     15          1           0       -2.609136   -0.649942   -1.325324
     16          1           0       -2.359141    0.834050    1.406215
     17          1           0       -2.775069   -0.931317    1.196314
     18          1           0        0.450182    0.798626    1.353895
     19          1           0        0.740048    2.507491   -0.143636
 ---------------------------------------------------------------------

 SCF Done:  E(RB3LYP) =  -423.173716820     A.U. after    1 cycles

 The electronic state is 1-A.
 Alpha  occ. eigenvalues --  -19.13902 -19.13687 -10.23015 -10.22815 -10.19708
 Alpha  occ. eigenvalues --  -10.18867 -10.18330 -10.18188 -10.17824  -1.02810
 Alpha  occ. eigenvalues --   -1.01229  -0.87013  -0.80195  -0.69630  -0.65514
 Alpha  occ. eigenvalues --   -0.59932  -0.57771  -0.53440  -0.52674  -0.49633
 Alpha  occ. eigenvalues --   -0.47465  -0.45276  -0.43023  -0.42300  -0.39953
 Alpha  occ. eigenvalues --   -0.37185  -0.35855  -0.33880  -0.32946  -0.32506
 Alpha  occ. eigenvalues --   -0.29600  -0.28634  -0.25495  -0.22878
 Alpha virt. eigenvalues --    0.00844   0.08027   0.09561   0.10955   0.11409
 Alpha virt. eigenvalues --    0.13124   0.13318   0.15676   0.16479   0.17161
 Alpha virt. eigenvalues --    0.17902   0.20544   0.21787   0.22945   0.23787

 Mulliken charges:
               1
     1  O   -0.439493
     2  C    0.054463
     3  C   -0.160504
     4  C   -0.133230
     5  C    0.320906
     6  C   -0.301921
     7  C   -0.323213
     8  C    0.022174
     9  O   -0.440749
    10  H    0.274392
    11  H    0.101983
    12  H    0.099877
    13  H    0.100641
    14  H    0.139904
    15  H    0.109461
    16  H    0.118392
    17  H    0.107436
    18  H    0.058605
    19  H    0.290874
 Sum of Mulliken charges =   0.00000

 Dipole moment (field-independent basis, Debye):
    X=             -0.2194    Y=             -0.7991    Z=              1.1283  Tot=              1.3998
 Quadrupole moment (field-independent basis, Debye-Ang):
   XX=            -56.4550   YY=            -49.9663   ZZ=            -51.6320
   XY=              1.6464   XZ=              1.7554   YZ=              0.7000

  Exact polarizability:  97.000  -0.249  75.414  -1.275   0.130  62.129
 Approx polarizability: 141.973   0.221 107.070  -2.225  -1.756  97.187

                      1                      2                      3
                      A                      A                      A
 Frequencies --     54.8766               182.6637               235.2079
 Red. masses --      4.8060                 2.8026                 2.7175
 Frc consts  --      0.0085                 0.0551                 0.0886
 IR Inten    --      0.8205                 0.6021                 0.5141

                      4                      5                      6
                      A                      A                      A
 Frequencies --    250.4836               285.3744               331.1395
 Red. masses --      3.0204                 1.7196                 1.8899
 Frc consts  --      0.1117                 0.0825                 0.1221
 IR Inten    --      4.8783                30.5668                25.3794

                      7                      8                      9
                      A                      A                      A
 Frequencies --    337.5695               359.4584               440.7894
 Red. masses --      2.2264                 1.2935                 3.1569
 Frc consts  --      0.1495                 0.0985                 0.3614
 IR Inten    --     12.2476               113.0892                14.3108

                     10                     11                     12
                      A                      A                      A
 Frequencies --    474.7903               564.9460               600.6728
 Red. masses --      4.2063                 3.8790                 3.6747
 Frc consts  --      0.5587                 0.7294                 0.7812
 IR Inten    --      4.0762                 8.3990                 8.0618

                     13                     14                     15
                      A                      A                      A
 Frequencies --    684.8822               767.9441               783.5018
 Red. masses --      4.5605                 1.4731                 1.0567
 Frc consts  --      1.2604                 0.5119                 0.3822
 IR Inten    --      0.6943                18.6721                 2.4250

                     16                     17                     18
                      A                      A                      A
 Frequencies --    806.2964               894.0015               933.5780
 Red. masses --      3.2742                 2.4512                 2.2916
 Frc consts  --      1.2542                 1.1543                 1.1768
 IR Inten    --     10.1477                11.5659                18.7785

                     19                     20                     21
                      A                      A                      A
 Frequencies --    942.1674               957.9019               973.3844
 Red. masses --      1.2911                 2.5789                 1.3692
 Frc consts  --      0.6753                 1.3942                 0.7643
 IR Inten    --     10.3318                46.9996                 4.4472

                     22                     23                     24
                      A                      A                      A
 Frequencies --    995.7991              1050.5259              1067.5768
 Red. masses --      2.6239                 1.4960                 1.9857
 Frc consts  --      1.5330                 0.9727                 1.3334
 IR Inten    --     23.4496                 6.2147                23.1428

                     25                     26                     27
                      A                      A                      A
 Frequencies --   1075.9861              1082.9299              1128.6146
 Red. masses --      1.6732                 1.9099                 3.7097
 Frc consts  --      1.1413                 1.3197                 2.7841
 IR Inten    --     12.8758                17.2756                71.4785

                     28                     29                     30
                      A                      A                      A
 Frequencies --   1139.3391              1194.7659              1223.7253
 Red. masses --      1.6828                 1.2892                 1.1585
 Frc consts  --      1.2870                 1.0843                 1.0222
 IR Inten    --     38.2715                 0.2717                30.7716

                     31                     32                     33
                      A                      A                      A
 Frequencies --   1246.4452              1258.1204              1293.2328
 Red. masses --      1.2556                 1.5180                 1.9333
 Frc consts  --      1.1493                 1.4156                 1.9051
 IR Inten    --     31.7215                 1.5396                11.5757

                     34                     35                     36
                      A                      A                      A
 Frequencies --   1316.0207              1337.5853              1401.9317
 Red. masses --      2.0037                 1.6419                 1.7496
 Frc consts  --      2.0446                 1.7308                 2.0260
 IR Inten    --      1.9298                12.4401                12.2271

                     37                     38                     39
                      A                      A                      A
 Frequencies --   1419.8603              1436.4345              1459.2417
 Red. masses --      1.2596                 1.7040                 1.0880
 Frc consts  --      1.4961                 2.0715                 1.3650
 IR Inten    --     85.4976                 7.2793                 2.1727

                     40                     41                     42
                      A                      A                      A
 Frequencies --   1495.5945              1664.8683              2934.0683
 Red. masses --      1.4157                 6.7805                 1.0821
 Frc consts  --      1.8657                11.0732                 5.4885
 IR Inten    --      0.3267                11.6840                58.7807

                     43                     44                     45
                      A                      A                      A
 Frequencies --   3026.5601              3122.5296              3139.2419
 Red. masses --      1.0835                 1.0533                 1.0553
 Frc consts  --      5.8478                 6.0508                 6.1275
 IR Inten    --     28.2474                17.5944                13.3915

                     46                     47                     48
                      A                      A                      A
 Frequencies --   3178.0723              3206.4271              3207.0532
 Red. masses --      1.0863                 1.1131                 1.1069
 Frc consts  --      6.4645                 6.7427                 6.7075
 IR Inten    --      5.7756                 1.5052                19.9548

                     49                     50                     51
                      A                      A                      A
 Frequencies --   3235.2813              3792.8357              3815.3216
 Red. masses --      1.1156                 1.0658                 1.0660
 Frc consts  --      6.8800                 9.0337                 9.1429
 IR Inten    --      5.0695                12.8952                27.9459

 - Thermochemistry -
 -------------------
 Temperature   298.150 Kelvin.  Pressure   1.00000 Atm.
 Atom     1 has atomic number  8 and mass  15.99491

 Molecular mass:   126.06808 amu.
 Principal axes and moments of inertia in atomic units:
                           1         2         3
     Eigenvalues --   645.253531262.333641683.19351
           X            1.00000   0.00223  -0.00033
           Y           -0.00222   0.99997   0.00765
           Z            0.00034  -0.00765   0.99997
 This molecule is an asymmetric top.
 Rotational symmetry number  1.
 Warning -- assumption of classical behavior for rotation
           may cause significant error
 Rotational temperatures (Kelvin)      0.13423     0.06861     0.05146
 Rotational constants (GHZ):           2.79695     1.42969     1.07221
 Zero-point vibrational energy     417542.3 (Joules/Mol)
                                   99.79500 (Kcal/Mol)
 Warning -- explicit consideration of  12 degrees of freedom as
           vibrations may cause significant error
 Vibrational temperatures:     78.96   262.81   338.41   360.39   410.59
          (Kelvin)            476.44   485.69   517.18   634.20   683.12
                              812.83   864.23   985.39  1104.90  1127.28
                             1160.08  1286.27  1343.21  1355.57  1378.21
                             1400.48  1432.73  1511.47  1536.00  1548.10
                             1558.09  1623.82  1639.25  1719.00  1760.67
                             1793.35  1810.15  1860.67  1893.46  1924.48
                             2017.06  2042.86  2066.71  2099.52  2151.82
                             2395.37  4221.46  4354.54  4492.62  4516.66
                             4572.53  4613.33  4614.23  4654.84  5457.04
                             5489.39

 Zero-point correction=                           0.159033 (Hartree/Particle)
 Thermal correction to Energy=                    0.167594
 Thermal correction to Enthalpy=                  0.168538
 Thermal correction to Gibbs Free Energy=         0.125964
 Sum of electronic and zero-point Energies=           -423.014683
 Sum of electronic and thermal Energies=              -423.006123
 Sum of electronic and thermal Enthalpies=            -423.005179
 Sum of electronic and thermal Free Energies=         -423.047752

                     E (Thermal)             CV                S
                      KCal/Mol        Cal/Mol-Kelvin    Cal/Mol-Kelvin
 Total                  105.167             33.554             89.604
 Electronic               0.000              0.000              0.000
 Translational            0.889              2.981             40.409
 Rotational               0.889              2.981             28.707
 Vibrational            103.389             27.593             20.488
 Vibration     1          0.596              1.976              4.633
 Vibration     2          0.630              1.863              2.301
 Vibration     3          0.655              1.787              1.839
 Vibration     4          0.663              1.762              1.727
 Vibration     5          0.683              1.701              1.501
 Vibration     6          0.714              1.613              1.255
 Vibration     7          0.718              1.600              1.224
 Vibration     8          0.734              1.556              1.124
 Vibration     9          0.801              1.381              0.824
 Vibration    10          0.832              1.306              0.724
 Vibration    11          0.921              1.107              0.514
 Vibration    12          0.959              1.030              0.449

 Optimization completed.
    -- Stationary point found.
 Normal termination of Gaussian 09 at Tue Jan 28 00:54:34 2020.
