 Gaussian 09, Revision D.01,
 Gaussian 09:  ES64L-G09RevD.01 24-Apr-2013

 -----------------------------
 # b3lyp 6-31G(2df,p) opt Freq
 -----------------------------

 -----
 titel
 -----
 Symbolic Z-matrix:
 Charge =  0 Multiplicity = 1

 SCF Done:  E(RB3LYP) =  -423.173524462     A.U. after   13 cycles
 Optimization completed.
    -- Stationary point found.
 Normal termination of Gaussian 09 at Mon Jan 27 17:57:41 2020.

 ----------------------------------------------------------------------
 #N Geom=AllCheck Guess=TCheck SCRF=Check GenChk RB3LYP/6-31G(2df,p) Fr
 eq
 ----------------------------------------------------------------------

 Structure from the checkpoint file:  "/scratch/puck/g09_8a0bd841-1909-4700-9fcf-a543c5eb51e7/Gau-169858.chk"
 -----
 titel
 -----
 Charge =  0 Multiplicity = 1

                         Standard orientation:
 ---------------------------------------------------------------------
 Center     Atomic      Atomic             Coordinates (Angstroms)
 Number     Number       Type             X           Y           Z
 ---------------------------------------------------------------------
      1          6           0        2.458392    0.415992    0.261561
      2          6           0        1.035203    0.048872   -0.076740
      3          8           0        0.880665   -1.065246   -0.988035
      4          6           0        0.441861   -1.218427    0.368437
      5          6           0       -1.044562   -1.346600    0.626305
      6          6           0       -1.891664   -0.457597   -0.292991
      7          6           0       -1.345805    0.948334   -0.416260
      8          8           0       -0.780641    1.556279    0.751684
      9          6           0        0.096217    1.194128   -0.333869
     10          1           0        2.489428    1.035310    1.164460
     11          1           0        3.060702   -0.480191    0.428418
     12          1           0        2.914677    0.988037   -0.554186
     13          1           0        1.073495   -1.882451    0.961522
     14          1           0       -1.350514   -2.393020    0.514290
     15          1           0       -1.218454   -1.075216    1.673711
     16          1           0       -1.920832   -0.883906   -1.302127
     17          1           0       -2.925214   -0.425417    0.069643
     18          1           0       -1.942055    1.631305   -1.022722
     19          1           0        0.520723    2.049080   -0.860852
 ---------------------------------------------------------------------

 SCF Done:  E(RB3LYP) =  -423.173524462     A.U. after    1 cycles

 The electronic state is 1-A.
 Alpha  occ. eigenvalues --  -19.14983 -19.14592 -10.24110 -10.23755 -10.23557
 Alpha  occ. eigenvalues --  -10.23495 -10.18984 -10.18950 -10.18397  -1.07541
 Alpha  occ. eigenvalues --   -1.05788  -0.79269  -0.75958  -0.70611  -0.67577
 Alpha  occ. eigenvalues --   -0.61740  -0.59595  -0.53577  -0.51543  -0.48383
 Alpha  occ. eigenvalues --   -0.46959  -0.44406  -0.42794  -0.41604  -0.40506
 Alpha  occ. eigenvalues --   -0.39035  -0.38541  -0.37662  -0.34691  -0.34107
 Alpha  occ. eigenvalues --   -0.29767  -0.28292  -0.27620  -0.25687
 Alpha virt. eigenvalues --    0.07215   0.09198   0.10811   0.11548   0.12379
 Alpha virt. eigenvalues --    0.12790   0.14245   0.14579   0.15673   0.16056
 Alpha virt. eigenvalues --    0.17175   0.18251   0.20056   0.20708   0.22737

 Mulliken charges:
               1
     1  C   -0.487871
     2  C    0.402600
     3  O   -0.303102
     4  C    0.006479
     5  C   -0.252257
     6  C   -0.253559
     7  C    0.065182
     8  O   -0.264566
     9  C   -0.023496
    10  H    0.134012
    11  H    0.128706
    12  H    0.125952
    13  H    0.085324
    14  H    0.106307
    15  H    0.123201
    16  H    0.123925
    17  H    0.106189
    18  H    0.089988
    19  H    0.086985
 Sum of Mulliken charges =   0.00000

 Dipole moment (field-independent basis, Debye):
    X=             -0.1568    Y=             -0.2443    Z=              0.1392  Tot=              0.3219
 Quadrupole moment (field-independent basis, Debye-Ang):
   XX=            -49.4824   YY=            -53.7138   ZZ=            -55.1282
   XY=              2.7437   XZ=              3.0007   YZ=             -5.4708

  Exact polarizability:  84.787   4.474  75.157   1.137  -4.473  61.755
 Approx polarizability: 111.266   5.407 109.067  -2.271   0.465 104.259

                      1                      2                      3
                      A                      A                      A
 Frequencies --    146.8195               188.9781               224.9579
 Red. masses --      2.8277                 1.4309                 2.0429
 Frc consts  --      0.0359                 0.0301                 0.0609
 IR Inten    --      3.0471                 2.5706                 4.4350

                      4                      5                      6
                      A                      A                      A
 Frequencies --    258.2754               320.8737               330.2798
 Red. masses --      2.0907                 2.6162                 2.9599
 Frc consts  --      0.0822                 0.1587                 0.1902
 IR Inten    --      2.3761                 1.2561                 4.4413

                      7                      8                      9
                      A                      A                      A
 Frequencies --    392.9190               442.8570               552.2205
 Red. masses --      5.4446                 3.4326                 4.0330
 Frc consts  --      0.4952                 0.3966                 0.7246
 IR Inten    --      1.8493                 4.7475                 9.3561

                     10                     11                     12
                      A                      A                      A
 Frequencies --    609.0083               672.3205               710.1453
 Red. masses --      5.5715                 2.7004                 3.1391
 Frc consts  --      1.2175                 0.7192                 0.9327
 IR Inten    --      1.5756                 0.3451                 6.8653

                     13                     14                     15
                      A                      A                      A
 Frequencies --    772.4549               803.3743               868.3765
 Red. masses --      4.0268                 2.8577                 2.8164
 Frc consts  --      1.4157                 1.0867                 1.2513
 IR Inten    --      5.2467                11.4284                28.1566

                     16                     17                     18
                      A                      A                      A
 Frequencies --    893.5746               902.5455               942.6784
 Red. masses --      2.6687                 2.7842                 2.9379
 Frc consts  --      1.2555                 1.3363                 1.5382
 IR Inten    --     10.5685                 6.2951                 1.3740

                     19                     20                     21
                      A                      A                      A
 Frequencies --    969.4427              1005.2985              1053.6607
 Red. masses --      2.9290                 1.4410                 2.1407
 Frc consts  --      1.6218                 0.8580                 1.4003
 IR Inten    --     31.7395                 3.7858                 3.8878

                     22                     23                     24
                      A                      A                      A
 Frequencies --   1083.2306              1090.2035              1104.7752
 Red. masses --      1.4432                 1.2972                 2.1203
 Frc consts  --      0.9977                 0.9084                 1.5247
 IR Inten    --      2.3303                 6.6915                 7.6652

                     25                     26                     27
                      A                      A                      A
 Frequencies --   1122.9237              1148.7206              1228.8221
 Red. masses --      1.5728                 1.6976                 1.3336
 Frc consts  --      1.1685                 1.3198                 1.1865
 IR Inten    --      5.6277                 7.6693                 7.6700

                     28                     29                     30
                      A                      A                      A
 Frequencies --   1241.2049              1265.6092              1286.5497
 Red. masses --      1.9016                 1.4198                 1.2863
 Frc consts  --      1.7261                 1.3399                 1.2545
 IR Inten    --      7.9878                 1.6730                 5.8932

                     31                     32                     33
                      A                      A                      A
 Frequencies --   1336.1124              1371.2534              1387.2858
 Red. masses --      1.3324                 1.5035                 1.5843
 Frc consts  --      1.4015                 1.6656                 1.7965
 IR Inten    --      0.8120                 0.0880                 0.1792

                     34                     35                     36
                      A                      A                      A
 Frequencies --   1398.7655              1412.6882              1466.5084
 Red. masses --      1.6924                 1.2866                 1.3085
 Frc consts  --      1.9509                 1.5128                 1.6580
 IR Inten    --      1.6892                 5.2353                 6.3001

                     37                     38                     39
                      A                      A                      A
 Frequencies --   1468.9591              1484.0431              1485.0944
 Red. masses --      1.6354                 1.1231                 1.2187
 Frc consts  --      2.0792                 1.4573                 1.5836
 IR Inten    --      7.6760                 6.5200                 3.8089

                     40                     41                     42
                      A                      A                      A
 Frequencies --   1493.8913              1513.2476              3033.5419
 Red. masses --      1.3631                 2.1146                 1.0365
 Frc consts  --      1.7924                 2.8530                 5.6196
 IR Inten    --      9.9263                 7.5101                18.6282

                     43                     44                     45
                      A                      A                      A
 Frequencies --   3035.8239              3043.1198              3070.8042
 Red. masses --      1.0602                 1.0602                 1.1023
 Frc consts  --      5.7569                 5.7845                 6.1245
 IR Inten    --     12.1150                31.8151                14.4035

                     46                     47                     48
                      A                      A                      A
 Frequencies --   3085.4161              3091.2073              3096.5020
 Red. masses --      1.1022                 1.0878                 1.0984
 Frc consts  --      6.1821                 6.1243                 6.2051
 IR Inten    --     22.8663                41.1884                19.0425

                     49                     50                     51
                      A                      A                      A
 Frequencies --   3097.9732              3110.7164              3125.2589
 Red. masses --      1.0868                 1.0915                 1.1010
 Frc consts  --      6.1457                 6.2226                 6.3361
 IR Inten    --     22.8841                46.2110                17.9268

 - Thermochemistry -
 -------------------
 Temperature   298.150 Kelvin.  Pressure   1.00000 Atm.
 Atom     1 has atomic number  6 and mass  12.00000

 Molecular mass:   126.06808 amu.
 Principal axes and moments of inertia in atomic units:
                           1         2         3
     Eigenvalues --   694.91287 995.935491368.04782
           X            0.99569   0.08993   0.02253
           Y           -0.08839   0.99416  -0.06193
           Z           -0.02797   0.05967   0.99783
 This molecule is an asymmetric top.
 Rotational symmetry number  1.
 Warning -- assumption of classical behavior for rotation
           may cause significant error
 Rotational temperatures (Kelvin)      0.12464     0.08697     0.06331
 Rotational constants (GHZ):           2.59708     1.81211     1.31921
 Zero-point vibrational energy     420136.4 (Joules/Mol)
                                  100.41500 (Kcal/Mol)
 Warning -- explicit consideration of  10 degrees of freedom as
           vibrations may cause significant error
 Vibrational temperatures:    211.24   271.90   323.66   371.60   461.67
          (Kelvin)            475.20   565.32   637.17   794.52   876.23
                              967.32  1021.74  1111.39  1155.87  1249.40
                             1285.65  1298.56  1356.30  1394.81  1446.40
                             1515.98  1558.53  1568.56  1589.52  1615.63
                             1652.75  1768.00  1785.81  1820.93  1851.06
                             1922.37  1972.93  1995.99  2012.51  2032.54
                             2109.98  2113.50  2135.20  2136.72  2149.37
                             2177.22  4364.58  4367.87  4378.37  4418.20
                             4439.22  4447.55  4455.17  4457.29  4475.62
                             4496.54

 Zero-point correction=                           0.160021 (Hartree/Particle)
 Thermal correction to Energy=                    0.167753
 Thermal correction to Enthalpy=                  0.168697
 Thermal correction to Gibbs Free Energy=         0.128243
 Sum of electronic and zero-point Energies=           -423.013503
 Sum of electronic and thermal Energies=              -423.005772
 Sum of electronic and thermal Enthalpies=            -423.004828
 Sum of electronic and thermal Free Energies=         -423.045281

                     E (Thermal)             CV                S
                      KCal/Mol        Cal/Mol-Kelvin    Cal/Mol-Kelvin
 Total                  105.266             30.757             85.143
 Electronic               0.000              0.000              0.000
 Translational            0.889              2.981             40.409
 Rotational               0.889              2.981             28.339
 Vibrational            103.489             24.795             16.395
 Vibration     1          0.617              1.906              2.713
 Vibration     2          0.633              1.855              2.238
 Vibration     3          0.650              1.803              1.919
 Vibration     4          0.667              1.749              1.673
 Vibration     5          0.706              1.634              1.306
 Vibration     6          0.713              1.615              1.259
 Vibration     7          0.760              1.485              0.989
 Vibration     8          0.802              1.377              0.818
 Vibration     9          0.908              1.135              0.540
 Vibration    10          0.968              1.013              0.434

 Optimization completed.
    -- Stationary point found.
 Normal termination of Gaussian 09 at Mon Jan 27 18:42:21 2020.
