 Gaussian 09, Revision D.01,
 Gaussian 09:  ES64L-G09RevD.01 24-Apr-2013

 -----------------------------
 # b3lyp 6-31G(2df,p) opt Freq
 -----------------------------

 -----
 titel
 -----
 Symbolic Z-matrix:
 Charge =  0 Multiplicity = 1

 SCF Done:  E(RB3LYP) =  -423.182376641     A.U. after   13 cycles
 Optimization completed.
    -- Stationary point found.
 Normal termination of Gaussian 09 at Tue Jan 28 03:56:00 2020.

 ----------------------------------------------------------------------
 #N Geom=AllCheck Guess=TCheck SCRF=Check GenChk RB3LYP/6-31G(2df,p) Fr
 eq
 ----------------------------------------------------------------------

 Structure from the checkpoint file:  "/scratch/puck/g09_94bb1af7-ea4a-4b14-8024-e5b852bea4eb/Gau-115529.chk"
 -----
 titel
 -----
 Charge =  0 Multiplicity = 1

                         Standard orientation:
 ---------------------------------------------------------------------
 Center     Atomic      Atomic             Coordinates (Angstroms)
 Number     Number       Type             X           Y           Z
 ---------------------------------------------------------------------
      1          6           0        2.715392   -0.011386   -0.226437
      2          6           0        1.212579   -0.031509   -0.466083
      3          8           0        0.667370   -1.219079    0.134969
      4          6           0       -0.587039   -0.919752    0.733140
      5          6           0       -1.710092   -0.922788   -0.312767
      6          8           0       -1.586747    0.332130   -0.994927
      7          6           0       -1.015956    1.250085   -0.092406
      8          6           0        0.470402    1.137588    0.177505
      9          6           0       -0.537016    0.561190    1.147287
     10          1           0        2.934774    0.067072    0.842854
     11          1           0        3.167263   -0.933104   -0.603115
     12          1           0        3.178196    0.834512   -0.744863
     13          1           0        1.005802   -0.059235   -1.545182
     14          1           0       -0.755016   -1.624979    1.550032
     15          1           0       -1.599732   -1.726868   -1.044026
     16          1           0       -2.695994   -0.997620    0.171810
     17          1           0       -1.499254    2.221144   -0.089214
     18          1           0        1.023824    2.039086    0.416038
     19          1           0       -0.694462    0.895020    2.163898
 ---------------------------------------------------------------------

 SCF Done:  E(RB3LYP) =  -423.182376641     A.U. after    1 cycles

 The electronic state is 1-A.
 Alpha  occ. eigenvalues --  -19.14177 -19.13194 -10.23596 -10.23583 -10.23042
 Alpha  occ. eigenvalues --  -10.22388 -10.19305 -10.19205 -10.17278  -1.05482
 Alpha  occ. eigenvalues --   -1.01752  -0.85228  -0.77572  -0.72352  -0.64819
 Alpha  occ. eigenvalues --   -0.59562  -0.58449  -0.57023  -0.53230  -0.48464
 Alpha  occ. eigenvalues --   -0.45293  -0.44502  -0.43811  -0.42686  -0.40609
 Alpha  occ. eigenvalues --   -0.38422  -0.37607  -0.35098  -0.34156  -0.32859
 Alpha  occ. eigenvalues --   -0.31308  -0.28318  -0.25025  -0.23492
 Alpha virt. eigenvalues --    0.08391   0.10147   0.11444   0.12523   0.13562
 Alpha virt. eigenvalues --    0.14128   0.15250   0.16242   0.16607   0.16687
 Alpha virt. eigenvalues --    0.17636   0.17895   0.19231   0.19604   0.21001

 Mulliken charges:
               1
     1  C   -0.407000
     2  C    0.132357
     3  O   -0.282062
     4  C    0.061315
     5  C   -0.090386
     6  O   -0.261940
     7  C    0.079672
     8  C   -0.116775
     9  C   -0.135181
    10  H    0.118856
    11  H    0.125955
    12  H    0.112890
    13  H    0.086405
    14  H    0.085649
    15  H    0.117951
    16  H    0.090373
    17  H    0.098240
    18  H    0.090154
    19  H    0.093526
 Sum of Mulliken charges =   0.00000

 Dipole moment (field-independent basis, Debye):
    X=             -0.0244    Y=              0.8985    Z=              1.3818  Tot=              1.6484
 Quadrupole moment (field-independent basis, Debye-Ang):
   XX=            -52.8216   YY=            -51.6109   ZZ=            -53.2604
   XY=              2.9762   XZ=             -3.3431   YZ=              1.1241

  Exact polarizability:  83.231   3.680  72.236  -3.018   0.286  65.419
 Approx polarizability: 109.352   3.577 107.326  -2.740  -2.365 102.922

                      1                      2                      3
                      A                      A                      A
 Frequencies --    106.9174               198.1289               240.9775
 Red. masses --      3.5240                 3.2733                 1.1255
 Frc consts  --      0.0237                 0.0757                 0.0385
 IR Inten    --      1.9947                 4.2003                 0.6479

                      4                      5                      6
                      A                      A                      A
 Frequencies --    282.2568               359.8743               437.2915
 Red. masses --      2.4609                 3.0716                 2.7262
 Frc consts  --      0.1155                 0.2344                 0.3071
 IR Inten    --      1.0040                 0.4694                 4.1022

                      7                      8                      9
                      A                      A                      A
 Frequencies --    571.2649               619.3377               694.1599
 Red. masses --      3.3608                 6.3899                 4.1569
 Frc consts  --      0.6462                 1.4441                 1.1801
 IR Inten    --      0.6918                 4.1514                 3.0168

                     10                     11                     12
                      A                      A                      A
 Frequencies --    723.8071               775.1004               802.3504
 Red. masses --      4.6750                 2.4431                 1.8568
 Frc consts  --      1.4430                 0.8648                 0.7043
 IR Inten    --      2.4022                13.8137                 6.0008

                     13                     14                     15
                      A                      A                      A
 Frequencies --    815.9603               833.4852               897.0386
 Red. masses --      2.3496                 3.0282                 2.4361
 Frc consts  --      0.9217                 1.2395                 1.1550
 IR Inten    --      2.1165                10.7966                25.3679

                     16                     17                     18
                      A                      A                      A
 Frequencies --    920.2353               947.7437               964.3471
 Red. masses --      2.7061                 1.6357                 2.5769
 Frc consts  --      1.3502                 0.8656                 1.4119
 IR Inten    --     17.2367                 0.1447                 8.0880

                     19                     20                     21
                      A                      A                      A
 Frequencies --    998.1307              1023.6952              1039.5319
 Red. masses --      2.0847                 1.9629                 2.5239
 Frc consts  --      1.2237                 1.2120                 1.6069
 IR Inten    --     10.9042                 3.8054                 0.7026

                     22                     23                     24
                      A                      A                      A
 Frequencies --   1061.4276              1086.8093              1095.2669
 Red. masses --      1.9032                 1.9269                 1.6919
 Frc consts  --      1.2633                 1.3410                 1.1958
 IR Inten    --     32.2306                12.6237                 5.6091

                     25                     26                     27
                      A                      A                      A
 Frequencies --   1112.2964              1135.5885              1148.3749
 Red. masses --      2.6095                 2.1065                 2.8744
 Frc consts  --      1.9021                 1.6005                 2.2334
 IR Inten    --     71.2868                26.8047                84.2212

                     28                     29                     30
                      A                      A                      A
 Frequencies --   1156.1360              1227.7255              1261.9739
 Red. masses --      1.8138                 1.2181                 1.6211
 Frc consts  --      1.4284                 1.0817                 1.5211
 IR Inten    --      7.6142                 8.8616                 5.3472

                     31                     32                     33
                      A                      A                      A
 Frequencies --   1270.6994              1307.7983              1331.8736
 Red. masses --      1.5330                 1.2595                 1.3340
 Frc consts  --      1.4584                 1.2692                 1.3942
 IR Inten    --      2.6697                 4.0786                 3.3521

                     34                     35                     36
                      A                      A                      A
 Frequencies --   1349.6005              1361.3769              1394.0261
 Red. masses --      1.5906                 1.3974                 1.3891
 Frc consts  --      1.7069                 1.5260                 1.5904
 IR Inten    --     10.9187                13.5115                 3.3243

                     37                     38                     39
                      A                      A                      A
 Frequencies --   1403.3062              1409.9618              1485.9874
 Red. masses --      1.4979                 1.7863                 1.0553
 Frc consts  --      1.7379                 2.0922                 1.3729
 IR Inten    --      0.4764                26.0086                 1.9870

                     40                     41                     42
                      A                      A                      A
 Frequencies --   1496.8156              1500.3056              2987.1139
 Red. masses --      1.0474                 1.1036                 1.0697
 Frc consts  --      1.3826                 1.4636                 5.6234
 IR Inten    --      2.7370                 1.3159                71.2071

                     43                     44                     45
                      A                      A                      A
 Frequencies --   3004.1453              3038.4465              3095.6298
 Red. masses --      1.0832                 1.0348                 1.0889
 Frc consts  --      5.7597                 5.6288                 6.1480
 IR Inten    --     33.5938                18.7107                36.5843

                     46                     47                     48
                      A                      A                      A
 Frequencies --   3107.8303              3112.0953              3119.1770
 Red. masses --      1.0946                 1.1017                 1.1020
 Frc consts  --      6.2288                 6.2868                 6.3168
 IR Inten    --     20.7802                23.4850                21.2268

                     49                     50                     51
                      A                      A                      A
 Frequencies --   3165.9133              3175.6674              3202.6372
 Red. masses --      1.0898                 1.0909                 1.0955
 Frc consts  --      6.4355                 6.4822                 6.6202
 IR Inten    --     13.5236                18.6252                10.7106

 - Thermochemistry -
 -------------------
 Temperature   298.150 Kelvin.  Pressure   1.00000 Atm.
 Atom     1 has atomic number  6 and mass  12.00000

 Molecular mass:   126.06808 amu.
 Principal axes and moments of inertia in atomic units:
                           1         2         3
     Eigenvalues --   563.187541111.367411277.54504
           X            0.99931   0.03113  -0.02010
           Y           -0.03039   0.99889   0.03612
           Z            0.02120  -0.03549   0.99915
 This molecule is an asymmetric top.
 Rotational symmetry number  1.
 Warning -- assumption of classical behavior for rotation
           may cause significant error
 Rotational temperatures (Kelvin)      0.15379     0.07793     0.06780
 Rotational constants (GHZ):           3.20451     1.62389     1.41266
 Zero-point vibrational energy     423822.8 (Joules/Mol)
                                  101.29608 (Kcal/Mol)
 Warning -- explicit consideration of   8 degrees of freedom as
           vibrations may cause significant error
 Vibrational temperatures:    153.83   285.06   346.71   406.10   517.78
          (Kelvin)            629.16   821.92   891.09   998.74  1041.40
                             1115.20  1154.40  1173.98  1199.20  1290.64
                             1324.01  1363.59  1387.48  1436.09  1472.87
                             1495.65  1527.16  1563.67  1575.84  1600.34
                             1633.86  1652.25  1663.42  1766.42  1815.70
                             1828.25  1881.63  1916.27  1941.77  1958.72
                             2005.69  2019.04  2028.62  2138.00  2153.58
                             2158.60  4297.79  4322.29  4371.64  4453.92
                             4471.47  4477.61  4487.79  4555.04  4569.07
                             4607.87

 Zero-point correction=                           0.161426 (Hartree/Particle)
 Thermal correction to Energy=                    0.168539
 Thermal correction to Enthalpy=                  0.169484
 Thermal correction to Gibbs Free Energy=         0.129999
 Sum of electronic and zero-point Energies=           -423.020951
 Sum of electronic and thermal Energies=              -423.013837
 Sum of electronic and thermal Enthalpies=            -423.012893
 Sum of electronic and thermal Free Energies=         -423.052377

                     E (Thermal)             CV                S
                      KCal/Mol        Cal/Mol-Kelvin    Cal/Mol-Kelvin
 Total                  105.760             28.821             83.102
 Electronic               0.000              0.000              0.000
 Translational            0.889              2.981             40.409
 Rotational               0.889              2.981             28.171
 Vibrational            103.983             22.860             14.522
 Vibration     1          0.606              1.944              3.324
 Vibration     2          0.637              1.843              2.150
 Vibration     3          0.658              1.778              1.796
 Vibration     4          0.681              1.707              1.520
 Vibration     5          0.734              1.555              1.123
 Vibration     6          0.798              1.389              0.835
 Vibration     7          0.927              1.093              0.502
 Vibration     8          0.979              0.991              0.418

 Optimization completed.
    -- Stationary point found.
 Normal termination of Gaussian 09 at Tue Jan 28 04:45:21 2020.
