 Gaussian 09, Revision D.01,
 Gaussian 09:  ES64L-G09RevD.01 24-Apr-2013

 -----------------------------
 # b3lyp 6-31G(2df,p) opt Freq
 -----------------------------

 -----
 titel
 -----
 Symbolic Z-matrix:
 Charge =  0 Multiplicity = 1

 SCF Done:  E(RB3LYP) =  -423.153246109     A.U. after   14 cycles
 Optimization completed.
    -- Stationary point found.
 Normal termination of Gaussian 09 at Mon Jan 27 23:47:02 2020.

 ----------------------------------------------------------------------
 #N Geom=AllCheck Guess=TCheck SCRF=Check GenChk RB3LYP/6-31G(2df,p) Fr
 eq
 ----------------------------------------------------------------------

 Structure from the checkpoint file:  "/scratch/puck/g09_90f156a5-1997-461f-b29c-27c91b493cf5/Gau-77868.chk"
 -----
 titel
 -----
 Charge =  0 Multiplicity = 1

                         Standard orientation:
 ---------------------------------------------------------------------
 Center     Atomic      Atomic             Coordinates (Angstroms)
 Number     Number       Type             X           Y           Z
 ---------------------------------------------------------------------
      1          6           0       -1.834350   -1.241932   -0.552998
      2          6           0       -0.587138   -0.540616   -0.107617
      3          8           0       -0.512896   -0.286798    1.346928
      4          6           0        0.903895   -0.192600    1.112702
      5          6           0        1.175092    0.885476   -0.034103
      6          6           0        1.821511   -0.249246   -0.870557
      7          6           0        0.864415   -1.163212   -0.083472
      8          6           0       -0.263063    0.897423   -0.606457
      9          8           0       -1.139597    1.857200   -0.079781
     10          1           0       -2.704443   -0.598186   -0.389878
     11          1           0       -1.774861   -1.470480   -1.622044
     12          1           0       -1.980543   -2.176240   -0.004216
     13          1           0        1.532556   -0.253783    1.998979
     14          1           0        1.656987    1.845158    0.140452
     15          1           0        1.735901   -0.186660   -1.959445
     16          1           0        2.861702   -0.446562   -0.597798
     17          1           0        0.956377   -2.245082    0.002636
     18          1           0       -0.278082    1.001976   -1.694659
     19          1           0       -1.267820    1.594882    0.843804
 ---------------------------------------------------------------------

 SCF Done:  E(RB3LYP) =  -423.153246109     A.U. after    1 cycles

 The electronic state is 1-A.
 Alpha  occ. eigenvalues --  -19.14310 -19.12739 -10.24308 -10.24049 -10.22832
 Alpha  occ. eigenvalues --  -10.19653 -10.19103 -10.18994 -10.18259  -1.06331
 Alpha  occ. eigenvalues --   -1.00672  -0.85822  -0.76011  -0.69614  -0.65706
 Alpha  occ. eigenvalues --   -0.64432  -0.57792  -0.53188  -0.50213  -0.48911
 Alpha  occ. eigenvalues --   -0.47342  -0.45592  -0.42575  -0.41525  -0.39956
 Alpha  occ. eigenvalues --   -0.37662  -0.36780  -0.35876  -0.33739  -0.33049
 Alpha  occ. eigenvalues --   -0.30799  -0.29289  -0.26800  -0.24017
 Alpha virt. eigenvalues --    0.07566   0.10348   0.10925   0.12061   0.12409
 Alpha virt. eigenvalues --    0.14105   0.14356   0.14847   0.15573   0.16718
 Alpha virt. eigenvalues --    0.17172   0.18164   0.19084   0.20308   0.21621

 Mulliken charges:
               1
     1  C   -0.511907
     2  C    0.368183
     3  O   -0.346241
     4  C    0.108055
     5  C   -0.139644
     6  C   -0.263227
     7  C   -0.117083
     8  C    0.159785
     9  O   -0.459024
    10  H    0.139134
    11  H    0.124905
    12  H    0.128233
    13  H    0.088257
    14  H    0.074494
    15  H    0.099005
    16  H    0.105588
    17  H    0.076684
    18  H    0.081710
    19  H    0.283092
 Sum of Mulliken charges =   0.00000

 Dipole moment (field-independent basis, Debye):
    X=              1.4383    Y=             -1.5192    Z=             -0.4948  Tot=              2.1497
 Quadrupole moment (field-independent basis, Debye-Ang):
   XX=            -51.9831   YY=            -55.8722   ZZ=            -52.6078
   XY=              2.1613   XZ=              1.2311   YZ=              2.1914

  Exact polarizability:  79.949   1.045  71.928   0.704   0.521  69.041
 Approx polarizability: 111.351  -0.895 106.471  -1.228   0.006 110.132

                      1                      2                      3
                      A                      A                      A
 Frequencies --    194.8667               205.4476               242.4854
 Red. masses --      1.1777                 2.7289                 2.6551
 Frc consts  --      0.0263                 0.0679                 0.0920
 IR Inten    --      1.1091                 3.1946                 1.6349

                      4                      5                      6
                      A                      A                      A
 Frequencies --    288.2509               362.3621               423.4962
 Red. masses --      3.0161                 3.6795                 2.1065
 Frc consts  --      0.1477                 0.2847                 0.2226
 IR Inten    --      1.8719                 3.4448                 0.3155

                      7                      8                      9
                      A                      A                      A
 Frequencies --    499.1185               555.7292               598.5507
 Red. masses --      4.5901                 1.1866                 3.7529
 Frc consts  --      0.6737                 0.2159                 0.7922
 IR Inten    --      2.6968                55.3309                14.7349

                     10                     11                     12
                      A                      A                      A
 Frequencies --    634.8315               702.1734               769.0989
 Red. masses --      3.8076                 4.5386                 3.8228
 Frc consts  --      0.9041                 1.3184                 1.3323
 IR Inten    --     10.2286                 0.8193                13.0749

                     13                     14                     15
                      A                      A                      A
 Frequencies --    808.0735               826.7363               838.1082
 Red. masses --      2.3053                 3.8213                 2.6495
 Frc consts  --      0.8869                 1.5388                 1.0965
 IR Inten    --      3.8877                22.1059                13.5287

                     16                     17                     18
                      A                      A                      A
 Frequencies --    859.4797               888.5976               923.4805
 Red. masses --      1.6657                 2.2867                 2.0226
 Frc consts  --      0.7250                 1.0638                 1.0163
 IR Inten    --      6.5953                 6.0359                 0.5049

                     19                     20                     21
                      A                      A                      A
 Frequencies --    960.2838               976.5187              1007.4853
 Red. masses --      2.1404                 2.6992                 2.1910
 Frc consts  --      1.1629                 1.5165                 1.3103
 IR Inten    --      5.2096                33.7044                17.8357

                     22                     23                     24
                      A                      A                      A
 Frequencies --   1026.8505              1042.0542              1101.1203
 Red. masses --      1.4221                 1.5152                 1.8087
 Frc consts  --      0.8835                 0.9694                 1.2920
 IR Inten    --     25.7562                 6.7123                 3.4383

                     25                     26                     27
                      A                      A                      A
 Frequencies --   1123.4937              1140.0751              1161.1703
 Red. masses --      1.9822                 2.4761                 2.3711
 Frc consts  --      1.4742                 1.8962                 1.8836
 IR Inten    --     16.2665                97.1318                10.7969

                     28                     29                     30
                      A                      A                      A
 Frequencies --   1173.9549              1191.1601              1214.8999
 Red. masses --      1.5232                 1.5278                 1.6075
 Frc consts  --      1.2369                 1.2772                 1.3979
 IR Inten    --      9.1288                 2.7381                 1.7109

                     31                     32                     33
                      A                      A                      A
 Frequencies --   1253.8176              1260.8917              1272.4655
 Red. masses --      1.9113                 1.6783                 1.4457
 Frc consts  --      1.7703                 1.5721                 1.3792
 IR Inten    --      5.1373                 4.8871                23.5842

                     34                     35                     36
                      A                      A                      A
 Frequencies --   1288.0917              1326.1978              1354.2058
 Red. masses --      1.8282                 1.6065                 2.1207
 Frc consts  --      1.7872                 1.6647                 2.2914
 IR Inten    --      7.0068                 6.0210                 4.7661

                     37                     38                     39
                      A                      A                      A
 Frequencies --   1411.9648              1450.7708              1478.6355
 Red. masses --      1.6000                 1.2663                 1.0542
 Frc consts  --      1.8793                 1.5703                 1.3580
 IR Inten    --     13.1762                79.2010                 9.9927

                     40                     41                     42
                      A                      A                      A
 Frequencies --   1490.1112              1502.9027              3039.3018
 Red. masses --      1.0482                 1.1107                 1.0349
 Frc consts  --      1.3712                 1.4782                 5.6322
 IR Inten    --      3.9163                 4.8031                14.9200

                     43                     44                     45
                      A                      A                      A
 Frequencies --   3051.0026              3079.8317              3105.0588
 Red. masses --      1.0578                 1.0862                 1.1076
 Frc consts  --      5.8016                 6.0705                 6.2916
 IR Inten    --     36.0142                26.0470                25.4160

                     46                     47                     48
                      A                      A                      A
 Frequencies --   3111.0917              3118.2899              3124.6144
 Red. masses --      1.1005                 1.1021                 1.0894
 Frc consts  --      6.2759                 6.3140                 6.2668
 IR Inten    --     13.5680                 9.9951                31.0612

                     49                     50                     51
                      A                      A                      A
 Frequencies --   3137.9415              3146.9079              3727.8591
 Red. masses --      1.0908                 1.0939                 1.0640
 Frc consts  --      6.3281                 6.3828                 8.7121
 IR Inten    --     34.7775                33.9798                34.3708

 - Thermochemistry -
 -------------------
 Temperature   298.150 Kelvin.  Pressure   1.00000 Atm.
 Atom     1 has atomic number  6 and mass  12.00000

 Molecular mass:   126.06808 amu.
 Principal axes and moments of inertia in atomic units:
                           1         2         3
     Eigenvalues --   750.09017 912.255351120.63324
           X            0.99367   0.11108   0.01682
           Y           -0.11176   0.99260   0.04742
           Z           -0.01143  -0.04900   0.99873
 This molecule is an asymmetric top.
 Rotational symmetry number  1.
 Warning -- assumption of classical behavior for rotation
           may cause significant error
 Rotational temperatures (Kelvin)      0.11547     0.09494     0.07729
 Rotational constants (GHZ):           2.40603     1.97833     1.61047
 Zero-point vibrational energy     421515.6 (Joules/Mol)
                                  100.74465 (Kcal/Mol)
 Warning -- explicit consideration of   9 degrees of freedom as
           vibrations may cause significant error
 Vibrational temperatures:    280.37   295.59   348.88   414.73   521.36
          (Kelvin)            609.32   718.12   799.57   861.18   913.38
                             1010.27  1106.56  1162.64  1189.49  1205.85
                             1236.60  1278.49  1328.68  1381.63  1404.99
                             1449.54  1477.41  1499.28  1584.26  1616.45
                             1640.31  1670.66  1689.06  1713.81  1747.97
                             1803.96  1814.14  1830.79  1853.27  1908.10
                             1948.40  2031.50  2087.33  2127.42  2143.94
                             2162.34  4372.87  4389.71  4431.19  4467.48
                             4476.16  4486.52  4495.62  4514.79  4527.69
                             5363.55

 Zero-point correction=                           0.160547 (Hartree/Particle)
 Thermal correction to Energy=                    0.167786
 Thermal correction to Enthalpy=                  0.168731
 Thermal correction to Gibbs Free Energy=         0.129439
 Sum of electronic and zero-point Energies=           -422.992699
 Sum of electronic and thermal Energies=              -422.985460
 Sum of electronic and thermal Enthalpies=            -422.984515
 Sum of electronic and thermal Free Energies=         -423.023807

                     E (Thermal)             CV                S
                      KCal/Mol        Cal/Mol-Kelvin    Cal/Mol-Kelvin
 Total                  105.288             30.224             82.696
 Electronic               0.000              0.000              0.000
 Translational            0.889              2.981             40.409
 Rotational               0.889              2.981             28.130
 Vibrational            103.510             24.262             14.158
 Vibration     1          0.636              1.847              2.181
 Vibration     2          0.640              1.832              2.084
 Vibration     3          0.659              1.775              1.785
 Vibration     4          0.685              1.696              1.484
 Vibration     5          0.736              1.550              1.112
 Vibration     6          0.786              1.419              0.880
 Vibration     7          0.855              1.252              0.660
 Vibration     8          0.911              1.127              0.532
 Vibration     9          0.957              1.035              0.452

 Optimization completed.
    -- Stationary point found.
 Normal termination of Gaussian 09 at Tue Jan 28 00:34:37 2020.
