 Gaussian 09, Revision D.01,
 Gaussian 09:  ES64L-G09RevD.01 24-Apr-2013

 -----------------------------
 # b3lyp 6-31G(2df,p) opt Freq
 -----------------------------

 -----
 titel
 -----
 Symbolic Z-matrix:
 Charge =  0 Multiplicity = 1

 SCF Done:  E(RB3LYP) =  -423.225102271     A.U. after   14 cycles
 Optimization completed.
    -- Stationary point found.
 Normal termination of Gaussian 09 at Mon Jan 27 17:38:37 2020.

 ----------------------------------------------------------------------
 #N Geom=AllCheck Guess=TCheck SCRF=Check GenChk RB3LYP/6-31G(2df,p) Fr
 eq
 ----------------------------------------------------------------------

 Structure from the checkpoint file:  "/scratch/puck/g09_4fef8517-134e-46f7-8ee2-2faf80574d00/Gau-87251.chk"
 -----
 titel
 -----
 Charge =  0 Multiplicity = 1

                         Standard orientation:
 ---------------------------------------------------------------------
 Center     Atomic      Atomic             Coordinates (Angstroms)
 Number     Number       Type             X           Y           Z
 ---------------------------------------------------------------------
      1          6           0        2.704536    0.285383   -0.351990
      2          6           0        1.257765    0.102355    0.051347
      3          6           0        0.904934   -0.811701    1.199612
      4          6           0        0.541293   -1.191715   -0.220604
      5          6           0       -0.894032   -1.085680   -0.696647
      6          6           0       -1.669155    0.068978   -0.079013
      7          8           0       -2.846465    0.034597    0.149534
      8          8           0       -0.965666    1.186961    0.240718
      9          6           0        0.402122    1.336535   -0.161883
     10          1           0        3.263556   -0.646532   -0.227555
     11          1           0        2.792608    0.588653   -1.402108
     12          1           0        3.195568    1.051960    0.258934
     13          1           0        1.716791   -1.354059    1.671602
     14          1           0        0.111325   -0.518386    1.878699
     15          1           0        1.111219   -1.998407   -0.672482
     16          1           0       -0.911982   -0.943182   -1.786548
     17          1           0       -1.472041   -1.990345   -0.491741
     18          1           0        0.432653    1.630520   -1.221266
     19          1           0        0.772583    2.182382    0.425522
 ---------------------------------------------------------------------

 SCF Done:  E(RB3LYP) =  -423.225102271     A.U. after    1 cycles

 The electronic state is 1-A.
 Alpha  occ. eigenvalues --  -19.17832 -19.11495 -10.30291 -10.25013 -10.21171
 Alpha  occ. eigenvalues --  -10.20573 -10.20402 -10.19406 -10.19364  -1.09345
 Alpha  occ. eigenvalues --   -1.01257  -0.88614  -0.77307  -0.72488  -0.71090
 Alpha  occ. eigenvalues --   -0.60715  -0.59790  -0.52859  -0.50635  -0.50157
 Alpha  occ. eigenvalues --   -0.47958  -0.44830  -0.43557  -0.42790  -0.41574
 Alpha  occ. eigenvalues --   -0.40671  -0.39237  -0.38604  -0.37079  -0.33652
 Alpha  occ. eigenvalues --   -0.30312  -0.28546  -0.27877  -0.26064
 Alpha virt. eigenvalues --    0.01504   0.07492   0.09468   0.10545   0.11078
 Alpha virt. eigenvalues --    0.13063   0.13808   0.14135   0.15462   0.16686
 Alpha virt. eigenvalues --    0.18146   0.18547   0.18782   0.19394   0.20852

 Mulliken charges:
               1
     1  C   -0.470291
     2  C    0.306472
     3  C   -0.336980
     4  C   -0.069413
     5  C   -0.361146
     6  C    0.399811
     7  O   -0.324318
     8  O   -0.225015
     9  C   -0.132687
    10  H    0.123168
    11  H    0.119798
    12  H    0.123357
    13  H    0.113547
    14  H    0.134628
    15  H    0.089801
    16  H    0.133162
    17  H    0.140209
    18  H    0.110409
    19  H    0.125488
 Sum of Mulliken charges =   0.00000

 Dipole moment (field-independent basis, Debye):
    X=              4.2721    Y=             -0.7722    Z=             -1.2009  Tot=              4.5043
 Quadrupole moment (field-independent basis, Debye-Ang):
   XX=            -63.2890   YY=            -51.6581   ZZ=            -51.4030
   XY=              2.1024   XZ=              1.9082   YZ=             -0.3595

  Exact polarizability:  88.640   4.904  71.961  -0.350  -0.177  65.221
 Approx polarizability: 122.205   8.087 106.571  -2.577   0.747 101.065

                      1                      2                      3
                      A                      A                      A
 Frequencies --     86.9009               182.6733               202.9934
 Red. masses --      4.8687                 2.3349                 1.8734
 Frc consts  --      0.0217                 0.0459                 0.0455
 IR Inten    --      2.4563                 2.2506                 1.1522

                      4                      5                      6
                      A                      A                      A
 Frequencies --    227.1152               290.2823               343.5904
 Red. masses --      1.3477                 2.5478                 2.5699
 Frc consts  --      0.0410                 0.1265                 0.1788
 IR Inten    --      0.4538                 0.4414                 0.2680

                      7                      8                      9
                      A                      A                      A
 Frequencies --    371.7398               435.8164               486.1043
 Red. masses --      3.0106                 3.6753                 3.7083
 Frc consts  --      0.2451                 0.4113                 0.5163
 IR Inten    --      1.6371                 2.4752                 3.2759

                     10                     11                     12
                      A                      A                      A
 Frequencies --    532.2303               604.3249               687.7071
 Red. masses --      2.7892                 3.9165                 3.5542
 Frc consts  --      0.4655                 0.8427                 0.9904
 IR Inten    --      4.7326                 2.3287                 2.8551

                     13                     14                     15
                      A                      A                      A
 Frequencies --    742.4623               768.0651               829.8422
 Red. masses --      4.0066                 4.1599                 2.1386
 Frc consts  --      1.3013                 1.4459                 0.8677
 IR Inten    --      5.7918                 1.9674                11.9020

                     16                     17                     18
                      A                      A                      A
 Frequencies --    891.7586               908.7482               943.5610
 Red. masses --      1.4771                 2.0944                 1.9986
 Frc consts  --      0.6921                 1.0190                 1.0484
 IR Inten    --      4.4661                 3.6321                 5.3216

                     19                     20                     21
                      A                      A                      A
 Frequencies --    980.9113              1031.3415              1056.3447
 Red. masses --      1.5730                 1.7849                 1.3870
 Frc consts  --      0.8918                 1.1186                 0.9119
 IR Inten    --      4.8870                12.2877                 2.1074

                     22                     23                     24
                      A                      A                      A
 Frequencies --   1069.4147              1082.7693              1102.7750
 Red. masses --      1.5941                 1.7160                 2.8898
 Frc consts  --      1.0741                 1.1853                 2.0706
 IR Inten    --      1.8120                31.6081                83.9040

                     25                     26                     27
                      A                      A                      A
 Frequencies --   1120.9185              1151.0633              1192.9144
 Red. masses --      2.0406                 1.9287                 2.3395
 Frc consts  --      1.5106                 1.5056                 1.9615
 IR Inten    --      0.3448                 3.6174               127.4552

                     28                     29                     30
                      A                      A                      A
 Frequencies --   1239.3524              1251.0803              1289.3370
 Red. masses --      1.3810                 2.0293                 1.2065
 Frc consts  --      1.2498                 1.8714                 1.1817
 IR Inten    --     29.7791                 1.0114                28.9222

                     31                     32                     33
                      A                      A                      A
 Frequencies --   1333.2489              1338.3612              1410.2754
 Red. masses --      1.8612                 2.2949                 1.6633
 Frc consts  --      1.9493                 2.4219                 1.9491
 IR Inten    --      1.0001                 8.6612                26.1490

                     34                     35                     36
                      A                      A                      A
 Frequencies --   1421.8705              1435.0257              1466.5168
 Red. masses --      1.3584                 1.4639                 1.0797
 Frc consts  --      1.6180                 1.7761                 1.3681
 IR Inten    --     10.5927                 4.4793                 5.4646

                     37                     38                     39
                      A                      A                      A
 Frequencies --   1490.9157              1497.1268              1505.3608
 Red. masses --      1.0469                 1.1115                 1.2268
 Frc consts  --      1.3711                 1.4679                 1.6380
 IR Inten    --      3.5910                 8.9386                 1.5793

                     40                     41                     42
                      A                      A                      A
 Frequencies --   1518.3073              1850.6362              2999.9143
 Red. masses --      1.2445                12.3046                 1.0679
 Frc consts  --      1.6903                24.8289                 5.6625
 IR Inten    --      1.8280               347.9252                42.9629

                     43                     44                     45
                      A                      A                      A
 Frequencies --   3019.2195              3023.3291              3076.5578
 Red. masses --      1.0683                 1.0376                 1.0958
 Frc consts  --      5.7376                 5.5877                 6.1109
 IR Inten    --     15.8219                38.4353                15.6988

                     46                     47                     48
                      A                      A                      A
 Frequencies --   3081.6337              3098.2551              3106.5553
 Red. masses --      1.1004                 1.0920                 1.0997
 Frc consts  --      6.1568                 6.1758                 6.2531
 IR Inten    --     35.9459                 9.3651                17.4704

                     49                     50                     51
                      A                      A                      A
 Frequencies --   3134.4839              3147.4860              3219.6207
 Red. masses --      1.0546                 1.0893                 1.1165
 Frc consts  --      6.1049                 6.3581                 6.8188
 IR Inten    --      8.6026                15.1993                 6.4824

 - Thermochemistry -
 -------------------
 Temperature   298.150 Kelvin.  Pressure   1.00000 Atm.
 Atom     1 has atomic number  6 and mass  12.00000

 Molecular mass:   126.06808 amu.
 Principal axes and moments of inertia in atomic units:
                           1         2         3
     Eigenvalues --   519.445371380.407961607.60999
           X            0.99984   0.01770   0.00153
           Y           -0.01768   0.99979  -0.01037
           Z           -0.00172   0.01034   0.99995
 This molecule is an asymmetric top.
 Rotational symmetry number  1.
 Warning -- assumption of classical behavior for rotation
           may cause significant error
 Rotational temperatures (Kelvin)      0.16674     0.06275     0.05388
 Rotational constants (GHZ):           3.47436     1.30740     1.12262
 Zero-point vibrational energy     420360.8 (Joules/Mol)
                                  100.46864 (Kcal/Mol)
 Warning -- explicit consideration of  11 degrees of freedom as
           vibrations may cause significant error
 Vibrational temperatures:    125.03   262.83   292.06   326.77   417.65
          (Kelvin)            494.35   534.85   627.04   699.39   765.76
                              869.49   989.46  1068.24  1105.07  1193.96
                             1283.04  1307.48  1357.57  1411.31  1483.87
                             1519.84  1538.65  1557.86  1586.65  1612.75
                             1656.12  1716.34  1783.15  1800.02  1855.07
                             1918.25  1925.60  2029.07  2045.75  2064.68
                             2109.99  2145.09  2154.03  2165.88  2184.50
                             2662.65  4316.20  4343.98  4349.89  4426.47
                             4433.78  4457.69  4469.63  4509.82  4528.52
                             4632.31

 Zero-point correction=                           0.160107 (Hartree/Particle)
 Thermal correction to Energy=                    0.168246
 Thermal correction to Enthalpy=                  0.169190
 Thermal correction to Gibbs Free Energy=         0.127597
 Sum of electronic and zero-point Energies=           -423.064995
 Sum of electronic and thermal Energies=              -423.056856
 Sum of electronic and thermal Enthalpies=            -423.055912
 Sum of electronic and thermal Free Energies=         -423.097505

                     E (Thermal)             CV                S
                      KCal/Mol        Cal/Mol-Kelvin    Cal/Mol-Kelvin
 Total                  105.576             31.578             87.539
 Electronic               0.000              0.000              0.000
 Translational            0.889              2.981             40.409
 Rotational               0.889              2.981             28.535
 Vibrational            103.798             25.617             18.595
 Vibration     1          0.601              1.958              3.729
 Vibration     2          0.630              1.863              2.301
 Vibration     3          0.639              1.836              2.106
 Vibration     4          0.651              1.800              1.902
 Vibration     5          0.686              1.692              1.472
 Vibration     6          0.722              1.588              1.195
 Vibration     7          0.743              1.530              1.073
 Vibration     8          0.796              1.392              0.840
 Vibration     9          0.842              1.281              0.694
 Vibration    10          0.887              1.179              0.582
 Vibration    11          0.963              1.023              0.442

 Optimization completed.
    -- Stationary point found.
 Normal termination of Gaussian 09 at Mon Jan 27 18:19:56 2020.
