 Gaussian 09, Revision D.01,
 Gaussian 09:  ES64L-G09RevD.01 24-Apr-2013

 -----------------------------
 # b3lyp 6-31G(2df,p) opt Freq
 -----------------------------

 -----
 titel
 -----
 Symbolic Z-matrix:
 Charge =  0 Multiplicity = 1

 SCF Done:  E(RB3LYP) =  -423.201632546     A.U. after   14 cycles
 SCF Done:  E(RB3LYP) =  -423.201632508     A.U. after    7 cycles
 SCF Done:  E(RB3LYP) =  -423.201632753     A.U. after    7 cycles
 Optimization completed.
    -- Stationary point found.
 Normal termination of Gaussian 09 at Tue Jan 28 04:17:21 2020.

 ----------------------------------------------------------------------
 #N Geom=AllCheck Guess=TCheck SCRF=Check GenChk RB3LYP/6-31G(2df,p) Fr
 eq
 ----------------------------------------------------------------------

 Structure from the checkpoint file:  "/scratch/puck/g09_84568c3b-22f2-4544-80a8-338ff72dc6f6/Gau-4209.chk"
 -----
 titel
 -----
 Charge =  0 Multiplicity = 1

                         Standard orientation:
 ---------------------------------------------------------------------
 Center     Atomic      Atomic             Coordinates (Angstroms)
 Number     Number       Type             X           Y           Z
 ---------------------------------------------------------------------
      1          6           0       -2.691205    0.360569    0.321087
      2          6           0       -1.438710   -0.159393   -0.375291
      3          6           0       -0.874793   -1.506612    0.098354
      4          8           0        0.516972   -1.484598   -0.244129
      5          6           0        0.959704   -0.165929   -0.066887
      6          6           0        2.332067    0.220464   -0.526414
      7          6           0        2.042583    0.158729    0.949542
      8          6           0       -0.214827    0.747718   -0.197334
      9          8           0       -0.201906    1.953184   -0.143846
     10          1           0       -2.566826    0.352696    1.409034
     11          1           0       -2.883993    1.392286    0.015531
     12          1           0       -3.567588   -0.245916    0.074801
     13          1           0       -1.608968   -0.216108   -1.460394
     14          1           0       -1.000887   -1.613232    1.187748
     15          1           0       -1.318071   -2.375745   -0.391442
     16          1           0        2.927859   -0.575218   -0.959104
     17          1           0        2.432138    1.195067   -0.991894
     18          1           0        2.433412   -0.685915    1.505135
     19          1           0        1.943485    1.090126    1.496050
 ---------------------------------------------------------------------

 SCF Done:  E(RB3LYP) =  -423.201632753     A.U. after    1 cycles

 The electronic state is 1-A.
 Alpha  occ. eigenvalues --  -19.15287 -19.13373 -10.26814 -10.24509 -10.23843
 Alpha  occ. eigenvalues --  -10.20150 -10.19696 -10.19599 -10.18571  -1.05921
 Alpha  occ. eigenvalues --   -1.03768  -0.86045  -0.80114  -0.68990  -0.68670
 Alpha  occ. eigenvalues --   -0.61366  -0.58610  -0.53867  -0.51173  -0.48653
 Alpha  occ. eigenvalues --   -0.46564  -0.44833  -0.43047  -0.42572  -0.40466
 Alpha  occ. eigenvalues --   -0.39175  -0.37767  -0.37243  -0.36492  -0.34281
 Alpha  occ. eigenvalues --   -0.32140  -0.31933  -0.25166  -0.23664
 Alpha virt. eigenvalues --   -0.02189   0.09387   0.09755   0.11412   0.12191
 Alpha virt. eigenvalues --    0.12261   0.13944   0.15513   0.17052   0.17217
 Alpha virt. eigenvalues --    0.17441   0.18334   0.20362   0.21562   0.22338

 Mulliken charges:
               1
     1  C   -0.407785
     2  C   -0.106676
     3  C   -0.119228
     4  O   -0.296493
     5  C    0.335434
     6  C   -0.319516
     7  C   -0.315830
     8  C    0.322669
     9  O   -0.339384
    10  H    0.122372
    11  H    0.143724
    12  H    0.118202
    13  H    0.114364
    14  H    0.097498
    15  H    0.116816
    16  H    0.132705
    17  H    0.137143
    18  H    0.128829
    19  H    0.135156
 Sum of Mulliken charges =   0.00000

 Dipole moment (field-independent basis, Debye):
    X=             -0.6366    Y=             -1.6011    Z=              0.2431  Tot=              1.7400
 Quadrupole moment (field-independent basis, Debye-Ang):
   XX=            -48.8455   YY=            -59.6112   ZZ=            -51.3702
   XY=              2.4769   XZ=              0.5327   YZ=             -0.3274

  Exact polarizability:  92.601   2.055  73.810   0.838  -0.224  63.969
 Approx polarizability: 116.574   1.215 116.326   1.877   0.970  98.581

                      1                      2                      3
                      A                      A                      A
 Frequencies --     67.1305               160.1931               193.0949
 Red. masses --      4.0122                 2.4863                 1.0844
 Frc consts  --      0.0107                 0.0376                 0.0238
 IR Inten    --      2.6225                 2.3972                 1.0423

                      4                      5                      6
                      A                      A                      A
 Frequencies --    212.6889               222.4004               256.6939
 Red. masses --      3.0621                 2.3554                 3.9795
 Frc consts  --      0.0816                 0.0686                 0.1545
 IR Inten    --      1.7702                 0.7538                 5.6212

                      7                      8                      9
                      A                      A                      A
 Frequencies --    356.3813               437.4832               470.1134
 Red. masses --      2.5742                 3.2461                 4.0883
 Frc consts  --      0.1926                 0.3660                 0.5323
 IR Inten    --      2.3809                 4.5850                 5.3773

                     10                     11                     12
                      A                      A                      A
 Frequencies --    515.3832               616.3324               682.6263
 Red. masses --      4.0208                 4.6434                 5.9531
 Frc consts  --      0.6292                 1.0392                 1.6344
 IR Inten    --      5.5493                 8.7863                 0.6907

                     13                     14                     15
                      A                      A                      A
 Frequencies --    735.8756               774.2249               837.2694
 Red. masses --      3.1859                 1.1191                 2.5385
 Frc consts  --      1.0165                 0.3952                 1.0485
 IR Inten    --      5.9427                 0.5384                 2.1381

                     16                     17                     18
                      A                      A                      A
 Frequencies --    879.6747               904.1231               937.4442
 Red. masses --      2.3008                 1.6796                 1.7695
 Frc consts  --      1.0490                 0.8089                 0.9162
 IR Inten    --      4.9447                 6.9404                 7.0259

                     19                     20                     21
                      A                      A                      A
 Frequencies --    947.2057               966.1314              1021.2962
 Red. masses --      1.9661                 1.6834                 3.3409
 Frc consts  --      1.0393                 0.9258                 2.0531
 IR Inten    --      1.3720                20.6775                71.8719

                     22                     23                     24
                      A                      A                      A
 Frequencies --   1044.2161              1056.6263              1083.2891
 Red. masses --      2.2906                 1.7958                 1.3757
 Frc consts  --      1.4716                 1.1813                 0.9512
 IR Inten    --     11.6635                21.6415                 4.4148

                     25                     26                     27
                      A                      A                      A
 Frequencies --   1105.0177              1144.1406              1158.1944
 Red. masses --      1.9243                 2.2289                 2.0817
 Frc consts  --      1.3844                 1.7191                 1.6452
 IR Inten    --     34.0418                23.6863                 4.5065

                     28                     29                     30
                      A                      A                      A
 Frequencies --   1201.7838              1230.2452              1268.8500
 Red. masses --      1.2757                 1.3481                 2.2725
 Frc consts  --      1.0855                 1.2022                 2.1557
 IR Inten    --      0.1937                 3.6329                80.4799

                     31                     32                     33
                      A                      A                      A
 Frequencies --   1297.0697              1327.2839              1349.5262
 Red. masses --      1.3399                 1.7847                 3.0116
 Frc consts  --      1.3282                 1.8525                 3.2315
 IR Inten    --      0.3678                25.6514                29.0833

                     34                     35                     36
                      A                      A                      A
 Frequencies --   1394.0056              1411.5130              1441.4713
 Red. masses --      1.5112                 1.2333                 1.0915
 Frc consts  --      1.7302                 1.4477                 1.3363
 IR Inten    --      9.0123                 8.0420                 2.7458

                     37                     38                     39
                      A                      A                      A
 Frequencies --   1476.4011              1496.1422              1497.5528
 Red. masses --      1.4250                 1.0491                 1.0481
 Frc consts  --      1.8302                 1.3835                 1.3849
 IR Inten    --      8.5394                 7.6387                 3.9948

                     40                     41                     42
                      A                      A                      A
 Frequencies --   1516.6947              1837.4754              2978.5662
 Red. masses --      1.1088                12.4491                 1.0712
 Frc consts  --      1.5028                24.7646                 5.5992
 IR Inten    --      2.7400               143.5640                46.4147

                     43                     44                     45
                      A                      A                      A
 Frequencies --   3011.2300              3040.4507              3106.6053
 Red. masses --      1.0804                 1.0355                 1.0987
 Frc consts  --      5.7722                 5.6400                 6.2477
 IR Inten    --     17.5156                27.4129                 6.8925

                     46                     47                     48
                      A                      A                      A
 Frequencies --   3110.2312              3123.4857              3136.5353
 Red. masses --      1.0968                 1.1014                 1.0521
 Frc consts  --      6.2514                 6.3310                 6.0984
 IR Inten    --     43.9771                10.2127                 7.7631

                     49                     50                     51
                      A                      A                      A
 Frequencies --   3137.5488              3227.0088              3241.5658
 Red. masses --      1.0537                 1.1195                 1.1172
 Frc consts  --      6.1117                 6.8690                 6.9164
 IR Inten    --      5.8234                 0.0440                 3.1508

 - Thermochemistry -
 -------------------
 Temperature   298.150 Kelvin.  Pressure   1.00000 Atm.
 Atom     1 has atomic number  6 and mass  12.00000

 Molecular mass:   126.06808 amu.
 Principal axes and moments of inertia in atomic units:
                           1         2         3
     Eigenvalues --   636.823451219.553571633.88522
           X            0.99985   0.01676  -0.00340
           Y           -0.01677   0.99986  -0.00205
           Z            0.00336   0.00210   0.99999
 This molecule is an asymmetric top.
 Rotational symmetry number  1.
 Warning -- assumption of classical behavior for rotation
           may cause significant error
 Rotational temperatures (Kelvin)      0.13601     0.07102     0.05301
 Rotational constants (GHZ):           2.83397     1.47984     1.10457
 Zero-point vibrational energy     416566.6 (Joules/Mol)
                                   99.56180 (Kcal/Mol)
 Warning -- explicit consideration of  11 degrees of freedom as
           vibrations may cause significant error
 Vibrational temperatures:     96.59   230.48   277.82   306.01   319.98
          (Kelvin)            369.32   512.75   629.44   676.39   741.52
                              886.76   982.15  1058.76  1113.94  1204.64
                             1265.65  1300.83  1348.77  1362.82  1390.05
                             1469.42  1502.39  1520.25  1558.61  1589.87
                             1646.16  1666.38  1729.10  1770.05  1825.59
                             1866.19  1909.66  1941.66  2005.66  2030.85
                             2073.95  2124.21  2152.61  2154.64  2182.18
                             2643.71  4285.49  4332.48  4374.52  4469.71
                             4474.92  4493.99  4512.77  4514.23  4642.94
                             4663.88

 Zero-point correction=                           0.158662 (Hartree/Particle)
 Thermal correction to Energy=                    0.167198
 Thermal correction to Enthalpy=                  0.168142
 Thermal correction to Gibbs Free Energy=         0.125474
 Sum of electronic and zero-point Energies=           -423.042971
 Sum of electronic and thermal Energies=              -423.034435
 Sum of electronic and thermal Enthalpies=            -423.033490
 Sum of electronic and thermal Free Energies=         -423.076158

                     E (Thermal)             CV                S
                      KCal/Mol        Cal/Mol-Kelvin    Cal/Mol-Kelvin
 Total                  104.918             32.417             89.802
 Electronic               0.000              0.000              0.000
 Translational            0.889              2.981             40.409
 Rotational               0.889              2.981             28.630
 Vibrational            103.141             26.455             20.764
 Vibration     1          0.598              1.970              4.236
 Vibration     2          0.622              1.891              2.548
 Vibration     3          0.635              1.849              2.198
 Vibration     4          0.644              1.822              2.020
 Vibration     5          0.648              1.807              1.939
 Vibration     6          0.666              1.751              1.684
 Vibration     7          0.732              1.562              1.138
 Vibration     8          0.798              1.388              0.835
 Vibration     9          0.827              1.316              0.737
 Vibration    10          0.870              1.216              0.621
 Vibration    11          0.976              0.997              0.422

 Normal termination of Gaussian 09 at Tue Jan 28 04:55:55 2020.
