 Gaussian 09, Revision D.01,
 Gaussian 09:  ES64L-G09RevD.01 24-Apr-2013

 -----------------------------
 # b3lyp 6-31G(2df,p) opt Freq
 -----------------------------

 -----
 titel
 -----
 Symbolic Z-matrix:
 Charge =  0 Multiplicity = 1

 SCF Done:  E(RB3LYP) =  -423.167320700     A.U. after   14 cycles
 Optimization completed.
    -- Stationary point found.
 Normal termination of Gaussian 09 at Mon Jan 27 16:24:39 2020.

 ----------------------------------------------------------------------
 #N Geom=AllCheck Guess=TCheck SCRF=Check GenChk RB3LYP/6-31G(2df,p) Fr
 eq
 ----------------------------------------------------------------------

 Structure from the checkpoint file:  "/scratch/puck/g09_cbc468da-afb6-4fc6-a488-fd6809b5c738/Gau-37079.chk"
 -----
 titel
 -----
 Charge =  0 Multiplicity = 1

                         Standard orientation:
 ---------------------------------------------------------------------
 Center     Atomic      Atomic             Coordinates (Angstroms)
 Number     Number       Type             X           Y           Z
 ---------------------------------------------------------------------
      1          8           0        1.740008    1.526627   -0.051793
      2          6           0        1.235845    0.218221   -0.006513
      3          6           0        2.080722   -0.857312   -0.672759
      4          6           0        2.079885   -0.712298    0.828369
      5          6           0       -0.237759    0.118847    0.002678
      6          6           0       -1.107208    1.126012    0.079147
      7          6           0       -2.512326    0.603211    0.048249
      8          8           0       -2.381415   -0.816102   -0.018864
      9          6           0       -1.009023   -1.177295   -0.095719
     10          1           0        1.483758    1.904369   -0.901322
     11          1           0        1.589353   -1.716217   -1.115576
     12          1           0        2.954942   -0.502522   -1.206377
     13          1           0        1.582296   -1.465921    1.427225
     14          1           0        2.948529   -0.258304    1.290370
     15          1           0       -0.859279    2.174872    0.169558
     16          1           0       -3.088063    0.877787    0.946229
     17          1           0       -3.082212    0.969184   -0.821859
     18          1           0       -0.766759   -1.877858    0.719214
     19          1           0       -0.812119   -1.705911   -1.042922
 ---------------------------------------------------------------------

 SCF Done:  E(RB3LYP) =  -423.167320700     A.U. after    1 cycles

 The electronic state is 1-A.
 Alpha  occ. eigenvalues --  -19.14784 -19.13200 -10.25098 -10.23140 -10.22755
 Alpha  occ. eigenvalues --  -10.19225 -10.19195 -10.19112 -10.17914  -1.03619
 Alpha  occ. eigenvalues --   -1.03000  -0.85533  -0.78719  -0.73432  -0.62815
 Alpha  occ. eigenvalues --   -0.61155  -0.59442  -0.55775  -0.52341  -0.49590
 Alpha  occ. eigenvalues --   -0.47593  -0.45432  -0.43640  -0.41252  -0.40813
 Alpha  occ. eigenvalues --   -0.39696  -0.37172  -0.36206  -0.34573  -0.31613
 Alpha  occ. eigenvalues --   -0.30736  -0.27758  -0.25333  -0.22298
 Alpha virt. eigenvalues --    0.01849   0.07617   0.09046   0.10725   0.11063
 Alpha virt. eigenvalues --    0.13027   0.13920   0.14948   0.16451   0.16962
 Alpha virt. eigenvalues --    0.18065   0.18856   0.20728   0.21985   0.23963

 Mulliken charges:
               1
     1  O   -0.456840
     2  C    0.308069
     3  C   -0.330189
     4  C   -0.296057
     5  C    0.269172
     6  C   -0.256427
     7  C   -0.102101
     8  O   -0.268209
     9  C   -0.162546
    10  H    0.281705
    11  H    0.119369
    12  H    0.121219
    13  H    0.122267
    14  H    0.132621
    15  H    0.103280
    16  H    0.106231
    17  H    0.101012
    18  H    0.105607
    19  H    0.101815
 Sum of Mulliken charges =   0.00000

 Dipole moment (field-independent basis, Debye):
    X=              0.9254    Y=              0.4276    Z=             -1.0326  Tot=              1.4510
 Quadrupole moment (field-independent basis, Debye-Ang):
   XX=            -57.2155   YY=            -51.7639   ZZ=            -51.6826
   XY=             -5.0147   XZ=             -1.7530   YZ=             -2.6048

  Exact polarizability:  96.059 -13.049  80.433  -0.572  -0.133  61.071
 Approx polarizability: 128.154 -22.236 125.581  -0.608   0.415  94.001

                      1                      2                      3
                      A                      A                      A
 Frequencies --     67.3280                97.6378               162.2643
 Red. masses --      3.0952                 2.9093                 2.5912
 Frc consts  --      0.0083                 0.0163                 0.0402
 IR Inten    --      0.6851                 6.2833                 1.6096

                      4                      5                      6
                      A                      A                      A
 Frequencies --    184.8870               307.3984               320.0944
 Red. masses --      3.9755                 1.9731                 2.2951
 Frc consts  --      0.0801                 0.1099                 0.1386
 IR Inten    --      1.1966                 8.3114                12.2253

                      7                      8                      9
                      A                      A                      A
 Frequencies --    353.3722               410.1788               447.6886
 Red. masses --      1.5675                 2.6033                 3.8485
 Frc consts  --      0.1153                 0.2581                 0.4545
 IR Inten    --     77.3955                 3.8195                12.0865

                     10                     11                     12
                      A                      A                      A
 Frequencies --    518.9658               565.6756               772.8414
 Red. masses --      3.8436                 2.5997                 1.1269
 Frc consts  --      0.6099                 0.4901                 0.3966
 IR Inten    --      8.2069                 5.9315                 2.1277

                     13                     14                     15
                      A                      A                      A
 Frequencies --    773.8425               817.8306               835.7829
 Red. masses --      5.8278                 1.5498                 3.3679
 Frc consts  --      2.0562                 0.6107                 1.3861
 IR Inten    --      6.7809                16.4004                 3.8281

                     16                     17                     18
                      A                      A                      A
 Frequencies --    896.2321               917.7149               923.1932
 Red. masses --      2.8439                 2.0806                 1.5737
 Frc consts  --      1.3459                 1.0324                 0.7902
 IR Inten    --      6.7781                18.6356                 3.5568

                     19                     20                     21
                      A                      A                      A
 Frequencies --    927.7773               979.4192               998.9901
 Red. masses --      2.8289                 2.1753                 2.1194
 Frc consts  --      1.4347                 1.2294                 1.2462
 IR Inten    --     13.2819                16.6428                 2.9465

                     22                     23                     24
                      A                      A                      A
 Frequencies --   1028.3095              1051.5943              1065.1042
 Red. masses --      1.5869                 1.5511                 1.6937
 Frc consts  --      0.9886                 1.0106                 1.1320
 IR Inten    --     11.5339                10.5827                 0.8546

                     25                     26                     27
                      A                      A                      A
 Frequencies --   1075.1947              1082.5596              1136.2554
 Red. masses --      1.9269                 2.1229                 4.4938
 Frc consts  --      1.3125                 1.4658                 3.4184
 IR Inten    --     14.2374                35.3021                43.1297

                     28                     29                     30
                      A                      A                      A
 Frequencies --   1176.5987              1193.4143              1232.4282
 Red. masses --      1.0898                 1.2717                 1.0658
 Frc consts  --      0.8889                 1.0671                 0.9538
 IR Inten    --      1.2893                 0.3933                 0.7782

                     31                     32                     33
                      A                      A                      A
 Frequencies --   1242.1413              1275.1986              1334.2832
 Red. masses --      2.2766                 1.6212                 1.8040
 Frc consts  --      2.0695                 1.5532                 1.8922
 IR Inten    --     85.1901                13.5233                11.4299

                     34                     35                     36
                      A                      A                      A
 Frequencies --   1371.1019              1385.2470              1399.3017
 Red. masses --      1.6286                 2.4545                 1.5632
 Frc consts  --      1.8039                 2.7751                 1.8034
 IR Inten    --     24.0103                13.7303                 6.6755

                     37                     38                     39
                      A                      A                      A
 Frequencies --   1451.3684              1489.1763              1517.9156
 Red. masses --      1.0900                 1.3931                 1.0821
 Frc consts  --      1.3528                 1.8202                 1.4689
 IR Inten    --      3.1073                 4.1709                 3.8522

                     40                     41                     42
                      A                      A                      A
 Frequencies --   1530.7610              1715.2863              2960.4812
 Red. masses --      1.0873                 7.7523                 1.0595
 Frc consts  --      1.5011                13.4385                 5.4712
 IR Inten    --      0.4816                 7.4474               143.0884

                     43                     44                     45
                      A                      A                      A
 Frequencies --   2967.6720              2981.2414              2985.6474
 Red. masses --      1.0654                 1.0989                 1.0973
 Frc consts  --      5.5282                 5.7545                 5.7632
 IR Inten    --     32.9389                21.7004                74.2602

                     46                     47                     48
                      A                      A                      A
 Frequencies --   3138.5731              3145.8504              3225.2813
 Red. masses --      1.0518                 1.0562                 1.1188
 Frc consts  --      6.1046                 6.1585                 6.8571
 IR Inten    --     11.4548                 5.6302                 1.1047

                     49                     50                     51
                      A                      A                      A
 Frequencies --   3228.6549              3240.9949              3787.5775
 Red. masses --      1.0944                 1.1165                 1.0658
 Frc consts  --      6.7216                 6.9095                 9.0083
 IR Inten    --      3.1409                 8.4543                15.1039

 - Thermochemistry -
 -------------------
 Temperature   298.150 Kelvin.  Pressure   1.00000 Atm.
 Atom     1 has atomic number  8 and mass  15.99491

 Molecular mass:   126.06808 amu.
 Principal axes and moments of inertia in atomic units:
                           1         2         3
     Eigenvalues --   521.362731554.810941901.77638
           X            0.99950  -0.03162  -0.00202
           Y            0.03160   0.99947  -0.00779
           Z            0.00227   0.00772   0.99997
 This molecule is an asymmetric top.
 Rotational symmetry number  1.
 Warning -- assumption of classical behavior for rotation
           may cause significant error
 Rotational temperatures (Kelvin)      0.16613     0.05571     0.04554
 Rotational constants (GHZ):           3.46158     1.16075     0.94898
 Zero-point vibrational energy     416864.7 (Joules/Mol)
                                   99.63305 (Kcal/Mol)
 Warning -- explicit consideration of  11 degrees of freedom as
           vibrations may cause significant error
 Vibrational temperatures:     96.87   140.48   233.46   266.01   442.28
          (Kelvin)            460.54   508.42   590.16   644.12   746.68
                              813.88  1111.95  1113.39  1176.67  1202.50
                             1289.48  1320.39  1328.27  1334.86  1409.16
                             1437.32  1479.51  1513.01  1532.45  1546.96
                             1557.56  1634.82  1692.86  1717.05  1773.19
                             1787.16  1834.72  1919.73  1972.71  1993.06
                             2013.28  2088.19  2142.59  2183.94  2202.42
                             2467.91  4259.47  4269.81  4289.34  4295.68
                             4515.70  4526.17  4640.45  4645.31  4663.06
                             5449.47

 Zero-point correction=                           0.158775 (Hartree/Particle)
 Thermal correction to Energy=                    0.167368
 Thermal correction to Enthalpy=                  0.168312
 Thermal correction to Gibbs Free Energy=         0.125193
 Sum of electronic and zero-point Energies=           -423.008545
 Sum of electronic and thermal Energies=              -422.999952
 Sum of electronic and thermal Enthalpies=            -422.999008
 Sum of electronic and thermal Free Energies=         -423.042128

                     E (Thermal)             CV                S
                      KCal/Mol        Cal/Mol-Kelvin    Cal/Mol-Kelvin
 Total                  105.025             32.512             90.753
 Electronic               0.000              0.000              0.000
 Translational            0.889              2.981             40.409
 Rotational               0.889              2.981             28.824
 Vibrational            103.248             26.550             21.521
 Vibration     1          0.598              1.970              4.230
 Vibration     2          0.603              1.951              3.501
 Vibration     3          0.622              1.889              2.523
 Vibration     4          0.631              1.860              2.278
 Vibration     5          0.697              1.660              1.376
 Vibration     6          0.706              1.635              1.310
 Vibration     7          0.730              1.568              1.151
 Vibration     8          0.774              1.448              0.926
 Vibration     9          0.807              1.366              0.803
 Vibration    10          0.874              1.208              0.612
 Vibration    11          0.922              1.106              0.513

 Normal termination of Gaussian 09 at Mon Jan 27 17:18:09 2020.
