 Gaussian 09, Revision D.01,
 Gaussian 09:  ES64L-G09RevD.01 24-Apr-2013

 -----------------------------
 # b3lyp 6-31G(2df,p) opt Freq
 -----------------------------

 -----
 titel
 -----
 Symbolic Z-matrix:
 Charge =  0 Multiplicity = 1

 SCF Done:  E(RB3LYP) =  -423.171034092     A.U. after   14 cycles
 Optimization completed.
    -- Stationary point found.
 Normal termination of Gaussian 09 at Tue Jan 28 14:08:51 2020.

 ----------------------------------------------------------------------
 #N Geom=AllCheck Guess=TCheck SCRF=Check GenChk RB3LYP/6-31G(2df,p) Fr
 eq
 ----------------------------------------------------------------------

 Structure from the checkpoint file:  "/scratch/puck/g09_3f7b83cc-2a17-47c6-82f5-285d4d76bfac/Gau-71737.chk"
 -----
 titel
 -----
 Charge =  0 Multiplicity = 1

                         Standard orientation:
 ---------------------------------------------------------------------
 Center     Atomic      Atomic             Coordinates (Angstroms)
 Number     Number       Type             X           Y           Z
 ---------------------------------------------------------------------
      1          6           0       -2.899228   -0.910380    0.249571
      2          6           0       -1.501966   -0.414332    0.058895
      3          6           0       -0.482197   -1.024258   -0.558491
      4          6           0        0.799803   -0.214844   -0.530592
      5          6           0        1.926628   -0.904197    0.255033
      6          8           0        3.098835   -0.109497    0.343865
      7          6           0        0.359714    1.085328    0.139254
      8          8           0       -0.652991    1.806951   -0.562011
      9          6           0       -1.053386    0.938989    0.524711
     10          1           0       -3.622444   -0.258693   -0.256193
     11          1           0       -3.022890   -1.924634   -0.139186
     12          1           0       -3.175078   -0.918647    1.311635
     13          1           0       -0.547612   -1.986785   -1.056146
     14          1           0        1.161899   -0.016281   -1.550693
     15          1           0        1.604196   -1.075192    1.287589
     16          1           0        2.137620   -1.889963   -0.187447
     17          1           0        3.434079    0.024841   -0.548639
     18          1           0        1.082569    1.683724    0.685318
     19          1           0       -1.515292    1.444152    1.368645
 ---------------------------------------------------------------------

 SCF Done:  E(RB3LYP) =  -423.171034092     A.U. after    1 cycles

 The electronic state is 1-A.
 Alpha  occ. eigenvalues --  -19.14318 -19.14026 -10.23135 -10.23127 -10.22826
 Alpha  occ. eigenvalues --  -10.19387 -10.19227 -10.18710 -10.18212  -1.06368
 Alpha  occ. eigenvalues --   -1.02073  -0.82947  -0.76368  -0.69104  -0.65830
 Alpha  occ. eigenvalues --   -0.64583  -0.57506  -0.54053  -0.50778  -0.49460
 Alpha  occ. eigenvalues --   -0.46388  -0.43976  -0.42291  -0.41732  -0.40918
 Alpha  occ. eigenvalues --   -0.38847  -0.37669  -0.36372  -0.35987  -0.32846
 Alpha  occ. eigenvalues --   -0.30443  -0.27597  -0.25412  -0.23765
 Alpha virt. eigenvalues --    0.00548   0.07076   0.10082   0.11563   0.12336
 Alpha virt. eigenvalues --    0.12885   0.13807   0.15099   0.15239   0.16934
 Alpha virt. eigenvalues --    0.17295   0.18532   0.20079   0.20676   0.22442

 Mulliken charges:
               1
     1  C   -0.501737
     2  C    0.327863
     3  C   -0.204114
     4  C   -0.108781
     5  C   -0.068838
     6  O   -0.415303
     7  C    0.046334
     8  O   -0.266720
     9  C   -0.065505
    10  H    0.137248
    11  H    0.125752
    12  H    0.127995
    13  H    0.092871
    14  H    0.084792
    15  H    0.114563
    16  H    0.090492
    17  H    0.283724
    18  H    0.107307
    19  H    0.092059
 Sum of Mulliken charges =   0.00000

 Dipole moment (field-independent basis, Debye):
    X=             -0.2983    Y=             -1.7544    Z=             -0.1195  Tot=              1.7836
 Quadrupole moment (field-independent basis, Debye-Ang):
   XX=            -51.4842   YY=            -55.1227   ZZ=            -52.4625
   XY=              1.3577   XZ=             -7.0831   YZ=              3.1818

  Exact polarizability:  97.156   0.009  72.851  -8.285   5.170  61.680
 Approx polarizability: 132.182  -5.877 110.100 -15.160   6.695 100.287

                      1                      2                      3
                      A                      A                      A
 Frequencies --     91.8408               126.2833               174.5402
 Red. masses --      3.7716                 2.9283                 1.1442
 Frc consts  --      0.0187                 0.0275                 0.0205
 IR Inten    --      2.6818                 1.1349                 0.9569

                      4                      5                      6
                      A                      A                      A
 Frequencies --    194.7130               230.0434               296.0771
 Red. masses --      2.2253                 3.6355                 2.6113
 Frc consts  --      0.0497                 0.1134                 0.1349
 IR Inten    --      6.2221                 6.2420                 0.7701

                      7                      8                      9
                      A                      A                      A
 Frequencies --    316.6156               376.6524               418.7846
 Red. masses --      1.1874                 4.3256                 3.7135
 Frc consts  --      0.0701                 0.3616                 0.3837
 IR Inten    --    108.6456                 2.9952                 2.6587

                     10                     11                     12
                      A                      A                      A
 Frequencies --    488.1690               605.1562               619.6812
 Red. masses --      3.6887                 3.9066                 3.8256
 Frc consts  --      0.5179                 0.8429                 0.8655
 IR Inten    --     23.0111                11.6877                 1.2139

                     13                     14                     15
                      A                      A                      A
 Frequencies --    739.2300               834.2985               852.6735
 Red. masses --      3.8863                 2.5440                 1.4076
 Frc consts  --      1.2512                 1.0433                 0.6030
 IR Inten    --      2.1825                 4.9506                32.1917

                     16                     17                     18
                      A                      A                      A
 Frequencies --    868.8819               878.8623               894.1890
 Red. masses --      3.0834                 2.5328                 3.5990
 Frc consts  --      1.3715                 1.1527                 1.6955
 IR Inten    --      5.7073                 9.8846                 8.3592

                     19                     20                     21
                      A                      A                      A
 Frequencies --    977.3396              1008.8834              1028.7819
 Red. masses --      1.9921                 1.4502                 2.5383
 Frc consts  --      1.1211                 0.8697                 1.5828
 IR Inten    --      8.7275                20.0573                59.5001

                     22                     23                     24
                      A                      A                      A
 Frequencies --   1053.0879              1057.6080              1070.6160
 Red. masses --      1.7808                 1.6269                 1.7336
 Frc consts  --      1.1636                 1.0722                 1.1708
 IR Inten    --      3.6506                 8.4217                 7.2063

                     25                     26                     27
                      A                      A                      A
 Frequencies --   1092.5939              1126.0697              1178.1885
 Red. masses --      2.8290                 1.4724                 1.3445
 Frc consts  --      1.9898                 1.1001                 1.0997
 IR Inten    --     42.2472                 0.2033                19.9549

                     28                     29                     30
                      A                      A                      A
 Frequencies --   1196.8761              1250.8587              1260.5612
 Red. masses --      2.1519                 1.5857                 1.3560
 Frc consts  --      1.8162                 1.4618                 1.2695
 IR Inten    --     12.0405                 6.1415                 6.9753

                     31                     32                     33
                      A                      A                      A
 Frequencies --   1268.8221              1330.7933              1362.9119
 Red. masses --      1.3031                 1.6281                 1.8448
 Frc consts  --      1.2361                 1.6989                 2.0189
 IR Inten    --      0.4248                 3.7959                 1.4491

                     34                     35                     36
                      A                      A                      A
 Frequencies --   1385.2227              1407.1804              1411.9130
 Red. masses --      1.2964                 3.1201                 1.2798
 Frc consts  --      1.4657                 3.6401                 1.5032
 IR Inten    --      1.7324                16.1537                46.6247

                     37                     38                     39
                      A                      A                      A
 Frequencies --   1415.0848              1479.4611              1488.3292
 Red. masses --      1.3152                 1.0439                 1.0630
 Frc consts  --      1.5517                 1.3463                 1.3874
 IR Inten    --      4.3103                 5.9047                 7.9913

                     40                     41                     42
                      A                      A                      A
 Frequencies --   1504.7241              1700.6398              2985.6180
 Red. masses --      1.0863                 7.0245                 1.0707
 Frc consts  --      1.4491                11.9699                 5.6231
 IR Inten    --      1.0260                 2.7073                55.9304

                     43                     44                     45
                      A                      A                      A
 Frequencies --   2997.8337              3020.0794              3067.7528
 Red. masses --      1.0802                 1.0379                 1.0986
 Frc consts  --      5.7199                 5.5773                 6.0915
 IR Inten    --     28.4823                27.3116                15.6143

                     46                     47                     48
                      A                      A                      A
 Frequencies --   3076.4641              3112.7418              3151.4553
 Red. masses --      1.0944                 1.0994                 1.0885
 Frc consts  --      6.1029                 6.2759                 6.3692
 IR Inten    --     27.7521                17.1077                21.2866

                     49                     50                     51
                      A                      A                      A
 Frequencies --   3168.6004              3180.3063              3812.2881
 Red. masses --      1.0936                 1.0933                 1.0661
 Frc consts  --      6.4690                 6.5152                 9.1288
 IR Inten    --     20.3740                11.8432                21.0023

 - Thermochemistry -
 -------------------
 Temperature   298.150 Kelvin.  Pressure   1.00000 Atm.
 Atom     1 has atomic number  6 and mass  12.00000

 Molecular mass:   126.06808 amu.
 Principal axes and moments of inertia in atomic units:
                           1         2         3
     Eigenvalues --   567.796911585.199691947.86675
           X            0.99975   0.01727  -0.01399
           Y           -0.01682   0.99936   0.03156
           Z            0.01452  -0.03132   0.99940
 This molecule is an asymmetric top.
 Rotational symmetry number  1.
 Warning -- assumption of classical behavior for rotation
           may cause significant error
 Rotational temperatures (Kelvin)      0.15254     0.05464     0.04447
 Rotational constants (GHZ):           3.17850     1.13849     0.92652
 Zero-point vibrational energy     416518.0 (Joules/Mol)
                                   99.55020 (Kcal/Mol)
 Warning -- explicit consideration of  12 degrees of freedom as
           vibrations may cause significant error
 Vibrational temperatures:    132.14   181.69   251.12   280.15   330.98
          (Kelvin)            425.99   455.54   541.92   602.54   702.37
                              870.68   891.58  1063.59  1200.37  1226.81
                             1250.13  1264.49  1286.54  1406.17  1451.56
                             1480.19  1515.16  1521.66  1540.38  1572.00
                             1620.16  1695.15  1722.04  1799.70  1813.66
                             1825.55  1914.71  1960.92  1993.02  2024.62
                             2031.43  2035.99  2128.61  2141.37  2164.96
                             2446.84  4295.63  4313.21  4345.22  4413.81
                             4426.34  4478.54  4534.24  4558.90  4575.75
                             5485.03

 Zero-point correction=                           0.158643 (Hartree/Particle)
 Thermal correction to Energy=                    0.167377
 Thermal correction to Enthalpy=                  0.168321
 Thermal correction to Gibbs Free Energy=         0.125220
 Sum of electronic and zero-point Energies=           -423.012391
 Sum of electronic and thermal Energies=              -423.003658
 Sum of electronic and thermal Enthalpies=            -423.002713
 Sum of electronic and thermal Free Energies=         -423.045814

                     E (Thermal)             CV                S
                      KCal/Mol        Cal/Mol-Kelvin    Cal/Mol-Kelvin
 Total                  105.030             32.903             90.714
 Electronic               0.000              0.000              0.000
 Translational            0.889              2.981             40.409
 Rotational               0.889              2.981             28.951
 Vibrational            103.253             26.941             21.354
 Vibration     1          0.602              1.955              3.620
 Vibration     2          0.611              1.927              3.002
 Vibration     3          0.627              1.874              2.386
 Vibration     4          0.635              1.847              2.182
 Vibration     5          0.652              1.795              1.879
 Vibration     6          0.690              1.681              1.439
 Vibration     7          0.703              1.642              1.328
 Vibration     8          0.747              1.520              1.053
 Vibration     9          0.782              1.429              0.896
 Vibration    10          0.844              1.276              0.688
 Vibration    11          0.964              1.021              0.441
 Vibration    12          0.980              0.990              0.417

 Normal termination of Gaussian 09 at Tue Jan 28 14:52:28 2020.
