 Gaussian 09, Revision D.01,
 Gaussian 09:  ES64L-G09RevD.01 24-Apr-2013

 -----------------------------
 # b3lyp 6-31G(2df,p) opt Freq
 -----------------------------

 -----
 titel
 -----
 Symbolic Z-matrix:
 Charge =  0 Multiplicity = 1

 SCF Done:  E(RB3LYP) =  -423.192050987     A.U. after   14 cycles
 Optimization completed.
    -- Stationary point found.
 Normal termination of Gaussian 09 at Mon Jan 27 13:34:45 2020.

 ----------------------------------------------------------------------
 #N Geom=AllCheck Guess=TCheck SCRF=Check GenChk RB3LYP/6-31G(2df,p) Fr
 eq
 ----------------------------------------------------------------------

 Structure from the checkpoint file:  "/scratch/puck/g09_4c2ed7f3-8780-4f09-a506-dbb78fae8e6f/Gau-76424.chk"
 -----
 titel
 -----
 Charge =  0 Multiplicity = 1

                         Standard orientation:
 ---------------------------------------------------------------------
 Center     Atomic      Atomic             Coordinates (Angstroms)
 Number     Number       Type             X           Y           Z
 ---------------------------------------------------------------------
      1          8           0        3.148155    0.318808    0.100720
      2          6           0        2.257319   -0.453636   -0.129985
      3          6           0        0.796354   -0.235707    0.275008
      4          8           0        0.029393   -1.094184   -0.542827
      5          6           0       -1.201147   -1.538275    0.006279
      6          6           0       -2.102806   -0.410610    0.522155
      7          6           0       -2.054215    0.859643   -0.343362
      8          6           0       -0.799874    1.678716   -0.141176
      9          6           0        0.410770    1.220645    0.170734
     10          1           0        2.418751   -1.422920   -0.649367
     11          1           0        0.753448   -0.571098    1.331150
     12          1           0       -1.690318   -2.067664   -0.817905
     13          1           0       -1.018394   -2.269895    0.810355
     14          1           0       -3.127354   -0.798052    0.571633
     15          1           0       -1.825268   -0.142571    1.548092
     16          1           0       -2.170051    0.598697   -1.404785
     17          1           0       -2.917170    1.488763   -0.097672
     18          1           0       -0.919409    2.755376   -0.242336
     19          1           0        1.236974    1.907732    0.329773
 ---------------------------------------------------------------------

 SCF Done:  E(RB3LYP) =  -423.192050987     A.U. after    1 cycles

 The electronic state is 1-A.
 Alpha  occ. eigenvalues --  -19.15029 -19.14678 -10.27333 -10.24805 -10.23626
 Alpha  occ. eigenvalues --  -10.19213 -10.19056 -10.18724 -10.18252  -1.05714
 Alpha  occ. eigenvalues --   -1.04240  -0.80927  -0.79223  -0.70637  -0.68536
 Alpha  occ. eigenvalues --   -0.60708  -0.57683  -0.54089  -0.49964  -0.49522
 Alpha  occ. eigenvalues --   -0.47047  -0.45658  -0.44043  -0.43182  -0.42441
 Alpha  occ. eigenvalues --   -0.38902  -0.38370  -0.37163  -0.34861  -0.33574
 Alpha  occ. eigenvalues --   -0.31967  -0.27092  -0.26516  -0.24099
 Alpha virt. eigenvalues --   -0.02807   0.01464   0.08011   0.10506   0.12116
 Alpha virt. eigenvalues --    0.13135   0.13855   0.14593   0.14963   0.15860
 Alpha virt. eigenvalues --    0.17424   0.19300   0.19892   0.22005   0.23123

 Mulliken charges:
               1
     1  O   -0.243620
     2  C    0.142353
     3  C   -0.036827
     4  O   -0.254360
     5  C   -0.067548
     6  C   -0.226929
     7  C   -0.239159
     8  C   -0.072604
     9  C   -0.045330
    10  H    0.097491
    11  H    0.104155
    12  H    0.111699
    13  H    0.090863
    14  H    0.100677
    15  H    0.108893
    16  H    0.119242
    17  H    0.103742
    18  H    0.093612
    19  H    0.113648
 Sum of Mulliken charges =   0.00000

 Dipole moment (field-independent basis, Debye):
    X=             -2.9235    Y=             -0.8953    Z=              0.6743  Tot=              3.1310
 Quadrupole moment (field-independent basis, Debye-Ang):
   XX=            -58.6747   YY=            -51.3351   ZZ=            -53.4732
   XY=             -2.3555   XZ=              0.0586   YZ=             -1.2806

  Exact polarizability:  97.250  -0.993  79.706   3.425   0.174  56.831
 Approx polarizability: 136.600   0.276 112.634   9.022   1.409  91.756

                      1                      2                      3
                      A                      A                      A
 Frequencies --     78.3923                94.5688               182.7812
 Red. masses --      3.1760                 2.7067                 3.7050
 Frc consts  --      0.0115                 0.0143                 0.0729
 IR Inten    --      0.5539                 6.8173                 2.3295

                      4                      5                      6
                      A                      A                      A
 Frequencies --    223.5099               254.9290               319.4414
 Red. masses --      3.3502                 2.1672                 3.4063
 Frc consts  --      0.0986                 0.0830                 0.2048
 IR Inten    --      7.1805                 1.7484                 2.6984

                      7                      8                      9
                      A                      A                      A
 Frequencies --    344.9313               366.4422               515.8416
 Red. masses --      4.3351                 2.6638                 4.6713
 Frc consts  --      0.3039                 0.2107                 0.7324
 IR Inten    --      1.0019                 1.3021                 1.6977

                     10                     11                     12
                      A                      A                      A
 Frequencies --    586.6899               597.5439               700.7438
 Red. masses --      2.2937                 2.4305                 1.9889
 Frc consts  --      0.4652                 0.5113                 0.5754
 IR Inten    --      4.0095                 3.6104                49.2890

                     13                     14                     15
                      A                      A                      A
 Frequencies --    747.2697               786.0798               825.7174
 Red. masses --      2.1763                 2.9004                 2.3773
 Frc consts  --      0.7160                 1.0559                 0.9550
 IR Inten    --     15.1576                 4.5959                 1.5542

                     16                     17                     18
                      A                      A                      A
 Frequencies --    888.9453               921.6766               962.4684
 Red. masses --      1.6553                 2.6405                 2.2665
 Frc consts  --      0.7707                 1.3216                 1.2370
 IR Inten    --      0.7956                 3.4761                 0.2758

                     19                     20                     21
                      A                      A                      A
 Frequencies --    996.6287              1019.9803              1049.8206
 Red. masses --      1.5401                 1.6645                 2.5252
 Frc consts  --      0.9013                 1.0203                 1.6397
 IR Inten    --     12.3369                13.1029                 7.9577

                     22                     23                     24
                      A                      A                      A
 Frequencies --   1056.9876              1085.3951              1115.5657
 Red. masses --      1.8631                 2.5632                 1.9922
 Frc consts  --      1.2264                 1.7791                 1.4607
 IR Inten    --      9.8724                15.2139                 4.1499

                     25                     26                     27
                      A                      A                      A
 Frequencies --   1168.9712              1221.8932              1226.8400
 Red. masses --      4.7348                 1.1217                 1.2068
 Frc consts  --      3.8121                 0.9867                 1.0702
 IR Inten    --    126.0740                 4.7552                14.3480

                     28                     29                     30
                      A                      A                      A
 Frequencies --   1263.0138              1271.3940              1295.7334
 Red. masses --      1.2807                 1.5448                 1.1967
 Frc consts  --      1.2037                 1.4712                 1.1837
 IR Inten    --      2.5922                 4.6985                11.4272

                     31                     32                     33
                      A                      A                      A
 Frequencies --   1340.2976              1370.0692              1379.4710
 Red. masses --      1.2594                 1.3578                 1.4136
 Frc consts  --      1.3330                 1.5016                 1.5849
 IR Inten    --      6.1378                 3.9701                 0.2542

                     34                     35                     36
                      A                      A                      A
 Frequencies --   1395.4392              1411.4158              1419.2509
 Red. masses --      1.2903                 1.4624                 1.2856
 Frc consts  --      1.4803                 1.7165                 1.5257
 IR Inten    --      8.6551                 4.9253                 6.1409

                     37                     38                     39
                      A                      A                      A
 Frequencies --   1475.6575              1485.5288              1503.7648
 Red. masses --      1.0918                 1.0851                 1.0936
 Frc consts  --      1.4008                 1.4109                 1.4570
 IR Inten    --      4.3132                 5.0455                 0.9228

                     40                     41                     42
                      A                      A                      A
 Frequencies --   1727.2833              1841.0310              2900.0909
 Red. masses --      7.2364                10.8794                 1.0781
 Frc consts  --     12.7205                21.7259                 5.3423
 IR Inten    --      0.8457               159.3128                31.5406

                     43                     44                     45
                      A                      A                      A
 Frequencies --   2909.1184              2972.5334              3013.0329
 Red. masses --      1.0850                 1.0705                 1.0667
 Frc consts  --      5.4101                 5.5729                 5.7054
 IR Inten    --     96.6976                65.5206                19.9744

                     46                     47                     48
                      A                      A                      A
 Frequencies --   3032.7891              3058.6545              3061.1453
 Red. masses --      1.0621                 1.0925                 1.0970
 Frc consts  --      5.7555                 6.0219                 6.0564
 IR Inten    --     25.6591                32.5971                 2.7026

                     49                     50                     51
                      A                      A                      A
 Frequencies --   3083.1284              3144.9155              3179.8879
 Red. masses --      1.0984                 1.0855                 1.0931
 Frc consts  --      6.1519                 6.3258                 6.5125
 IR Inten    --     57.0928                13.5802                 9.9170

 - Thermochemistry -
 -------------------
 Temperature   298.150 Kelvin.  Pressure   1.00000 Atm.
 Atom     1 has atomic number  8 and mass  15.99491

 Molecular mass:   126.06808 amu.
 Principal axes and moments of inertia in atomic units:
                           1         2         3
     Eigenvalues --   575.083041486.820291921.33894
           X            0.99999  -0.00424  -0.00196
           Y            0.00422   0.99990  -0.01376
           Z            0.00201   0.01375   0.99990
 This molecule is an asymmetric top.
 Rotational symmetry number  1.
 Warning -- assumption of classical behavior for rotation
           may cause significant error
 Rotational temperatures (Kelvin)      0.15061     0.05825     0.04508
 Rotational constants (GHZ):           3.13823     1.21383     0.93931
 Zero-point vibrational energy     417943.5 (Joules/Mol)
                                   99.89090 (Kcal/Mol)
 Warning -- explicit consideration of  11 degrees of freedom as
           vibrations may cause significant error
 Vibrational temperatures:    112.79   136.06   262.98   321.58   366.79
          (Kelvin)            459.60   496.28   527.23   742.18   844.11
                              859.73  1008.21  1075.15  1130.99  1188.02
                             1278.99  1326.09  1384.78  1433.92  1467.52
                             1510.46  1520.77  1561.64  1605.05  1681.89
                             1758.03  1765.15  1817.19  1829.25  1864.27
                             1928.39  1971.22  1984.75  2007.72  2030.71
                             2041.98  2123.14  2137.34  2163.58  2485.17
                             2648.83  4172.58  4185.57  4276.81  4335.08
                             4363.50  4400.72  4404.30  4435.93  4524.83
                             4575.14

 Zero-point correction=                           0.159186 (Hartree/Particle)
 Thermal correction to Energy=                    0.167625
 Thermal correction to Enthalpy=                  0.168569
 Thermal correction to Gibbs Free Energy=         0.125790
 Sum of electronic and zero-point Energies=           -423.032865
 Sum of electronic and thermal Energies=              -423.024426
 Sum of electronic and thermal Enthalpies=            -423.023482
 Sum of electronic and thermal Free Energies=         -423.066261

                     E (Thermal)             CV                S
                      KCal/Mol        Cal/Mol-Kelvin    Cal/Mol-Kelvin
 Total                  105.186             31.621             90.037
 Electronic               0.000              0.000              0.000
 Translational            0.889              2.981             40.409
 Rotational               0.889              2.981             28.887
 Vibrational            103.409             25.660             20.741
 Vibration     1          0.600              1.964              3.931
 Vibration     2          0.603              1.953              3.563
 Vibration     3          0.630              1.863              2.300
 Vibration     4          0.649              1.805              1.930
 Vibration     5          0.665              1.754              1.696
 Vibration     6          0.705              1.636              1.313
 Vibration     7          0.723              1.586              1.189
 Vibration     8          0.739              1.541              1.095
 Vibration     9          0.871              1.215              0.620
 Vibration    10          0.944              1.060              0.473
 Vibration    11          0.955              1.037              0.454

 Optimization completed.
    -- Stationary point found.
 Normal termination of Gaussian 09 at Mon Jan 27 14:14:45 2020.
