 Gaussian 09, Revision D.01,
 Gaussian 09:  ES64L-G09RevD.01 24-Apr-2013

 -----------------------------
 # b3lyp 6-31G(2df,p) opt Freq
 -----------------------------

 -----
 titel
 -----
 Symbolic Z-matrix:
 Charge =  0 Multiplicity = 1

 SCF Done:  E(RB3LYP) =  -423.150579850     A.U. after   13 cycles
 Optimization completed.
    -- Stationary point found.
 Normal termination of Gaussian 09 at Mon Jan 27 18:15:54 2020.

 ----------------------------------------------------------------------
 #N Geom=AllCheck Guess=TCheck SCRF=Check GenChk RB3LYP/6-31G(2df,p) Fr
 eq
 ----------------------------------------------------------------------

 Structure from the checkpoint file:  "/scratch/puck/g09_ed23db71-9273-42f5-92bf-51caeea2c317/Gau-168770.chk"
 -----
 titel
 -----
 Charge =  0 Multiplicity = 1

                         Standard orientation:
 ---------------------------------------------------------------------
 Center     Atomic      Atomic             Coordinates (Angstroms)
 Number     Number       Type             X           Y           Z
 ---------------------------------------------------------------------
      1          6           0        2.186923   -0.990875   -0.291294
      2          6           0        0.769311   -0.591164   -0.049820
      3          8           0       -0.244691   -1.507138   -0.486343
      4          6           0       -1.158884   -0.958102    0.511475
      5          6           0       -2.004891    0.079828   -0.208410
      6          8           0       -1.042837    1.023488   -0.689945
      7          6           0        0.167087    0.814265    0.017523
      8          6           0        1.015012    2.050024    0.096959
      9          6           0       -0.024614   -0.143461    1.165656
     10          1           0        2.402113   -1.955729    0.179179
     11          1           0        2.373045   -1.087027   -1.366732
     12          1           0        2.881098   -0.247329    0.108252
     13          1           0       -1.685954   -1.731743    1.071269
     14          1           0       -2.537972   -0.349391   -1.062132
     15          1           0       -2.727287    0.565234    0.466767
     16          1           0        1.934472    1.863903    0.657796
     17          1           0        1.287934    2.394671   -0.905443
     18          1           0        0.466028    2.855268    0.595320
     19          1           0        0.207085   -0.001744    2.213494
 ---------------------------------------------------------------------

 SCF Done:  E(RB3LYP) =  -423.150579850     A.U. after    1 cycles

 The electronic state is 1-A.
 Alpha  occ. eigenvalues --  -19.13672 -19.13359 -10.24131 -10.24057 -10.23806
 Alpha  occ. eigenvalues --  -10.22605 -10.18796 -10.18445 -10.18374  -1.07178
 Alpha  occ. eigenvalues --   -1.01053  -0.83146  -0.75960  -0.73172  -0.69957
 Alpha  occ. eigenvalues --   -0.61601  -0.56782  -0.51957  -0.50919  -0.50285
 Alpha  occ. eigenvalues --   -0.45549  -0.44700  -0.42467  -0.41574  -0.40047
 Alpha  occ. eigenvalues --   -0.39575  -0.38975  -0.37265  -0.34990  -0.33244
 Alpha  occ. eigenvalues --   -0.31518  -0.29422  -0.24958  -0.20987
 Alpha virt. eigenvalues --    0.08189   0.09188   0.09871   0.12498   0.13166
 Alpha virt. eigenvalues --    0.14337   0.14969   0.15367   0.15593   0.16420
 Alpha virt. eigenvalues --    0.17169   0.17632   0.19945   0.20827   0.21689

 Mulliken charges:
               1
     1  C   -0.505109
     2  C    0.402689
     3  O   -0.335746
     4  C    0.053861
     5  C   -0.083720
     6  O   -0.303863
     7  C    0.392560
     8  C   -0.482917
     9  C   -0.301242
    10  H    0.130521
    11  H    0.137127
    12  H    0.125586
    13  H    0.086113
    14  H    0.117319
    15  H    0.089592
    16  H    0.120634
    17  H    0.133890
    18  H    0.128326
    19  H    0.094377
 Sum of Mulliken charges =   0.00000

 Dipole moment (field-independent basis, Debye):
    X=              0.5683    Y=              0.2475    Z=              1.9186  Tot=              2.0162
 Quadrupole moment (field-independent basis, Debye-Ang):
   XX=            -48.0112   YY=            -55.7073   ZZ=            -53.1831
   XY=              2.1942   XZ=             -1.6370   YZ=             -0.3431

  Exact polarizability:  85.375   1.096  74.952  -2.422  -0.011  64.692
 Approx polarizability: 113.482   0.498 108.350  -3.582   0.586 103.639

                      1                      2                      3
                      A                      A                      A
 Frequencies --    166.6869               184.7758               209.5424
 Red. masses --      1.0906                 1.4157                 2.2108
 Frc consts  --      0.0179                 0.0285                 0.0572
 IR Inten    --      0.2646                 0.4444                 0.7625

                      4                      5                      6
                      A                      A                      A
 Frequencies --    220.4688               268.0535               312.2492
 Red. masses --      1.8974                 2.2617                 2.7516
 Frc consts  --      0.0543                 0.0957                 0.1581
 IR Inten    --      3.6197                 2.1949                 1.0984

                      7                      8                      9
                      A                      A                      A
 Frequencies --    350.8999               424.5177               516.8668
 Red. masses --      3.2141                 3.1933                 3.9689
 Frc consts  --      0.2332                 0.3391                 0.6247
 IR Inten    --      1.4943                 2.3751                 2.9476

                     10                     11                     12
                      A                      A                      A
 Frequencies --    612.0190               647.8293               722.7132
 Red. masses --      3.9337                 3.3308                 3.3308
 Frc consts  --      0.8681                 0.8236                 1.0250
 IR Inten    --      2.3251                 2.4850                 5.7928

                     13                     14                     15
                      A                      A                      A
 Frequencies --    756.1279               804.4249               863.7528
 Red. masses --      4.2618                 5.5222                 2.4205
 Frc consts  --      1.4356                 2.1054                 1.0640
 IR Inten    --     14.4175                14.9262                 6.6362

                     16                     17                     18
                      A                      A                      A
 Frequencies --    874.1043               908.2450               927.5684
 Red. masses --      2.0679                 1.9911                 1.8854
 Frc consts  --      0.9309                 0.9677                 0.9558
 IR Inten    --      8.4813                16.2614                10.3733

                     19                     20                     21
                      A                      A                      A
 Frequencies --    948.8729               959.3492               986.9340
 Red. masses --      1.9452                 2.5072                 2.0817
 Frc consts  --      1.0319                 1.3595                 1.1947
 IR Inten    --     17.7206                 1.3393                 9.3992

                     22                     23                     24
                      A                      A                      A
 Frequencies --   1041.1038              1066.1638              1101.7500
 Red. masses --      1.8454                 4.8930                 1.6804
 Frc consts  --      1.1785                 3.2770                 1.2018
 IR Inten    --      9.3788                90.5605                 9.1524

                     25                     26                     27
                      A                      A                      A
 Frequencies --   1112.7391              1156.5890              1178.4731
 Red. masses --      2.0236                 2.2723                 1.7000
 Frc consts  --      1.4763                 1.7909                 1.3911
 IR Inten    --     19.4970                26.9131                23.7017

                     28                     29                     30
                      A                      A                      A
 Frequencies --   1192.6739              1202.7811              1271.0929
 Red. masses --      2.0883                 1.5335                 1.8894
 Frc consts  --      1.7502                 1.3071                 1.7986
 IR Inten    --     42.0522                22.3816                 7.8751

                     31                     32                     33
                      A                      A                      A
 Frequencies --   1289.5549              1329.8545              1372.1503
 Red. masses --      1.7762                 2.4796                 1.4840
 Frc consts  --      1.7403                 2.5837                 1.6462
 IR Inten    --     12.3632                 0.5078                 0.5080

                     34                     35                     36
                      A                      A                      A
 Frequencies --   1406.1993              1417.2273              1442.3921
 Red. masses --      1.3931                 1.3718                 3.1788
 Frc consts  --      1.6231                 1.6234                 3.8966
 IR Inten    --      5.6696                 5.1055                 7.9598

                     37                     38                     39
                      A                      A                      A
 Frequencies --   1470.1121              1481.0788              1492.5334
 Red. masses --      1.0513                 1.0464                 1.0496
 Frc consts  --      1.3386                 1.3523                 1.3776
 IR Inten    --      2.4159                 4.4369                 0.9698

                     40                     41                     42
                      A                      A                      A
 Frequencies --   1501.7188              1510.3568              2982.0891
 Red. masses --      1.1005                 1.1694                 1.0691
 Frc consts  --      1.4622                 1.5718                 5.6018
 IR Inten    --      0.3083                 5.0667                78.2147

                     43                     44                     45
                      A                      A                      A
 Frequencies --   3034.8626              3040.6823              3084.1108
 Red. masses --      1.0357                 1.0358                 1.0944
 Frc consts  --      5.6205                 5.6422                 6.1329
 IR Inten    --     24.3911                23.0862                23.4147

                     46                     47                     48
                      A                      A                      A
 Frequencies --   3098.0032              3104.1873              3110.0801
 Red. masses --      1.1012                 1.1017                 1.0908
 Frc consts  --      6.2268                 6.2548                 6.2165
 IR Inten    --     13.8549                16.4740                43.0092

                     49                     50                     51
                      A                      A                      A
 Frequencies --   3118.6160              3125.6484              3189.4477
 Red. masses --      1.1005                 1.0991                 1.0960
 Frc consts  --      6.3061                 6.3268                 6.5689
 IR Inten    --     21.3308                14.0853                 9.9905

 - Thermochemistry -
 -------------------
 Temperature   298.150 Kelvin.  Pressure   1.00000 Atm.
 Atom     1 has atomic number  6 and mass  12.00000

 Molecular mass:   126.06808 amu.
 Principal axes and moments of inertia in atomic units:
                           1         2         3
     Eigenvalues --   743.28579 877.740621310.57680
           X            0.99794   0.06297  -0.01222
           Y           -0.06291   0.99800   0.00530
           Z            0.01253  -0.00452   0.99991
 This molecule is an asymmetric top.
 Rotational symmetry number  1.
 Warning -- assumption of classical behavior for rotation
           may cause significant error
 Rotational temperatures (Kelvin)      0.11653     0.09868     0.06609
 Rotational constants (GHZ):           2.42806     2.05612     1.37706
 Zero-point vibrational energy     416242.3 (Joules/Mol)
                                   99.48429 (Kcal/Mol)
 Warning -- explicit consideration of  10 degrees of freedom as
           vibrations may cause significant error
 Vibrational temperatures:    239.82   265.85   301.48   317.21   385.67
          (Kelvin)            449.26   504.87   610.79   743.66   880.56
                              932.08  1039.82  1087.90  1157.39  1242.75
                             1257.64  1306.76  1334.56  1365.21  1380.29
                             1419.98  1497.91  1533.97  1585.17  1600.98
                             1664.07  1695.56  1715.99  1730.53  1828.82
                             1855.38  1913.36  1974.22  2023.20  2039.07
                             2075.28  2115.16  2130.94  2147.42  2160.64
                             2173.06  4290.56  4366.48  4374.86  4437.34
                             4457.33  4466.23  4474.71  4486.99  4497.11
                             4588.90

 Zero-point correction=                           0.158538 (Hartree/Particle)
 Thermal correction to Energy=                    0.166551
 Thermal correction to Enthalpy=                  0.167495
 Thermal correction to Gibbs Free Energy=         0.126579
 Sum of electronic and zero-point Energies=           -422.992042
 Sum of electronic and thermal Energies=              -422.984029
 Sum of electronic and thermal Enthalpies=            -422.983085
 Sum of electronic and thermal Free Energies=         -423.024001

                     E (Thermal)             CV                S
                      KCal/Mol        Cal/Mol-Kelvin    Cal/Mol-Kelvin
 Total                  104.512             31.623             86.115
 Electronic               0.000              0.000              0.000
 Translational            0.889              2.981             40.409
 Rotational               0.889              2.981             28.238
 Vibrational            102.735             25.661             17.468
 Vibration     1          0.624              1.883              2.473
 Vibration     2          0.631              1.861              2.280
 Vibration     3          0.642              1.826              2.048
 Vibration     4          0.647              1.810              1.955
 Vibration     5          0.673              1.732              1.609
 Vibration     6          0.701              1.650              1.350
 Vibration     7          0.728              1.573              1.162
 Vibration     8          0.787              1.417              0.877
 Vibration     9          0.872              1.213              0.617
 Vibration    10          0.971              1.006              0.429

 Normal termination of Gaussian 09 at Mon Jan 27 19:04:10 2020.
