 Gaussian 09, Revision D.01,
 Gaussian 09:  ES64L-G09RevD.01 24-Apr-2013

 -----------------------------
 # b3lyp 6-31G(2df,p) opt Freq
 -----------------------------

 -----
 titel
 -----
 Symbolic Z-matrix:
 Charge =  0 Multiplicity = 1

 SCF Done:  E(RB3LYP) =  -423.136270456     A.U. after   13 cycles
 Optimization completed.
    -- Stationary point found.
 Normal termination of Gaussian 09 at Mon Jan 27 17:43:55 2020.

 ----------------------------------------------------------------------
 #N Geom=AllCheck Guess=TCheck SCRF=Check GenChk RB3LYP/6-31G(2df,p) Fr
 eq
 ----------------------------------------------------------------------

 Structure from the checkpoint file:  "/scratch/puck/g09_649b797a-06ae-4653-9fa7-456761b573d6/Gau-15224.chk"
 -----
 titel
 -----
 Charge =  0 Multiplicity = 1

                         Standard orientation:
 ---------------------------------------------------------------------
 Center     Atomic      Atomic             Coordinates (Angstroms)
 Number     Number       Type             X           Y           Z
 ---------------------------------------------------------------------
      1          6           0        1.753573    1.337044    0.423073
      2          6           0        0.794103    0.211757    0.160533
      3          6           0        0.891465   -1.192345    0.805418
      4          6           0        0.137932   -1.516064   -0.497241
      5          8           0        0.952511   -0.470109   -1.151878
      6          6           0       -1.227886   -0.819127   -0.377990
      7          6           0       -1.687400   -0.230703    0.950441
      8          6           0       -0.726703    0.531313    0.099000
      9          8           0       -1.116603    1.751593   -0.437353
     10          1           0        1.553576    2.180664   -0.243324
     11          1           0        1.637698    1.692768    1.452005
     12          1           0        2.785391    1.008078    0.277994
     13          1           0        1.918126   -1.557050    0.763203
     14          1           0        0.448096   -1.397100    1.780456
     15          1           0        0.191137   -2.482594   -0.996654
     16          1           0       -1.940581   -0.903468   -1.189400
     17          1           0       -2.700593    0.159596    0.931523
     18          1           0       -1.402801   -0.661741    1.903157
     19          1           0       -0.787818    1.777726   -1.344512
 ---------------------------------------------------------------------

 SCF Done:  E(RB3LYP) =  -423.136270456     A.U. after    1 cycles

 The electronic state is 1-A.
 Alpha  occ. eigenvalues --  -19.14699 -19.12540 -10.24278 -10.24056 -10.23620
 Alpha  occ. eigenvalues --  -10.19305 -10.18705 -10.18650 -10.17914  -1.04816
 Alpha  occ. eigenvalues --   -1.02248  -0.85598  -0.75854  -0.72940  -0.65412
 Alpha  occ. eigenvalues --   -0.62896  -0.56976  -0.54722  -0.50558  -0.49244
 Alpha  occ. eigenvalues --   -0.46424  -0.44185  -0.43893  -0.40867  -0.39455
 Alpha  occ. eigenvalues --   -0.38187  -0.37232  -0.35671  -0.34547  -0.32164
 Alpha  occ. eigenvalues --   -0.30837  -0.29149  -0.24442  -0.24028
 Alpha virt. eigenvalues --    0.07702   0.09283   0.10564   0.10683   0.11605
 Alpha virt. eigenvalues --    0.12673   0.14039   0.15198   0.16438   0.17485
 Alpha virt. eigenvalues --    0.17852   0.18733   0.20214   0.21748   0.22930

 Mulliken charges:
               1
     1  C   -0.494361
     2  C    0.306569
     3  C   -0.287015
     4  C    0.068416
     5  O   -0.346212
     6  C   -0.135842
     7  C   -0.355639
     8  C    0.421859
     9  O   -0.467706
    10  H    0.125790
    11  H    0.128623
    12  H    0.126092
    13  H    0.110708
    14  H    0.097031
    15  H    0.079364
    16  H    0.096268
    17  H    0.123634
    18  H    0.115029
    19  H    0.287391
 Sum of Mulliken charges =   0.00000

 Dipole moment (field-independent basis, Debye):
    X=              0.0037    Y=             -0.7559    Z=              0.6226  Tot=              0.9793
 Quadrupole moment (field-independent basis, Debye-Ang):
   XX=            -53.4650   YY=            -53.3353   ZZ=            -51.8072
   XY=              2.2710   XZ=              2.8579   YZ=             -1.9568

  Exact polarizability:  77.914   1.411  75.175  -0.472   0.150  67.935
 Approx polarizability: 107.812   1.217 111.370  -4.567   1.204 109.388

                      1                      2                      3
                      A                      A                      A
 Frequencies --    160.9923               185.5906               252.7534
 Red. masses --      1.6444                 1.5728                 3.2411
 Frc consts  --      0.0251                 0.0319                 0.1220
 IR Inten    --      2.1393                 1.2923                 1.4290

                      4                      5                      6
                      A                      A                      A
 Frequencies --    297.9839               364.8401               404.7905
 Red. masses --      3.2069                 2.4277                 1.5900
 Frc consts  --      0.1678                 0.1904                 0.1535
 IR Inten    --      5.5881                14.7417                27.5795

                      7                      8                      9
                      A                      A                      A
 Frequencies --    437.0833               469.4701               507.2607
 Red. masses --      2.1457                 2.2209                 2.2907
 Frc consts  --      0.2415                 0.2884                 0.3473
 IR Inten    --     54.9916                 9.9546                 2.7088

                     10                     11                     12
                      A                      A                      A
 Frequencies --    609.8849               618.7412               628.3928
 Red. masses --      3.6833                 3.6653                 4.8143
 Frc consts  --      0.8072                 0.8268                 1.1201
 IR Inten    --      7.0115                 4.1191                 8.2741

                     13                     14                     15
                      A                      A                      A
 Frequencies --    714.6370               765.0669               830.8584
 Red. masses --      3.4813                 3.3961                 2.4389
 Frc consts  --      1.0475                 1.1712                 0.9920
 IR Inten    --     20.4190                16.9144                 8.9522

                     16                     17                     18
                      A                      A                      A
 Frequencies --    850.0337               869.1868               902.9499
 Red. masses --      3.2249                 2.3746                 2.3951
 Frc consts  --      1.3729                 1.0570                 1.1505
 IR Inten    --     11.7489                16.9884                10.2680

                     19                     20                     21
                      A                      A                      A
 Frequencies --    948.7124               959.7412               969.4548
 Red. masses --      1.9025                 2.6478                 1.7180
 Frc consts  --      1.0089                 1.4370                 0.9513
 IR Inten    --     24.5295                22.0794                 8.5595

                     22                     23                     24
                      A                      A                      A
 Frequencies --   1010.8399              1021.1081              1038.0189
 Red. masses --      1.6735                 1.5877                 1.3329
 Frc consts  --      1.0075                 0.9754                 0.8462
 IR Inten    --      5.0115                 2.5681                 4.1348

                     25                     26                     27
                      A                      A                      A
 Frequencies --   1081.7112              1096.8083              1112.9085
 Red. masses --      1.3297                 1.4699                 1.9839
 Frc consts  --      0.9167                 1.0419                 1.4477
 IR Inten    --      3.0028                 2.9129                 5.3359

                     28                     29                     30
                      A                      A                      A
 Frequencies --   1170.0123              1216.3934              1222.9077
 Red. masses --      1.8787                 1.5590                 2.0515
 Frc consts  --      1.5153                 1.3591                 1.8077
 IR Inten    --      7.3131                 6.6263                31.5771

                     31                     32                     33
                      A                      A                      A
 Frequencies --   1255.7354              1278.1051              1291.4413
 Red. masses --      1.7051                 2.1828                 1.6498
 Frc consts  --      1.5841                 2.1008                 1.6212
 IR Inten    --     35.1364                25.6714                19.6721

                     34                     35                     36
                      A                      A                      A
 Frequencies --   1319.9444              1328.4018              1401.0073
 Red. masses --      1.6152                 3.4256                 1.5348
 Frc consts  --      1.6580                 3.5616                 1.7749
 IR Inten    --     39.3634                68.6122                 7.3034

                     37                     38                     39
                      A                      A                      A
 Frequencies --   1420.0250              1479.5983              1485.5484
 Red. masses --      1.5850                 1.0742                 1.3313
 Frc consts  --      1.8831                 1.3856                 1.7310
 IR Inten    --      6.7871                 5.7809                 7.7216

                     40                     41                     42
                      A                      A                      A
 Frequencies --   1486.9051              1517.1723              3045.3993
 Red. masses --      1.1480                 1.1472                 1.0354
 Frc consts  --      1.4955                 1.5559                 5.6578
 IR Inten    --      1.6343                 7.5260                14.8663

                     43                     44                     45
                      A                      A                      A
 Frequencies --   3083.4990              3114.3030              3127.6807
 Red. masses --      1.0572                 1.0996                 1.1023
 Frc consts  --      5.9225                 6.2835                 6.3534
 IR Inten    --     26.4730                12.2769                14.9541

                     46                     47                     48
                      A                      A                      A
 Frequencies --   3129.1405              3132.3630              3144.9195
 Red. masses --      1.0885                 1.0595                 1.1069
 Frc consts  --      6.2795                 6.1246                 6.4505
 IR Inten    --     38.5140                12.4478                31.3638

                     49                     50                     51
                      A                      A                      A
 Frequencies --   3189.1593              3214.7148              3777.3202
 Red. masses --      1.0927                 1.1140                 1.0656
 Frc consts  --      6.5479                 6.7833                 8.9581
 IR Inten    --      7.4588                10.5544                20.9132

 - Thermochemistry -
 -------------------
 Temperature   298.150 Kelvin.  Pressure   1.00000 Atm.
 Atom     1 has atomic number  6 and mass  12.00000

 Molecular mass:   126.06808 amu.
 Principal axes and moments of inertia in atomic units:
                           1         2         3
     Eigenvalues --   780.58470 871.837111189.65234
           X            0.97290   0.22974   0.02620
           Y           -0.22944   0.97322  -0.01401
           Z           -0.02872   0.00762   0.99956
 This molecule is an asymmetric top.
 Rotational symmetry number  1.
 Warning -- assumption of classical behavior for rotation
           may cause significant error
 Rotational temperatures (Kelvin)      0.11096     0.09935     0.07281
 Rotational constants (GHZ):           2.31204     2.07004     1.51703
 Zero-point vibrational energy     418343.2 (Joules/Mol)
                                   99.98642 (Kcal/Mol)
 Warning -- explicit consideration of  11 degrees of freedom as
           vibrations may cause significant error
 Vibrational temperatures:    231.63   267.02   363.66   428.73   524.92
          (Kelvin)            582.40   628.86   675.46   729.83   877.49
                              890.23   904.12  1028.20  1100.76  1195.42
                             1223.01  1250.56  1299.14  1364.98  1380.85
                             1394.83  1454.37  1469.15  1493.48  1556.34
                             1578.06  1601.23  1683.38  1750.12  1759.49
                             1806.72  1838.91  1858.09  1899.10  1911.27
                             2015.73  2043.10  2128.81  2137.37  2139.32
                             2182.87  4381.64  4436.46  4480.78  4500.03
                             4502.13  4506.77  4524.83  4588.48  4625.25
                             5434.71

 Zero-point correction=                           0.159338 (Hartree/Particle)
 Thermal correction to Energy=                    0.167019
 Thermal correction to Enthalpy=                  0.167963
 Thermal correction to Gibbs Free Energy=         0.127882
 Sum of electronic and zero-point Energies=           -422.976932
 Sum of electronic and thermal Energies=              -422.969252
 Sum of electronic and thermal Enthalpies=            -422.968308
 Sum of electronic and thermal Free Energies=         -423.008388

                     E (Thermal)             CV                S
                      KCal/Mol        Cal/Mol-Kelvin    Cal/Mol-Kelvin
 Total                  104.806             31.849             84.357
 Electronic               0.000              0.000              0.000
 Translational            0.889              2.981             40.409
 Rotational               0.889              2.981             28.184
 Vibrational            103.028             25.887             15.765
 Vibration     1          0.622              1.890              2.538
 Vibration     2          0.632              1.860              2.271
 Vibration     3          0.664              1.758              1.711
 Vibration     4          0.691              1.677              1.428
 Vibration     5          0.738              1.545              1.101
 Vibration     6          0.770              1.460              0.945
 Vibration     7          0.797              1.389              0.836
 Vibration     8          0.827              1.318              0.739
 Vibration     9          0.862              1.234              0.640
 Vibration    10          0.969              1.011              0.433
 Vibration    11          0.979              0.992              0.419

 Optimization completed.
    -- Stationary point found.
 Normal termination of Gaussian 09 at Mon Jan 27 19:50:00 2020.
