 Gaussian 09, Revision D.01,
 Gaussian 09:  ES64L-G09RevD.01 24-Apr-2013

 -----------------------------
 # b3lyp 6-31G(2df,p) opt Freq
 -----------------------------

 -----
 titel
 -----
 Symbolic Z-matrix:
 Charge =  0 Multiplicity = 1

 SCF Done:  E(RB3LYP) =  -423.182825751     A.U. after   13 cycles
 Optimization completed.
    -- Stationary point found.
 Normal termination of Gaussian 09 at Mon Jan 27 11:29:49 2020.

 ----------------------------------------------------------------------
 #N Geom=AllCheck Guess=TCheck SCRF=Check GenChk RB3LYP/6-31G(2df,p) Fr
 eq
 ----------------------------------------------------------------------

 Structure from the checkpoint file:  "/scratch/puck/g09_b8b60087-c51b-4b15-a535-6c6d092d98d1/Gau-60905.chk"
 -----
 titel
 -----
 Charge =  0 Multiplicity = 1

                         Standard orientation:
 ---------------------------------------------------------------------
 Center     Atomic      Atomic             Coordinates (Angstroms)
 Number     Number       Type             X           Y           Z
 ---------------------------------------------------------------------
      1          6           0        1.963687    0.342578    0.638807
      2          6           0        1.295641    1.329171   -0.364575
      3          6           0       -0.128524    0.792251   -0.636972
      4          6           0       -1.299694    1.256506    0.234776
      5          8           0       -2.227357    0.162433    0.239508
      6          6           0       -1.523192   -1.075191    0.095167
      7          6           0       -0.097335   -0.659604   -0.192641
      8          8           0        0.919770   -1.480859   -0.737269
      9          6           0        1.118889   -0.913709    0.581535
     10          1           0        3.016243    0.159890    0.402113
     11          1           0        1.928310    0.727655    1.664846
     12          1           0        1.292484    2.356017    0.012890
     13          1           0        1.855603    1.339328   -1.302092
     14          1           0       -0.403496    0.886230   -1.692621
     15          1           0       -0.960938    1.483525    1.259370
     16          1           0       -1.828578    2.131422   -0.151912
     17          1           0       -1.613956   -1.679039    1.007547
     18          1           0       -1.959620   -1.641514   -0.737082
     19          1           0        1.157820   -1.648119    1.382446
 ---------------------------------------------------------------------

 SCF Done:  E(RB3LYP) =  -423.182825751     A.U. after    1 cycles

 The electronic state is 1-A.
 Alpha  occ. eigenvalues --  -19.15355 -19.13735 -10.23629 -10.23469 -10.23050
 Alpha  occ. eigenvalues --  -10.23011 -10.19191 -10.19056 -10.19012  -1.07548
 Alpha  occ. eigenvalues --   -1.02977  -0.81832  -0.74349  -0.73358  -0.67394
 Alpha  occ. eigenvalues --   -0.60660  -0.58282  -0.55750  -0.51057  -0.49547
 Alpha  occ. eigenvalues --   -0.46514  -0.44971  -0.44530  -0.42469  -0.39876
 Alpha  occ. eigenvalues --   -0.38197  -0.36620  -0.35848  -0.35720  -0.34282
 Alpha  occ. eigenvalues --   -0.32022  -0.28104  -0.26225  -0.24869
 Alpha virt. eigenvalues --    0.08061   0.08426   0.09219   0.11163   0.12222
 Alpha virt. eigenvalues --    0.14232   0.14530   0.14747   0.15832   0.16021
 Alpha virt. eigenvalues --    0.17760   0.18679   0.20343   0.21236   0.21880

 Mulliken charges:
               1
     1  C   -0.243626
     2  C   -0.255845
     3  C   -0.084304
     4  C   -0.086942
     5  O   -0.269443
     6  C   -0.171287
     7  C    0.426749
     8  O   -0.326844
     9  C   -0.034386
    10  H    0.114668
    11  H    0.108038
    12  H    0.104713
    13  H    0.119043
    14  H    0.086400
    15  H    0.086583
    16  H    0.111090
    17  H    0.104063
    18  H    0.114572
    19  H    0.096759
 Sum of Mulliken charges =   0.00000

 Dipole moment (field-independent basis, Debye):
    X=              1.0585    Y=              1.1510    Z=              0.9986  Tot=              1.8554
 Quadrupole moment (field-independent basis, Debye-Ang):
   XX=            -57.2146   YY=            -52.3642   ZZ=            -52.3377
   XY=              2.3141   XZ=              2.7747   YZ=             -2.6569

  Exact polarizability:  79.597   1.787  75.476   3.897  -1.769  65.325
 Approx polarizability: 109.458  -1.027 107.596   4.987   1.552 103.649

                      1                      2                      3
                      A                      A                      A
 Frequencies --     91.6891               165.0135               199.1877
 Red. masses --      2.6831                 2.2825                 2.3053
 Frc consts  --      0.0133                 0.0366                 0.0539
 IR Inten    --      2.3837                 3.7622                 0.6364

                      4                      5                      6
                      A                      A                      A
 Frequencies --    282.8956               359.8311               420.6424
 Red. masses --      2.4735                 2.5945                 4.1488
 Frc consts  --      0.1166                 0.1979                 0.4325
 IR Inten    --      1.4266                 0.9530                 8.9154

                      7                      8                      9
                      A                      A                      A
 Frequencies --    521.7344               574.2220               654.1139
 Red. masses --      5.6621                 5.3173                 3.2701
 Frc consts  --      0.9081                 1.0330                 0.8244
 IR Inten    --      4.5801                 2.0798                 1.5838

                     10                     11                     12
                      A                      A                      A
 Frequencies --    698.3814               770.3876               798.3571
 Red. masses --      2.4885                 4.0123                 1.8406
 Frc consts  --      0.7151                 1.4030                 0.6912
 IR Inten    --      2.4714                 7.1764                 0.7183

                     13                     14                     15
                      A                      A                      A
 Frequencies --    850.9273               877.4903               920.7898
 Red. masses --      3.2595                 2.7312                 2.2982
 Frc consts  --      1.3905                 1.2391                 1.1481
 IR Inten    --      6.1734                14.6225                 2.7011

                     16                     17                     18
                      A                      A                      A
 Frequencies --    923.9859               956.1916               989.9735
 Red. masses --      4.1516                 1.9585                 1.9732
 Frc consts  --      2.0883                 1.0550                 1.1394
 IR Inten    --     29.3608                 4.3929                 9.9042

                     19                     20                     21
                      A                      A                      A
 Frequencies --   1012.8397              1048.3888              1071.0443
 Red. masses --      1.6776                 2.3760                 2.4015
 Frc consts  --      1.0140                 1.5387                 1.6231
 IR Inten    --      8.9739                37.4865                36.3343

                     22                     23                     24
                      A                      A                      A
 Frequencies --   1079.2601              1092.8093              1133.5310
 Red. masses --      1.8333                 4.2483                 2.4546
 Frc consts  --      1.2581                 2.9892                 1.8582
 IR Inten    --      3.4358                28.4369                 5.9275

                     25                     26                     27
                      A                      A                      A
 Frequencies --   1174.5835              1200.0968              1219.4523
 Red. masses --      1.3745                 1.3153                 1.2757
 Frc consts  --      1.1173                 1.1161                 1.1178
 IR Inten    --      4.2992                 1.5943                 2.7819

                     28                     29                     30
                      A                      A                      A
 Frequencies --   1228.9812              1240.1093              1287.5996
 Red. masses --      1.5465                 1.5082                 1.3630
 Frc consts  --      1.3762                 1.3665                 1.3314
 IR Inten    --      4.8034                 1.0314                 4.9678

                     31                     32                     33
                      A                      A                      A
 Frequencies --   1303.7346              1314.6733              1335.3132
 Red. masses --      1.4543                 1.4316                 1.3504
 Frc consts  --      1.4564                 1.4579                 1.4186
 IR Inten    --      5.6937                 1.7778                 1.7690

                     34                     35                     36
                      A                      A                      A
 Frequencies --   1346.2433              1358.6166              1400.0476
 Red. masses --      1.4536                 1.3814                 1.4562
 Frc consts  --      1.5521                 1.5023                 1.6818
 IR Inten    --      3.4214                 2.1896                 5.8435

                     37                     38                     39
                      A                      A                      A
 Frequencies --   1473.5656              1492.2063              1494.8164
 Red. masses --      1.2689                 2.8646                 1.1159
 Frc consts  --      1.6234                 3.7581                 1.4691
 IR Inten    --      5.0048                 8.1242                 4.4791

                     40                     41                     42
                      A                      A                      A
 Frequencies --   1516.5137              1526.2041              2965.9936
 Red. masses --      1.0956                 1.1012                 1.0715
 Frc consts  --      1.4845                 1.5112                 5.5536
 IR Inten    --      0.6755                 1.4490                57.2201

                     43                     44                     45
                      A                      A                      A
 Frequencies --   3011.8566              3040.7606              3047.1148
 Red. masses --      1.0578                 1.0627                 1.1064
 Frc consts  --      5.6537                 5.7893                 6.0528
 IR Inten    --     55.8100                24.4689                22.9038

                     46                     47                     48
                      A                      A                      A
 Frequencies --   3053.7731              3065.9001              3082.2958
 Red. masses --      1.0809                 1.0668                 1.1005
 Frc consts  --      5.9392                 5.9080                 6.1604
 IR Inten    --     29.7974                26.0880                12.8937

                     49                     50                     51
                      A                      A                      A
 Frequencies --   3092.0620              3110.1430              3145.6166
 Red. masses --      1.0931                 1.1027                 1.0909
 Frc consts  --      6.1577                 6.2842                 6.3601
 IR Inten    --     43.1305                26.5785                23.9030

 - Thermochemistry -
 -------------------
 Temperature   298.150 Kelvin.  Pressure   1.00000 Atm.
 Atom     1 has atomic number  6 and mass  12.00000

 Molecular mass:   126.06808 amu.
 Principal axes and moments of inertia in atomic units:
                           1         2         3
     Eigenvalues --   628.359541043.372851394.95399
           X            0.99862   0.05060   0.01410
           Y           -0.05016   0.99828  -0.03021
           Z           -0.01560   0.02947   0.99944
 This molecule is an asymmetric top.
 Rotational symmetry number  1.
 Warning -- assumption of classical behavior for rotation
           may cause significant error
 Rotational temperatures (Kelvin)      0.13784     0.08301     0.06209
 Rotational constants (GHZ):           2.87215     1.72972     1.29376
 Zero-point vibrational energy     424805.7 (Joules/Mol)
                                  101.53099 (Kcal/Mol)
 Warning -- explicit consideration of   8 degrees of freedom as
           vibrations may cause significant error
 Vibrational temperatures:    131.92   237.42   286.59   407.02   517.72
          (Kelvin)            605.21   750.66   826.18   941.12  1004.81
                             1108.41  1148.66  1224.29  1262.51  1324.81
                             1329.41  1375.74  1424.35  1457.25  1508.40
                             1540.99  1552.81  1572.31  1630.90  1689.96
                             1726.67  1754.52  1768.23  1784.24  1852.57
                             1875.78  1891.52  1921.22  1936.94  1954.74
                             2014.35  2120.13  2146.95  2150.70  2181.92
                             2195.86  4267.40  4333.38  4374.97  4384.11
                             4393.69  4411.14  4434.73  4448.78  4474.80
                             4525.84

 Zero-point correction=                           0.161800 (Hartree/Particle)
 Thermal correction to Energy=                    0.169086
 Thermal correction to Enthalpy=                  0.170031
 Thermal correction to Gibbs Free Energy=         0.129955
 Sum of electronic and zero-point Energies=           -423.021026
 Sum of electronic and thermal Energies=              -423.013739
 Sum of electronic and thermal Enthalpies=            -423.012795
 Sum of electronic and thermal Free Energies=         -423.052871

                     E (Thermal)             CV                S
                      KCal/Mol        Cal/Mol-Kelvin    Cal/Mol-Kelvin
 Total                  106.103             28.705             84.347
 Electronic               0.000              0.000              0.000
 Translational            0.889              2.981             40.409
 Rotational               0.889              2.981             28.305
 Vibrational            104.326             22.744             15.633
 Vibration     1          0.602              1.955              3.624
 Vibration     2          0.623              1.885              2.492
 Vibration     3          0.637              1.841              2.141
 Vibration     4          0.682              1.705              1.516
 Vibration     5          0.734              1.555              1.123
 Vibration     6          0.783              1.425              0.890
 Vibration     7          0.877              1.202              0.606
 Vibration     8          0.931              1.087              0.496

 Optimization completed.
    -- Stationary point found.
 Normal termination of Gaussian 09 at Mon Jan 27 13:51:22 2020.
