 Gaussian 09, Revision D.01,
 Gaussian 09:  ES64L-G09RevD.01 24-Apr-2013

 -----------------------------
 # b3lyp 6-31G(2df,p) opt Freq
 -----------------------------

 -----
 titel
 -----
 Symbolic Z-matrix:
 Charge =  0 Multiplicity = 1

 SCF Done:  E(RB3LYP) =  -423.079938944     A.U. after   14 cycles
 Optimization completed.
    -- Stationary point found.
 Normal termination of Gaussian 09 at Tue Jan 28 12:42:53 2020.

 ----------------------------------------------------------------------
 #N Geom=AllCheck Guess=TCheck SCRF=Check GenChk RB3LYP/6-31G(2df,p) Fr
 eq
 ----------------------------------------------------------------------

 Structure from the checkpoint file:  "/scratch/puck/g09_1753eb02-0ea0-4e48-81c6-77f835f91426/Gau-3357.chk"
 -----
 titel
 -----
 Charge =  0 Multiplicity = 1

                         Standard orientation:
 ---------------------------------------------------------------------
 Center     Atomic      Atomic             Coordinates (Angstroms)
 Number     Number       Type             X           Y           Z
 ---------------------------------------------------------------------
      1          6           0        2.883958    0.104748   -0.081767
      2          8           0        1.752530   -0.698164   -0.338788
      3          6           0        0.677496   -0.460806    0.533053
      4          6           0       -0.551074   -1.326463    0.241744
      5          6           0       -1.020067   -0.386562   -0.910945
      6          8           0       -2.374689   -0.221591   -0.392349
      7          6           0       -1.517612   -0.236286    0.788743
      8          6           0       -0.374385    0.604530    0.124184
      9          6           0       -0.304477    2.100178    0.018580
     10          1           0        3.250599   -0.031762    0.947542
     11          1           0        3.666871   -0.206134   -0.777634
     12          1           0        2.680328    1.174619   -0.234395
     13          1           0        1.020929   -0.424754    1.578601
     14          1           0       -0.672709   -2.406535    0.301198
     15          1           0       -0.876056   -0.470549   -1.986255
     16          1           0       -1.976245   -0.139188    1.772321
     17          1           0       -0.035951    2.557208    0.977284
     18          1           0        0.436105    2.414535   -0.724151
     19          1           0       -1.279627    2.494565   -0.286966
 ---------------------------------------------------------------------

 SCF Done:  E(RB3LYP) =  -423.079938944     A.U. after    1 cycles

 The electronic state is 1-A.
 Alpha  occ. eigenvalues --  -19.14369 -19.12682 -10.24659 -10.24430 -10.23756
 Alpha  occ. eigenvalues --  -10.22781 -10.20352 -10.19784 -10.18289  -1.06161
 Alpha  occ. eigenvalues --   -1.03536  -0.86375  -0.73777  -0.70116  -0.65415
 Alpha  occ. eigenvalues --   -0.61717  -0.61205  -0.52454  -0.49561  -0.49231
 Alpha  occ. eigenvalues --   -0.47192  -0.46452  -0.42731  -0.42194  -0.41153
 Alpha  occ. eigenvalues --   -0.39761  -0.38405  -0.35051  -0.32207  -0.31474
 Alpha  occ. eigenvalues --   -0.30550  -0.29392  -0.25554  -0.22748
 Alpha virt. eigenvalues --    0.08154   0.09188   0.10917   0.11430   0.12227
 Alpha virt. eigenvalues --    0.13163   0.13981   0.14502   0.15130   0.15800
 Alpha virt. eigenvalues --    0.16242   0.18140   0.18691   0.18975   0.20214

 Mulliken charges:
               1
     1  C   -0.240879
     2  O   -0.255821
     3  C    0.081247
     4  C   -0.148785
     5  C    0.055299
     6  O   -0.332953
     7  C    0.041095
     8  C    0.265367
     9  C   -0.535564
    10  H    0.106646
    11  H    0.129160
    12  H    0.109015
    13  H    0.060677
    14  H    0.086761
    15  H    0.101446
    16  H    0.093112
    17  H    0.119958
    18  H    0.126570
    19  H    0.137650
 Sum of Mulliken charges =   0.00000

 Dipole moment (field-independent basis, Debye):
    X=              1.9223    Y=              0.9073    Z=              1.1664  Tot=              2.4247
 Quadrupole moment (field-independent basis, Debye-Ang):
   XX=            -57.2387   YY=            -52.7079   ZZ=            -50.5957
   XY=              1.4798   XZ=             -1.4518   YZ=             -0.6184

  Exact polarizability:  83.891   1.589  74.028  -1.036  -0.399  68.814
 Approx polarizability: 114.493   1.118 105.809  -0.967   0.811 109.049

                      1                      2                      3
                      A                      A                      A
 Frequencies --     85.9297               145.4546               159.2136
 Red. masses --      2.6121                 3.1454                 1.2987
 Frc consts  --      0.0114                 0.0392                 0.0194
 IR Inten    --      1.6239                 0.6918                 0.1157

                      4                      5                      6
                      A                      A                      A
 Frequencies --    213.1952               240.1315               281.8379
 Red. masses --      2.4985                 1.0709                 2.7915
 Frc consts  --      0.0669                 0.0364                 0.1306
 IR Inten    --      1.4498                 0.1099                 4.0225

                      7                      8                      9
                      A                      A                      A
 Frequencies --    316.4932               387.4961               520.9531
 Red. masses --      2.7713                 4.2684                 4.8331
 Frc consts  --      0.1636                 0.3776                 0.7728
 IR Inten    --      3.1722                 1.8769                 4.8225

                     10                     11                     12
                      A                      A                      A
 Frequencies --    596.1373               678.7382               747.5031
 Red. masses --      3.2068                 3.5237                 3.5786
 Frc consts  --      0.6715                 0.9564                 1.1781
 IR Inten    --      0.7565                 4.5197                 0.2873

                     13                     14                     15
                      A                      A                      A
 Frequencies --    794.4537               815.5188               848.5430
 Red. masses --      3.1556                 3.2738                 2.2927
 Frc consts  --      1.1734                 1.2828                 0.9726
 IR Inten    --      0.9003                 6.4540                 1.3706

                     16                     17                     18
                      A                      A                      A
 Frequencies --    870.7049               900.0627               928.0749
 Red. masses --      2.4244                 3.2115                 2.4485
 Frc consts  --      1.0829                 1.5328                 1.2426
 IR Inten    --      8.5658                45.7244                 7.6409

                     19                     20                     21
                      A                      A                      A
 Frequencies --    972.5441              1001.8923              1018.6206
 Red. masses --      1.5544                 1.5206                 3.3407
 Frc consts  --      0.8662                 0.8993                 2.0423
 IR Inten    --      1.7448                 3.2892                29.2382

                     22                     23                     24
                      A                      A                      A
 Frequencies --   1081.1059              1107.1173              1135.9999
 Red. masses --      3.4555                 1.5580                 1.9090
 Frc consts  --      2.3796                 1.1251                 1.4515
 IR Inten    --      1.5649                11.8453                 5.8860

                     25                     26                     27
                      A                      A                      A
 Frequencies --   1147.0129              1156.9779              1158.4647
 Red. masses --      3.1933                 1.6071                 1.8111
 Frc consts  --      2.4753                 1.2675                 1.4320
 IR Inten    --    140.4450                18.4602                 2.1841

                     28                     29                     30
                      A                      A                      A
 Frequencies --   1172.5617              1183.5064              1222.2642
 Red. masses --      1.6083                 1.3357                 1.7832
 Frc consts  --      1.3028                 1.1023                 1.5695
 IR Inten    --     16.9040                 8.6193                46.6635

                     31                     32                     33
                      A                      A                      A
 Frequencies --   1241.4645              1274.0936              1305.5495
 Red. masses --      1.9117                 2.0337                 2.1037
 Frc consts  --      1.7360                 1.9451                 2.1126
 IR Inten    --     15.7756                 2.2474                13.6658

                     34                     35                     36
                      A                      A                      A
 Frequencies --   1353.0497              1403.7349              1415.1071
 Red. masses --      1.9963                 1.2832                 1.8299
 Frc consts  --      2.1533                 1.4898                 2.1590
 IR Inten    --     15.0951                12.8758                23.1650

                     37                     38                     39
                      A                      A                      A
 Frequencies --   1481.8295              1486.9580              1488.4451
 Red. masses --      1.1209                 1.0730                 1.0570
 Frc consts  --      1.4501                 1.3978                 1.3797
 IR Inten    --      3.4329                 1.2568                 7.7023

                     40                     41                     42
                      A                      A                      A
 Frequencies --   1494.8052              1509.6380              2976.0687
 Red. masses --      1.0554                 1.0685                 1.0489
 Frc consts  --      1.3894                 1.4347                 5.4735
 IR Inten    --      7.9388                 3.0740                27.7311

                     43                     44                     45
                      A                      A                      A
 Frequencies --   2986.5792              3027.2463              3029.9074
 Red. masses --      1.0714                 1.0661                 1.0682
 Frc consts  --      5.6304                 5.7561                 5.7779
 IR Inten    --     89.2400                14.1432                62.8612

                     46                     47                     48
                      A                      A                      A
 Frequencies --   3095.6523              3100.5033              3115.6695
 Red. masses --      1.1009                 1.1008                 1.0968
 Frc consts  --      6.2160                 6.2349                 6.2729
 IR Inten    --     18.2623                17.0085                27.2796

                     49                     50                     51
                      A                      A                      A
 Frequencies --   3121.3663              3135.3448              3147.7808
 Red. masses --      1.0900                 1.0895                 1.0990
 Frc consts  --      6.2568                 6.3102                 6.4159
 IR Inten    --     41.0814                41.0836                21.7353

 - Thermochemistry -
 -------------------
 Temperature   298.150 Kelvin.  Pressure   1.00000 Atm.
 Atom     1 has atomic number  6 and mass  12.00000

 Molecular mass:   126.06808 amu.
 Principal axes and moments of inertia in atomic units:
                           1         2         3
     Eigenvalues --   561.879801319.100411602.70507
           X            0.99995   0.01012  -0.00231
           Y           -0.01014   0.99990  -0.00949
           Z            0.00222   0.00952   0.99995
 This molecule is an asymmetric top.
 Rotational symmetry number  1.
 Warning -- assumption of classical behavior for rotation
           may cause significant error
 Rotational temperatures (Kelvin)      0.15415     0.06566     0.05404
 Rotational constants (GHZ):           3.21197     1.36816     1.12606
 Zero-point vibrational energy     413186.0 (Joules/Mol)
                                   98.75382 (Kcal/Mol)
 Warning -- explicit consideration of  10 degrees of freedom as
           vibrations may cause significant error
 Vibrational temperatures:    123.63   209.28   229.07   306.74   345.50
          (Kelvin)            405.50   455.36   557.52   749.53   857.71
                              976.55  1075.49  1143.04  1173.35  1220.86
                             1252.75  1294.99  1335.29  1399.27  1441.50
                             1465.57  1555.47  1592.89  1634.45  1650.29
                             1664.63  1666.77  1687.05  1702.80  1758.56
                             1786.19  1833.13  1878.39  1946.73  2019.66
                             2036.02  2132.02  2139.40  2141.54  2150.69
                             2172.03  4281.89  4297.02  4355.53  4359.36
                             4453.95  4460.93  4482.75  4490.94  4511.06
                             4528.95

 Zero-point correction=                           0.157374 (Hartree/Particle)
 Thermal correction to Energy=                    0.165806
 Thermal correction to Enthalpy=                  0.166751
 Thermal correction to Gibbs Free Energy=         0.124323
 Sum of electronic and zero-point Energies=           -422.922565
 Sum of electronic and thermal Energies=              -422.914132
 Sum of electronic and thermal Enthalpies=            -422.913188
 Sum of electronic and thermal Free Energies=         -422.955616

                     E (Thermal)             CV                S
                      KCal/Mol        Cal/Mol-Kelvin    Cal/Mol-Kelvin
 Total                  104.045             31.889             89.296
 Electronic               0.000              0.000              0.000
 Translational            0.889              2.981             40.409
 Rotational               0.889              2.981             28.565
 Vibrational            102.268             25.927             20.323
 Vibration     1          0.601              1.959              3.751
 Vibration     2          0.617              1.908              2.731
 Vibration     3          0.621              1.892              2.559
 Vibration     4          0.644              1.821              2.016
 Vibration     5          0.657              1.779              1.802
 Vibration     6          0.681              1.707              1.522
 Vibration     7          0.703              1.642              1.328
 Vibration     8          0.756              1.497              1.010
 Vibration     9          0.876              1.204              0.608
 Vibration    10          0.954              1.040              0.456

 Optimization completed.
    -- Stationary point found.
 Normal termination of Gaussian 09 at Tue Jan 28 13:29:59 2020.
