 Gaussian 09, Revision D.01,
 Gaussian 09:  ES64L-G09RevD.01 24-Apr-2013

 -----------------------------
 # b3lyp 6-31G(2df,p) opt Freq
 -----------------------------

 -----
 titel
 -----
 Symbolic Z-matrix:
 Charge =  0 Multiplicity = 1

 SCF Done:  E(RB3LYP) =  -423.173854810     A.U. after   13 cycles
 Optimization completed.
    -- Stationary point found.
 Normal termination of Gaussian 09 at Tue Jan 28 08:13:28 2020.

 ----------------------------------------------------------------------
 #N Geom=AllCheck Guess=TCheck SCRF=Check GenChk RB3LYP/6-31G(2df,p) Fr
 eq
 ----------------------------------------------------------------------

 Structure from the checkpoint file:  "/scratch/puck/g09_a5250fa6-24cf-46f4-92ad-08feb970fd2d/Gau-81116.chk"
 -----
 titel
 -----
 Charge =  0 Multiplicity = 1

                         Standard orientation:
 ---------------------------------------------------------------------
 Center     Atomic      Atomic             Coordinates (Angstroms)
 Number     Number       Type             X           Y           Z
 ---------------------------------------------------------------------
      1          8           0       -2.567007   -0.160206    0.790099
      2          6           0       -1.788204    0.053852   -0.386575
      3          6           0       -0.833392   -1.112276   -0.647810
      4          8           0        0.246916   -1.070830    0.282798
      5          6           0        1.059572    0.056885    0.089600
      6          6           0        2.377414   -0.166701   -0.641824
      7          6           0        2.351129    0.016284    0.855977
      8          6           0        0.318473    1.322704   -0.093064
      9          6           0       -0.998994    1.338819   -0.303677
     10          1           0       -1.936182   -0.229369    1.516867
     11          1           0       -2.517990    0.108414   -1.202955
     12          1           0       -1.346586   -2.062161   -0.480645
     13          1           0       -0.455549   -1.082134   -1.681153
     14          1           0        2.544929   -1.169386   -1.017661
     15          1           0        2.770750    0.631810   -1.260989
     16          1           0        2.504013   -0.863818    1.469897
     17          1           0        2.725460    0.942049    1.278813
     18          1           0        0.898088    2.241091   -0.048984
     19          1           0       -1.542195    2.274392   -0.392135
 ---------------------------------------------------------------------

 SCF Done:  E(RB3LYP) =  -423.173854810     A.U. after    1 cycles

 The electronic state is 1-A.
 Alpha  occ. eigenvalues --  -19.14927 -19.12919 -10.24709 -10.23132 -10.22524
 Alpha  occ. eigenvalues --  -10.19210 -10.19172 -10.19078 -10.18166  -1.04866
 Alpha  occ. eigenvalues --   -1.00868  -0.85829  -0.79173  -0.72515  -0.64071
 Alpha  occ. eigenvalues --   -0.61061  -0.60510  -0.53671  -0.51708  -0.49845
 Alpha  occ. eigenvalues --   -0.47348  -0.45488  -0.43792  -0.42048  -0.41025
 Alpha  occ. eigenvalues --   -0.39552  -0.37428  -0.36053  -0.32713  -0.32597
 Alpha  occ. eigenvalues --   -0.30294  -0.27672  -0.25775  -0.22920
 Alpha virt. eigenvalues --    0.00757   0.08428   0.10881   0.11035   0.12035
 Alpha virt. eigenvalues --    0.12616   0.14420   0.15196   0.15405   0.16895
 Alpha virt. eigenvalues --    0.18328   0.19624   0.20286   0.21955   0.22389

 Mulliken charges:
               1
     1  O   -0.435837
     2  C    0.087221
     3  C   -0.128617
     4  O   -0.308242
     5  C    0.409343
     6  C   -0.321931
     7  C   -0.326174
     8  C   -0.089686
     9  C   -0.145692
    10  H    0.280712
    11  H    0.087551
    12  H    0.112468
    13  H    0.092739
    14  H    0.126894
    15  H    0.116576
    16  H    0.130746
    17  H    0.118153
    18  H    0.097039
    19  H    0.096737
 Sum of Mulliken charges =   0.00000

 Dipole moment (field-independent basis, Debye):
    X=              1.6435    Y=              0.7555    Z=             -0.7817  Tot=              1.9705
 Quadrupole moment (field-independent basis, Debye-Ang):
   XX=            -57.2180   YY=            -51.5219   ZZ=            -51.3851
   XY=              0.9483   XZ=              2.4616   YZ=              0.7969

  Exact polarizability: 101.128  -0.042  71.646   4.004   0.422  64.146
 Approx polarizability: 145.476  -0.537 102.586   5.455  -1.583  99.325

                      1                      2                      3
                      A                      A                      A
 Frequencies --     81.4526               169.3326               202.1314
 Red. masses --      4.3799                 3.7611                 3.0656
 Frc consts  --      0.0171                 0.0635                 0.0738
 IR Inten    --      0.6261                 5.7549                 0.4544

                      4                      5                      6
                      A                      A                      A
 Frequencies --    295.1690               337.5025               379.6653
 Red. masses --      2.5158                 1.8866                 1.4735
 Frc consts  --      0.1291                 0.1266                 0.1251
 IR Inten    --      0.1242                18.3658                33.1649

                      7                      8                      9
                      A                      A                      A
 Frequencies --    404.5636               453.9638               463.1438
 Red. masses --      2.0661                 4.4026                 2.6844
 Frc consts  --      0.1992                 0.5346                 0.3393
 IR Inten    --     34.3086                 4.5043                 8.1076

                     10                     11                     12
                      A                      A                      A
 Frequencies --    555.1942               610.2743               719.4772
 Red. masses --      5.2800                 3.3726                 4.3025
 Frc consts  --      0.9589                 0.7401                 1.3122
 IR Inten    --      3.0353                 2.1657                 1.9541

                     13                     14                     15
                      A                      A                      A
 Frequencies --    763.7171               775.1007               830.5806
 Red. masses --      1.4843                 1.1361                 3.0743
 Frc consts  --      0.5101                 0.4022                 1.2496
 IR Inten    --      7.2640                 2.1832                21.2173

                     16                     17                     18
                      A                      A                      A
 Frequencies --    852.9256               898.5151               915.7899
 Red. masses --      2.9896                 2.0900                 1.8491
 Frc consts  --      1.2814                 0.9941                 0.9137
 IR Inten    --     15.5513                24.7368                 7.2288

                     19                     20                     21
                      A                      A                      A
 Frequencies --    935.8146               963.4230               991.2329
 Red. masses --      2.0489                 2.3210                 1.3012
 Frc consts  --      1.0572                 1.2693                 0.7532
 IR Inten    --      7.3776                18.5390                 1.4533

                     22                     23                     24
                      A                      A                      A
 Frequencies --    996.9922              1027.5612              1053.2242
 Red. masses --      2.8895                 1.9556                 1.6004
 Frc consts  --      1.6922                 1.2166                 1.0460
 IR Inten    --     53.6741                42.2086                 5.7778

                     25                     26                     27
                      A                      A                      A
 Frequencies --   1078.5814              1105.4696              1112.7271
 Red. masses --      1.4152                 3.0240                 2.3809
 Frc consts  --      0.9700                 2.1773                 1.7369
 IR Inten    --      3.7863                62.2240                41.7565

                     28                     29                     30
                      A                      A                      A
 Frequencies --   1169.0336              1193.4458              1257.6474
 Red. masses --      1.2087                 1.2794                 1.2394
 Frc consts  --      0.9733                 1.0736                 1.1550
 IR Inten    --      6.1352                 0.0295                26.7237

                     31                     32                     33
                      A                      A                      A
 Frequencies --   1284.3702              1301.7766              1311.5253
 Red. masses --      1.5334                 2.6428                 1.5856
 Frc consts  --      1.4904                 2.6387                 1.6069
 IR Inten    --      1.3797                40.3659                 4.5968

                     34                     35                     36
                      A                      A                      A
 Frequencies --   1346.2123              1397.4811              1417.8074
 Red. masses --      1.6889                 1.4277                 1.3479
 Frc consts  --      1.8033                 1.6428                 1.5964
 IR Inten    --     21.1437                 2.2543                52.0226

                     37                     38                     39
                      A                      A                      A
 Frequencies --   1436.9910              1451.1604              1482.0403
 Red. masses --      1.5688                 1.0928                 1.1766
 Frc consts  --      1.9087                 1.3558                 1.5227
 IR Inten    --     20.9927                 1.9343                 3.9230

                     40                     41                     42
                      A                      A                      A
 Frequencies --   1491.0012              1702.6079              2992.3407
 Red. masses --      1.3005                 7.1107                 1.0683
 Frc consts  --      1.7033                12.1449                 5.6360
 IR Inten    --      3.3495                 9.0334                39.6267

                     43                     44                     45
                      A                      A                      A
 Frequencies --   3047.5050              3105.8501              3136.3444
 Red. masses --      1.0845                 1.0959                 1.0500
 Frc consts  --      5.9343                 6.2286                 6.0852
 IR Inten    --     41.2990                25.0002                13.0294

                     46                     47                     48
                      A                      A                      A
 Frequencies --   3138.8177              3157.7183              3184.1399
 Red. masses --      1.0583                 1.0851                 1.0970
 Frc consts  --      6.1433                 6.3750                 6.5530
 IR Inten    --      5.4909                 5.8140                16.9040

                     49                     50                     51
                      A                      A                      A
 Frequencies --   3222.6556              3237.0405              3790.3242
 Red. masses --      1.1188                 1.1163                 1.0656
 Frc consts  --      6.8461                 6.8920                 9.0200
 IR Inten    --      0.2613                 8.4850                15.1272

 - Thermochemistry -
 -------------------
 Temperature   298.150 Kelvin.  Pressure   1.00000 Atm.
 Atom     1 has atomic number  8 and mass  15.99491

 Molecular mass:   126.06808 amu.
 Principal axes and moments of inertia in atomic units:
                           1         2         3
     Eigenvalues --   508.171441442.117481618.08763
           X            0.99994   0.00396   0.00997
           Y           -0.00429   0.99943   0.03337
           Z           -0.00983  -0.03341   0.99939
 This molecule is an asymmetric top.
 Rotational symmetry number  1.
 Warning -- assumption of classical behavior for rotation
           may cause significant error
 Rotational temperatures (Kelvin)      0.17044     0.06006     0.05353
 Rotational constants (GHZ):           3.55144     1.25145     1.11535
 Zero-point vibrational energy     420064.9 (Joules/Mol)
                                  100.39791 (Kcal/Mol)
 Warning -- explicit consideration of  11 degrees of freedom as
           vibrations may cause significant error
 Vibrational temperatures:    117.19   243.63   290.82   424.68   485.59
          (Kelvin)            546.25   582.08   653.15   666.36   798.80
                              878.05  1035.17  1098.82  1115.20  1195.02
                             1227.17  1292.76  1317.62  1346.43  1386.15
                             1426.16  1434.45  1478.43  1515.35  1551.84
                             1590.52  1600.96  1681.98  1717.10  1809.47
                             1847.92  1872.96  1886.99  1936.90  2010.66
                             2039.91  2067.51  2087.89  2132.32  2145.22
                             2449.67  4305.31  4384.67  4468.62  4512.49
                             4516.05  4543.25  4581.26  4636.68  4657.37
                             5453.42

 Zero-point correction=                           0.159994 (Hartree/Particle)
 Thermal correction to Energy=                    0.168011
 Thermal correction to Enthalpy=                  0.168955
 Thermal correction to Gibbs Free Energy=         0.127614
 Sum of electronic and zero-point Energies=           -423.013861
 Sum of electronic and thermal Energies=              -423.005844
 Sum of electronic and thermal Enthalpies=            -423.004900
 Sum of electronic and thermal Free Energies=         -423.046241

                     E (Thermal)             CV                S
                      KCal/Mol        Cal/Mol-Kelvin    Cal/Mol-Kelvin
 Total                  105.428             31.981             87.010
 Electronic               0.000              0.000              0.000
 Translational            0.889              2.981             40.409
 Rotational               0.889              2.981             28.563
 Vibrational            103.651             26.020             18.038
 Vibration     1          0.600              1.962              3.856
 Vibration     2          0.625              1.880              2.443
 Vibration     3          0.639              1.837              2.114
 Vibration     4          0.689              1.683              1.444
 Vibration     5          0.718              1.601              1.224
 Vibration     6          0.750              1.514              1.041
 Vibration     7          0.770              1.460              0.946
 Vibration     8          0.812              1.352              0.784
 Vibration     9          0.821              1.332              0.757
 Vibration    10          0.911              1.128              0.534
 Vibration    11          0.969              1.010              0.432

 Optimization completed.
    -- Stationary point found.
 Normal termination of Gaussian 09 at Tue Jan 28 09:01:18 2020.
