 Gaussian 09, Revision D.01,
 Gaussian 09:  ES64L-G09RevD.01 24-Apr-2013

 -----------------------------
 # b3lyp 6-31G(2df,p) opt Freq
 -----------------------------

 -----
 titel
 -----
 Symbolic Z-matrix:
 Charge =  0 Multiplicity = 1

 SCF Done:  E(RB3LYP) =  -423.206668596     A.U. after   14 cycles
 Optimization completed.
    -- Stationary point found.
 Normal termination of Gaussian 09 at Mon Jan 27 18:51:16 2020.

 ----------------------------------------------------------------------
 #N Geom=AllCheck Guess=TCheck SCRF=Check GenChk RB3LYP/6-31G(2df,p) Fr
 eq
 ----------------------------------------------------------------------

 Structure from the checkpoint file:  "/scratch/puck/g09_97efdb27-926a-4be7-a253-23290c4a85af/Gau-64446.chk"
 -----
 titel
 -----
 Charge =  0 Multiplicity = 1

                         Standard orientation:
 ---------------------------------------------------------------------
 Center     Atomic      Atomic             Coordinates (Angstroms)
 Number     Number       Type             X           Y           Z
 ---------------------------------------------------------------------
      1          6           0       -1.093481   -1.641072    0.943184
      2          6           0       -0.253407   -0.665601    0.141543
      3          6           0        0.548012   -1.205022   -1.075252
      4          8           0        1.754439   -0.561509   -0.625077
      5          6           0        1.134341   -0.167327    0.624219
      6          6           0        1.073745    1.353630    0.782385
      7          6           0       -0.032220    1.800001   -0.188834
      8          6           0       -1.007144    0.618844   -0.233726
      9          8           0       -2.180381    0.672631   -0.501110
     10          1           0       -1.375963   -1.217618    1.912740
     11          1           0       -2.018443   -1.866903    0.404404
     12          1           0       -0.552513   -2.574680    1.124177
     13          1           0        0.638912   -2.299514   -1.077113
     14          1           0        0.241316   -0.870360   -2.073431
     15          1           0        1.589060   -0.683952    1.476834
     16          1           0        0.798003    1.594460    1.816226
     17          1           0        2.045533    1.811121    0.580121
     18          1           0       -0.548428    2.721703    0.084591
     19          1           0        0.370982    1.936043   -1.200166
 ---------------------------------------------------------------------

 SCF Done:  E(RB3LYP) =  -423.206668596     A.U. after    1 cycles

 The electronic state is 1-A.
 Alpha  occ. eigenvalues --  -19.14015 -19.13515 -10.26922 -10.24065 -10.24052
 Alpha  occ. eigenvalues --  -10.20448 -10.19444 -10.19389 -10.18610  -1.05099
 Alpha  occ. eigenvalues --   -1.04152  -0.82829  -0.77550  -0.70661  -0.67264
 Alpha  occ. eigenvalues --   -0.64464  -0.57399  -0.51973  -0.49939  -0.48844
 Alpha  occ. eigenvalues --   -0.46201  -0.44247  -0.43542  -0.41939  -0.41446
 Alpha  occ. eigenvalues --   -0.39912  -0.39089  -0.37735  -0.36104  -0.34683
 Alpha  occ. eigenvalues --   -0.31325  -0.31098  -0.26030  -0.24057
 Alpha virt. eigenvalues --   -0.02287   0.07617   0.08586   0.11096   0.11671
 Alpha virt. eigenvalues --    0.13521   0.14164   0.14938   0.15914   0.16120
 Alpha virt. eigenvalues --    0.17200   0.18545   0.19315   0.20336   0.22111

 Mulliken charges:
               1
     1  C   -0.484610
     2  C    0.153185
     3  C   -0.110209
     4  O   -0.299279
     5  C    0.089259
     6  C   -0.240731
     7  C   -0.324855
     8  C    0.368946
     9  O   -0.325682
    10  H    0.123134
    11  H    0.143909
    12  H    0.117156
    13  H    0.105398
    14  H    0.112610
    15  H    0.074592
    16  H    0.107433
    17  H    0.119296
    18  H    0.128193
    19  H    0.142255
 Sum of Mulliken charges =   0.00000

 Dipole moment (field-independent basis, Debye):
    X=              1.0696    Y=             -0.2226    Z=              1.2217  Tot=              1.6389
 Quadrupole moment (field-independent basis, Debye-Ang):
   XX=            -63.7307   YY=            -49.7935   ZZ=            -50.9579
   XY=              3.2043   XZ=              0.1427   YZ=              0.7436

  Exact polarizability:  75.213   1.768  79.279   1.983   1.188  68.303
 Approx polarizability: 117.429  -0.130 106.112   3.241   2.269 102.612

                      1                      2                      3
                      A                      A                      A
 Frequencies --     82.1860               153.6315               175.9757
 Red. masses --      4.4188                 2.5662                 1.0593
 Frc consts  --      0.0176                 0.0357                 0.0193
 IR Inten    --      5.4559                 3.9305                 0.4849

                      4                      5                      6
                      A                      A                      A
 Frequencies --    215.5130               258.4150               290.4056
 Red. masses --      2.4569                 2.9131                 2.7056
 Frc consts  --      0.0672                 0.1146                 0.1344
 IR Inten    --      1.1005                 0.6369                 3.2222

                      7                      8                      9
                      A                      A                      A
 Frequencies --    376.1106               475.0907               493.3738
 Red. masses --      2.4945                 3.8821                 2.7370
 Frc consts  --      0.2079                 0.5163                 0.3925
 IR Inten    --      5.5525                 4.8788                 1.7480

                     10                     11                     12
                      A                      A                      A
 Frequencies --    603.6841               635.3072               680.0371
 Red. masses --      2.7462                 3.8653                 4.6562
 Frc consts  --      0.5897                 0.9192                 1.2687
 IR Inten    --      0.5222                 1.6196                 1.4804

                     13                     14                     15
                      A                      A                      A
 Frequencies --    781.3718               804.1946               875.0048
 Red. masses --      2.9740                 2.0934                 2.4090
 Frc consts  --      1.0698                 0.7977                 1.0867
 IR Inten    --      3.5319                 3.0949                 3.6002

                     16                     17                     18
                      A                      A                      A
 Frequencies --    896.2030               904.5005               970.2514
 Red. masses --      2.4725                 2.2022                 2.1045
 Frc consts  --      1.1701                 1.0615                 1.1672
 IR Inten    --     22.6841                 8.5913                 9.0248

                     19                     20                     21
                      A                      A                      A
 Frequencies --    982.1788              1012.7832              1036.2354
 Red. masses --      1.4384                 3.2207                 2.0759
 Frc consts  --      0.8175                 1.9464                 1.3133
 IR Inten    --      3.3549                36.4578                15.7965

                     22                     23                     24
                      A                      A                      A
 Frequencies --   1050.4463              1090.7242              1140.0598
 Red. masses --      2.5959                 3.0759                 1.4483
 Frc consts  --      1.6877                 2.1560                 1.1091
 IR Inten    --     36.7320                56.3084                 3.7627

                     25                     26                     27
                      A                      A                      A
 Frequencies --   1153.2676              1173.0088              1181.3252
 Red. masses --      1.2928                 2.0547                 1.7905
 Frc consts  --      1.0131                 1.6657                 1.4722
 IR Inten    --      6.7846                 1.4653                 4.0597

                     28                     29                     30
                      A                      A                      A
 Frequencies --   1230.2236              1249.1868              1281.7029
 Red. masses --      2.7746                 2.0628                 1.3369
 Frc consts  --      2.4741                 1.8966                 1.2940
 IR Inten    --      3.2580                13.2752                 0.9806

                     31                     32                     33
                      A                      A                      A
 Frequencies --   1296.9520              1328.0821              1358.4809
 Red. masses --      1.3883                 1.6647                 1.3328
 Frc consts  --      1.3759                 1.7300                 1.4492
 IR Inten    --      4.7226                 4.4007                10.7076

                     34                     35                     36
                      A                      A                      A
 Frequencies --   1374.2933              1409.6420              1450.6447
 Red. masses --      2.0146                 1.2274                 1.0809
 Frc consts  --      2.2418                 1.4369                 1.3402
 IR Inten    --      7.4688                 4.2178                 8.8779

                     37                     38                     39
                      A                      A                      A
 Frequencies --   1476.9874              1487.9679              1493.9316
 Red. masses --      1.0988                 1.0516                 1.0502
 Frc consts  --      1.4123                 1.3718                 1.3809
 IR Inten    --      4.6307                 7.8258                 6.3205

                     40                     41                     42
                      A                      A                      A
 Frequencies --   1527.0759              1839.2107              3005.1276
 Red. masses --      1.0972                12.4926                 1.0570
 Frc consts  --      1.5075                24.8982                 5.6243
 IR Inten    --      0.5500               183.5921                67.2344

                     43                     44                     45
                      A                      A                      A
 Frequencies --   3034.2686              3036.8076              3043.8095
 Red. masses --      1.0672                 1.0414                 1.0681
 Frc consts  --      5.7891                 5.6587                 5.8302
 IR Inten    --      6.7407                22.9961                 1.4539

                     46                     47                     48
                      A                      A                      A
 Frequencies --   3050.3792              3056.1378              3102.7404
 Red. masses --      1.0774                 1.1082                 1.0988
 Frc consts  --      5.9068                 6.0983                 6.2325
 IR Inten    --     62.1962                37.6497                13.6841

                     49                     50                     51
                      A                      A                      A
 Frequencies --   3103.7317              3116.4180              3122.8659
 Red. masses --      1.1005                 1.1018                 1.0963
 Frc consts  --      6.2462                 6.3048                 6.2992
 IR Inten    --     18.9354                10.9826                10.9428

 - Thermochemistry -
 -------------------
 Temperature   298.150 Kelvin.  Pressure   1.00000 Atm.
 Atom     1 has atomic number  6 and mass  12.00000

 Molecular mass:   126.06808 amu.
 Principal axes and moments of inertia in atomic units:
                           1         2         3
     Eigenvalues --   830.31624 957.459891316.22413
           X            0.97144   0.23722  -0.00602
           Y           -0.23727   0.97140  -0.00908
           Z            0.00369   0.01025   0.99994
 This molecule is an asymmetric top.
 Rotational symmetry number  1.
 Warning -- assumption of classical behavior for rotation
           may cause significant error
 Rotational temperatures (Kelvin)      0.10431     0.09046     0.06580
 Rotational constants (GHZ):           2.17356     1.88493     1.37115
 Zero-point vibrational energy     418501.3 (Joules/Mol)
                                  100.02421 (Kcal/Mol)
 Warning -- explicit consideration of  10 degrees of freedom as
           vibrations may cause significant error
 Vibrational temperatures:    118.25   221.04   253.19   310.07   371.80
          (Kelvin)            417.83   541.14   683.55   709.85   868.57
                              914.06   978.42  1124.22  1157.06  1258.94
                             1289.43  1301.37  1395.97  1413.13  1457.17
                             1490.91  1511.36  1569.31  1640.29  1659.29
                             1687.70  1699.66  1770.02  1797.30  1844.08
                             1866.02  1910.81  1954.55  1977.30  2028.16
                             2087.15  2125.05  2140.85  2149.43  2197.12
                             2646.21  4323.70  4365.63  4369.28  4379.36
                             4388.81  4397.10  4464.15  4465.57  4483.82
                             4493.10

 Zero-point correction=                           0.159399 (Hartree/Particle)
 Thermal correction to Energy=                    0.167631
 Thermal correction to Enthalpy=                  0.168575
 Thermal correction to Gibbs Free Energy=         0.126626
 Sum of electronic and zero-point Energies=           -423.047270
 Sum of electronic and thermal Energies=              -423.039038
 Sum of electronic and thermal Enthalpies=            -423.038094
 Sum of electronic and thermal Free Energies=         -423.080043

                     E (Thermal)             CV                S
                      KCal/Mol        Cal/Mol-Kelvin    Cal/Mol-Kelvin
 Total                  105.190             31.360             88.289
 Electronic               0.000              0.000              0.000
 Translational            0.889              2.981             40.409
 Rotational               0.889              2.981             28.439
 Vibrational            103.412             25.398             19.442
 Vibration     1          0.600              1.961              3.838
 Vibration     2          0.619              1.899              2.627
 Vibration     3          0.628              1.872              2.371
 Vibration     4          0.645              1.817              1.996
 Vibration     5          0.667              1.749              1.672
 Vibration     6          0.686              1.692              1.472
 Vibration     7          0.747              1.521              1.055
 Vibration     8          0.832              1.305              0.723
 Vibration     9          0.849              1.265              0.675
 Vibration    10          0.962              1.024              0.443

 Normal termination of Gaussian 09 at Mon Jan 27 19:36:54 2020.
