 Gaussian 09, Revision D.01,
 Gaussian 09:  ES64L-G09RevD.01 24-Apr-2013

 -----------------------------
 # b3lyp 6-31G(2df,p) opt Freq
 -----------------------------

 -----
 titel
 -----
 Symbolic Z-matrix:
 Charge =  0 Multiplicity = 1

 SCF Done:  E(RB3LYP) =  -423.183751849     A.U. after   14 cycles
 Optimization completed.
    -- Stationary point found.
 Normal termination of Gaussian 09 at Mon Jan 27 13:38:23 2020.

 ----------------------------------------------------------------------
 #N Geom=AllCheck Guess=TCheck SCRF=Check GenChk RB3LYP/6-31G(2df,p) Fr
 eq
 ----------------------------------------------------------------------

 Structure from the checkpoint file:  "/scratch/puck/g09_7ab47121-7e30-430a-a4d6-9cc057224744/Gau-53063.chk"
 -----
 titel
 -----
 Charge =  0 Multiplicity = 1

                         Standard orientation:
 ---------------------------------------------------------------------
 Center     Atomic      Atomic             Coordinates (Angstroms)
 Number     Number       Type             X           Y           Z
 ---------------------------------------------------------------------
      1          8           0       -2.947051   -0.196258    0.434419
      2          6           0       -2.145634    0.603913    0.024433
      3          6           0       -0.764203    0.262036   -0.496644
      4          6           0       -0.435683   -1.225796   -0.302657
      5          8           0        0.945168   -1.481598   -0.496870
      6          6           0        1.723773   -0.946190    0.558252
      7          6           0        1.561979    0.556669    0.681660
      8          6           0        1.609207    1.405302   -0.560489
      9          6           0        0.290854    1.175541    0.140321
     10          1           0       -2.386894    1.692727   -0.003578
     11          1           0       -0.804709    0.485998   -1.574421
     12          1           0       -0.746047   -1.541871    0.704314
     13          1           0       -0.975471   -1.841819   -1.024772
     14          1           0        1.444054   -1.428343    1.510615
     15          1           0        2.762519   -1.213276    0.337036
     16          1           0        1.970693    0.979337    1.594801
     17          1           0        2.060386    2.389569   -0.501737
     18          1           0        1.758944    0.889661   -1.503892
     19          1           0       -0.110176    2.022020    0.691987
 ---------------------------------------------------------------------

 SCF Done:  E(RB3LYP) =  -423.183751849     A.U. after    1 cycles

 The electronic state is 1-A.
 Alpha  occ. eigenvalues --  -19.14571 -19.14410 -10.27587 -10.23248 -10.22923
 Alpha  occ. eigenvalues --  -10.20607 -10.20349 -10.19867 -10.18948  -1.05295
 Alpha  occ. eigenvalues --   -1.03857  -0.87098  -0.78845  -0.70585  -0.65729
 Alpha  occ. eigenvalues --   -0.59999  -0.58199  -0.54492  -0.51022  -0.50132
 Alpha  occ. eigenvalues --   -0.48255  -0.45653  -0.44637  -0.43568  -0.40905
 Alpha  occ. eigenvalues --   -0.40293  -0.38340  -0.37174  -0.35652  -0.31610
 Alpha  occ. eigenvalues --   -0.30545  -0.28323  -0.26104  -0.24879
 Alpha virt. eigenvalues --   -0.02580   0.08094   0.09384   0.10649   0.11732
 Alpha virt. eigenvalues --    0.12113   0.13919   0.14867   0.15943   0.16494
 Alpha virt. eigenvalues --    0.17657   0.18702   0.19964   0.21277   0.23092

 Mulliken charges:
               1
     1  O   -0.244432
     2  C    0.139633
     3  C   -0.111125
     4  C   -0.086451
     5  O   -0.248698
     6  C   -0.103758
     7  C   -0.030387
     8  C   -0.295594
     9  C   -0.044951
    10  H    0.081547
    11  H    0.107239
    12  H    0.105672
    13  H    0.118183
    14  H    0.091753
    15  H    0.110169
    16  H    0.089009
    17  H    0.111351
    18  H    0.124719
    19  H    0.086119
 Sum of Mulliken charges =   0.00000

 Dipole moment (field-independent basis, Debye):
    X=              1.6600    Y=              1.9388    Z=              0.0530  Tot=              2.5529
 Quadrupole moment (field-independent basis, Debye-Ang):
   XX=            -59.9971   YY=            -52.9834   ZZ=            -52.0660
   XY=             -1.0832   XZ=              4.5235   YZ=             -0.5347

  Exact polarizability:  86.632   2.378  75.622   0.264  -2.753  63.812
 Approx polarizability: 118.618   6.319 109.005  -3.772  -4.919 101.800

                      1                      2                      3
                      A                      A                      A
 Frequencies --     64.6688               101.6588               216.4604
 Red. masses --      4.1758                 2.7338                 5.0584
 Frc consts  --      0.0103                 0.0166                 0.1396
 IR Inten    --      4.3441                 2.4369                 6.2486

                      4                      5                      6
                      A                      A                      A
 Frequencies --    269.2343               278.5333               384.4702
 Red. masses --      2.3003                 3.0745                 2.9625
 Frc consts  --      0.0982                 0.1405                 0.2580
 IR Inten    --      0.9882                 0.8250                 4.1356

                      7                      8                      9
                      A                      A                      A
 Frequencies --    392.2949               466.6224               489.5346
 Red. masses --      2.4812                 3.5072                 3.8989
 Frc consts  --      0.2250                 0.4499                 0.5505
 IR Inten    --      2.1511                 1.3648                 1.5859

                     10                     11                     12
                      A                      A                      A
 Frequencies --    644.3525               701.2525               745.9422
 Red. masses --      3.2076                 2.9364                 2.2648
 Frc consts  --      0.7847                 0.8508                 0.7425
 IR Inten    --      7.5495                29.8791                 1.3309

                     13                     14                     15
                      A                      A                      A
 Frequencies --    794.0875               838.2489               882.1618
 Red. masses --      3.2547                 1.2627                 2.3860
 Frc consts  --      1.2092                 0.5228                 1.0940
 IR Inten    --      1.8198                 6.3010                11.4629

                     16                     17                     18
                      A                      A                      A
 Frequencies --    911.3376               948.8053              1003.0814
 Red. masses --      1.5463                 2.4784                 2.6939
 Frc consts  --      0.7567                 1.3145                 1.5970
 IR Inten    --      3.8168                14.1139                13.0593

                     19                     20                     21
                      A                      A                      A
 Frequencies --   1020.3166              1060.6052              1065.3641
 Red. masses --      2.1834                 1.5913                 2.2292
 Frc consts  --      1.3392                 1.0546                 1.4907
 IR Inten    --      0.0463                20.0287                16.7755

                     22                     23                     24
                      A                      A                      A
 Frequencies --   1077.2857              1109.5990              1113.9392
 Red. masses --      1.6867                 1.5829                 1.8039
 Frc consts  --      1.1533                 1.1482                 1.3188
 IR Inten    --      2.0274                 7.1590                12.3455

                     25                     26                     27
                      A                      A                      A
 Frequencies --   1138.0423              1155.1460              1172.4897
 Red. masses --      1.4516                 3.2829                 1.9825
 Frc consts  --      1.1077                 2.5809                 1.6057
 IR Inten    --      1.7075                54.5894                12.8429

                     28                     29                     30
                      A                      A                      A
 Frequencies --   1225.5671              1258.4705              1272.6200
 Red. masses --      1.5183                 1.2524                 1.3640
 Frc consts  --      1.3436                 1.1687                 1.3015
 IR Inten    --      2.5347                 9.8121                 1.4402

                     31                     32                     33
                      A                      A                      A
 Frequencies --   1307.9867              1337.2680              1360.1973
 Red. masses --      1.4575                 1.2147                 1.3207
 Frc consts  --      1.4691                 1.2798                 1.4397
 IR Inten    --     17.9415                 2.4086                 0.1566

                     34                     35                     36
                      A                      A                      A
 Frequencies --   1381.8669              1414.4459              1420.8835
 Red. masses --      1.7965                 1.4283                 1.2768
 Frc consts  --      2.0212                 1.6836                 1.5188
 IR Inten    --      3.1347                 8.7958                13.4518

                     37                     38                     39
                      A                      A                      A
 Frequencies --   1430.4944              1482.3980              1493.0446
 Red. masses --      1.2807                 1.3250                 1.1550
 Frc consts  --      1.5441                 1.7156                 1.5169
 IR Inten    --      0.6413                 1.8152                 4.5338

                     40                     41                     42
                      A                      A                      A
 Frequencies --   1500.4666              1826.1212              2855.1906
 Red. masses --      1.0993                10.7356                 1.0826
 Frc consts  --      1.4582                21.0930                 5.1997
 IR Inten    --      3.3144               174.0496               120.1045

                     43                     44                     45
                      A                      A                      A
 Frequencies --   2960.5933              2983.2977              3003.6836
 Red. masses --      1.0702                 1.0801                 1.0694
 Frc consts  --      5.5269                 5.6636                 5.6843
 IR Inten    --     65.4628                14.9603                36.4053

                     46                     47                     48
                      A                      A                      A
 Frequencies --   3067.7763              3107.4350              3129.1990
 Red. masses --      1.0918                 1.0953                 1.0558
 Frc consts  --      6.0542                 6.2313                 6.0912
 IR Inten    --     36.6229                24.4921                12.5855

                     49                     50                     51
                      A                      A                      A
 Frequencies --   3131.1154              3152.5119              3218.4864
 Red. masses --      1.0849                 1.0900                 1.1168
 Frc consts  --      6.2669                 6.3825                 6.8158
 IR Inten    --     12.9595                17.5244                 9.0173

 - Thermochemistry -
 -------------------
 Temperature   298.150 Kelvin.  Pressure   1.00000 Atm.
 Atom     1 has atomic number  8 and mass  15.99491

 Molecular mass:   126.06808 amu.
 Principal axes and moments of inertia in atomic units:
                           1         2         3
     Eigenvalues --   621.768021356.900991719.37615
           X            0.99988   0.00710   0.01363
           Y           -0.00682   0.99977  -0.02039
           Z           -0.01377   0.02029   0.99970
 This molecule is an asymmetric top.
 Rotational symmetry number  1.
 Warning -- assumption of classical behavior for rotation
           may cause significant error
 Rotational temperatures (Kelvin)      0.13930     0.06383     0.05038
 Rotational constants (GHZ):           2.90260     1.33005     1.04965
 Zero-point vibrational energy     420886.1 (Joules/Mol)
                                  100.59418 (Kcal/Mol)
 Warning -- explicit consideration of   9 degrees of freedom as
           vibrations may cause significant error
 Vibrational temperatures:     93.04   146.26   311.44   387.37   400.75
          (Kelvin)            553.17   564.42   671.36   704.33   927.08
                             1008.94  1073.24  1142.51  1206.05  1269.23
                             1311.21  1365.12  1443.21  1468.01  1525.97
                             1532.82  1549.97  1596.46  1602.71  1637.39
                             1662.00  1686.95  1763.32  1810.66  1831.01
                             1881.90  1924.03  1957.02  1988.20  2035.07
                             2044.33  2058.16  2132.84  2148.16  2158.83
                             2627.38  4107.98  4259.63  4292.29  4321.63
                             4413.84  4470.90  4502.21  4504.97  4535.76
                             4630.68

 Zero-point correction=                           0.160307 (Hartree/Particle)
 Thermal correction to Energy=                    0.168268
 Thermal correction to Enthalpy=                  0.169212
 Thermal correction to Gibbs Free Energy=         0.127330
 Sum of electronic and zero-point Energies=           -423.023445
 Sum of electronic and thermal Energies=              -423.015484
 Sum of electronic and thermal Enthalpies=            -423.014540
 Sum of electronic and thermal Free Energies=         -423.056422

                     E (Thermal)             CV                S
                      KCal/Mol        Cal/Mol-Kelvin    Cal/Mol-Kelvin
 Total                  105.590             30.418             88.149
 Electronic               0.000              0.000              0.000
 Translational            0.889              2.981             40.409
 Rotational               0.889              2.981             28.763
 Vibrational            103.812             24.456             18.977
 Vibration     1          0.597              1.971              4.309
 Vibration     2          0.604              1.948              3.422
 Vibration     3          0.645              1.816              1.989
 Vibration     4          0.674              1.730              1.601
 Vibration     5          0.679              1.713              1.543
 Vibration     6          0.753              1.503              1.022
 Vibration     7          0.760              1.487              0.991
 Vibration     8          0.824              1.324              0.747
 Vibration     9          0.845              1.273              0.685

 Normal termination of Gaussian 09 at Mon Jan 27 14:19:13 2020.
