 Gaussian 09, Revision D.01,
 Gaussian 09:  ES64L-G09RevD.01 24-Apr-2013

 -----------------------------
 # b3lyp 6-31G(2df,p) opt Freq
 -----------------------------

 -----
 titel
 -----
 Symbolic Z-matrix:
 Charge =  0 Multiplicity = 1

 SCF Done:  E(RB3LYP) =  -423.147430769     A.U. after   14 cycles
 Optimization completed.
    -- Stationary point found.
 Normal termination of Gaussian 09 at Mon Jan 27 12:10:29 2020.

 ----------------------------------------------------------------------
 #N Geom=AllCheck Guess=TCheck SCRF=Check GenChk RB3LYP/6-31G(2df,p) Fr
 eq
 ----------------------------------------------------------------------

 Structure from the checkpoint file:  "/scratch/puck/g09_ece73012-9da5-4f63-a080-cde8d942dcab/Gau-49018.chk"
 -----
 titel
 -----
 Charge =  0 Multiplicity = 1

                         Standard orientation:
 ---------------------------------------------------------------------
 Center     Atomic      Atomic             Coordinates (Angstroms)
 Number     Number       Type             X           Y           Z
 ---------------------------------------------------------------------
      1          6           0        2.256525   -0.739302   -0.667943
      2          8           0        2.364959    0.572570   -0.107763
      3          6           0        1.487494   -0.361694    0.527056
      4          6           0        0.030306   -0.047087    0.467077
      5          6           0       -0.458317    1.339818    0.866704
      6          6           0       -0.567394    0.870412   -0.563037
      7          8           0       -1.788587    0.361622   -1.027865
      8          6           0       -2.238819   -0.616942   -0.092305
      9          6           0       -0.979437   -1.180644    0.607381
     10          1           0        1.750690   -0.791667   -1.630547
     11          1           0        3.144395   -1.361852   -0.568926
     12          1           0        1.854899   -0.715174    1.492969
     13          1           0       -1.353496    1.439788    1.471308
     14          1           0        0.311582    2.077261    1.066676
     15          1           0        0.009415    1.352477   -1.342262
     16          1           0       -2.914273   -0.156428    0.641791
     17          1           0       -2.806852   -1.372444   -0.641685
     18          1           0       -1.188844   -1.467410    1.642566
     19          1           0       -0.600640   -2.065455    0.083534
 ---------------------------------------------------------------------

 SCF Done:  E(RB3LYP) =  -423.147430769     A.U. after    1 cycles

 The electronic state is 1-A.
 Alpha  occ. eigenvalues --  -19.15364 -19.14127 -10.24179 -10.23475 -10.23186
 Alpha  occ. eigenvalues --  -10.23138 -10.19894 -10.19388 -10.18337  -1.07285
 Alpha  occ. eigenvalues --   -1.04318  -0.85374  -0.76052  -0.68864  -0.64889
 Alpha  occ. eigenvalues --   -0.64215  -0.57536  -0.55781  -0.52689  -0.49394
 Alpha  occ. eigenvalues --   -0.48395  -0.45304  -0.42887  -0.41750  -0.41143
 Alpha  occ. eigenvalues --   -0.39768  -0.38781  -0.35460  -0.33577  -0.32798
 Alpha  occ. eigenvalues --   -0.32109  -0.27199  -0.26901  -0.23175
 Alpha virt. eigenvalues --    0.08803   0.09800   0.10245   0.10411   0.11421
 Alpha virt. eigenvalues --    0.12108   0.13457   0.14315   0.16023   0.16388
 Alpha virt. eigenvalues --    0.17035   0.18066   0.19484   0.20543   0.21922

 Mulliken charges:
               1
     1  C   -0.181049
     2  O   -0.236628
     3  C   -0.035310
     4  C    0.295633
     5  C   -0.377772
     6  C    0.084183
     7  O   -0.259537
     8  C   -0.091189
     9  C   -0.310430
    10  H    0.118499
    11  H    0.116361
    12  H    0.089895
    13  H    0.113230
    14  H    0.129158
    15  H    0.116231
    16  H    0.101562
    17  H    0.112299
    18  H    0.106511
    19  H    0.108353
 Sum of Mulliken charges =   0.00000

 Dipole moment (field-independent basis, Debye):
    X=             -0.2252    Y=             -2.0257    Z=              1.0847  Tot=              2.3088
 Quadrupole moment (field-independent basis, Debye-Ang):
   XX=            -55.4559   YY=            -52.1935   ZZ=            -52.7258
   XY=             -1.5411   XZ=             -3.3199   YZ=              0.9587

  Exact polarizability:  83.107  -1.030  70.879  -3.301   2.691  68.175
 Approx polarizability: 108.439   0.148 107.803  -3.297   2.528 107.681

                      1                      2                      3
                      A                      A                      A
 Frequencies --     76.4947               141.9932               181.1790
 Red. masses --      3.6096                 3.1762                 3.7948
 Frc consts  --      0.0124                 0.0377                 0.0734
 IR Inten    --      1.9016                 0.2615                 2.2297

                      4                      5                      6
                      A                      A                      A
 Frequencies --    231.4992               273.1024               426.0084
 Red. masses --      2.1557                 2.9323                 3.2601
 Frc consts  --      0.0681                 0.1289                 0.3486
 IR Inten    --      3.9773                 2.8405                 1.6417

                      7                      8                      9
                      A                      A                      A
 Frequencies --    457.1264               479.0294               582.3339
 Red. masses --      3.0383                 2.6598                 3.0333
 Frc consts  --      0.3741                 0.3596                 0.6060
 IR Inten    --      3.2974                 3.1432                 9.2883

                     10                     11                     12
                      A                      A                      A
 Frequencies --    681.7584               710.1255               825.8405
 Red. masses --      2.3750                 3.6863                 2.4386
 Frc consts  --      0.6504                 1.0952                 0.9799
 IR Inten    --      2.5046                 8.0127                17.9136

                     13                     14                     15
                      A                      A                      A
 Frequencies --    849.6139               868.5841               892.4713
 Red. masses --      1.9644                 3.5465                 2.1877
 Frc consts  --      0.8355                 1.5764                 1.0266
 IR Inten    --     13.3238                 4.4355                 3.6100

                     16                     17                     18
                      A                      A                      A
 Frequencies --    899.4933               940.7866               953.5811
 Red. masses --      2.6157                 1.7584                 2.3217
 Frc consts  --      1.2469                 0.9170                 1.2438
 IR Inten    --     26.7663                15.6406                 9.4682

                     19                     20                     21
                      A                      A                      A
 Frequencies --    992.7358              1022.0574              1023.4158
 Red. masses --      2.0289                 2.4310                 2.1127
 Frc consts  --      1.1781                 1.4962                 1.3037
 IR Inten    --      8.3946                15.5816                18.2975

                     22                     23                     24
                      A                      A                      A
 Frequencies --   1041.2731              1091.1562              1106.6905
 Red. masses --      1.3994                 1.4324                 1.3688
 Frc consts  --      0.8939                 1.0048                 0.9877
 IR Inten    --      6.9427                 2.5646                 4.5812

                     25                     26                     27
                      A                      A                      A
 Frequencies --   1116.9390              1153.5538              1165.0670
 Red. masses --      2.0626                 1.4290                 3.0264
 Frc consts  --      1.5161                 1.1204                 2.4203
 IR Inten    --      5.8596                 2.9739                81.4518

                     28                     29                     30
                      A                      A                      A
 Frequencies --   1172.6018              1218.0078              1227.5354
 Red. masses --      1.3601                 1.2508                 1.4838
 Frc consts  --      1.1018                 1.0933                 1.3173
 IR Inten    --      1.2564                 0.3871                 1.1573

                     31                     32                     33
                      A                      A                      A
 Frequencies --   1250.5889              1268.0026              1297.9742
 Red. masses --      1.7022                 1.7793                 1.4837
 Frc consts  --      1.5685                 1.6856                 1.4727
 IR Inten    --      8.7430                 7.3398                 1.3683

                     34                     35                     36
                      A                      A                      A
 Frequencies --   1313.8190              1378.8835              1401.8204
 Red. masses --      1.6236                 1.4127                 1.4439
 Frc consts  --      1.6512                 1.5825                 1.6718
 IR Inten    --     14.7750                 0.6233                 2.7371

                     37                     38                     39
                      A                      A                      A
 Frequencies --   1440.9421              1476.0374              1497.1620
 Red. masses --      2.0118                 1.4097                 1.1751
 Frc consts  --      2.4611                 1.8096                 1.5519
 IR Inten    --     22.8475                13.1428                 3.8081

                     40                     41                     42
                      A                      A                      A
 Frequencies --   1523.6753              1527.8838              3005.4265
 Red. masses --      1.3240                 1.0995                 1.0707
 Frc consts  --      1.8110                 1.5123                 5.6981
 IR Inten    --      3.5670                 1.4923                50.5006

                     43                     44                     45
                      A                      A                      A
 Frequencies --   3039.8696              3080.6812              3082.2786
 Red. masses --      1.0606                 1.0886                 1.0852
 Frc consts  --      5.7747                 6.0873                 6.0743
 IR Inten    --     25.3539                22.3282                39.0439

                     46                     47                     48
                      A                      A                      A
 Frequencies --   3088.1933              3093.2711              3132.0166
 Red. masses --      1.0588                 1.1016                 1.0538
 Frc consts  --      5.9492                 6.2103                 6.0904
 IR Inten    --     24.5172                39.3673                 9.6102

                     49                     50                     51
                      A                      A                      A
 Frequencies --   3176.3022              3198.4213              3222.1570
 Red. masses --      1.1198                 1.0930                 1.1160
 Frc consts  --      6.6563                 6.5876                 6.8265
 IR Inten    --     25.1546                 6.0399                 6.3777

 - Thermochemistry -
 -------------------
 Temperature   298.150 Kelvin.  Pressure   1.00000 Atm.
 Atom     1 has atomic number  6 and mass  12.00000

 Molecular mass:   126.06808 amu.
 Principal axes and moments of inertia in atomic units:
                           1         2         3
     Eigenvalues --   523.422111437.779541536.66893
           X            0.99980  -0.00233  -0.01989
           Y            0.00353   0.99818   0.06020
           Z            0.01972  -0.06025   0.99799
 This molecule is an asymmetric top.
 Rotational symmetry number  1.
 Warning -- assumption of classical behavior for rotation
           may cause significant error
 Rotational temperatures (Kelvin)      0.16548     0.06024     0.05636
 Rotational constants (GHZ):           3.44797     1.25523     1.17445
 Zero-point vibrational energy     420472.2 (Joules/Mol)
                                  100.49527 (Kcal/Mol)
 Warning -- explicit consideration of   9 degrees of freedom as
           vibrations may cause significant error
 Vibrational temperatures:    110.06   204.30   260.68   333.08   392.93
          (Kelvin)            612.93   657.70   689.22   837.85   980.90
                             1021.71  1188.20  1222.40  1249.70  1284.07
                             1294.17  1353.58  1371.99  1428.32  1470.51
                             1472.47  1498.16  1569.93  1592.28  1607.02
                             1659.70  1676.27  1687.11  1752.44  1766.15
                             1799.32  1824.37  1867.49  1890.29  1983.90
                             2016.90  2073.19  2123.69  2154.08  2192.23
                             2198.28  4324.13  4373.69  4432.41  4434.71
                             4443.22  4450.52  4506.27  4569.98  4601.81
                             4635.96

 Zero-point correction=                           0.160149 (Hartree/Particle)
 Thermal correction to Energy=                    0.167946
 Thermal correction to Enthalpy=                  0.168890
 Thermal correction to Gibbs Free Energy=         0.127590
 Sum of electronic and zero-point Energies=           -422.987281
 Sum of electronic and thermal Energies=              -422.979485
 Sum of electronic and thermal Enthalpies=            -422.978541
 Sum of electronic and thermal Free Energies=         -423.019840

                     E (Thermal)             CV                S
                      KCal/Mol        Cal/Mol-Kelvin    Cal/Mol-Kelvin
 Total                  105.388             30.191             86.922
 Electronic               0.000              0.000              0.000
 Translational            0.889              2.981             40.409
 Rotational               0.889              2.981             28.538
 Vibrational            103.610             24.230             17.976
 Vibration     1          0.599              1.965              3.979
 Vibration     2          0.615              1.911              2.777
 Vibration     3          0.630              1.865              2.316
 Vibration     4          0.653              1.793              1.867
 Vibration     5          0.676              1.723              1.576
 Vibration     6          0.788              1.414              0.872
 Vibration     7          0.815              1.345              0.775
 Vibration     8          0.835              1.297              0.713
 Vibration     9          0.939              1.070              0.481

 Optimization completed.
    -- Stationary point found.
 Normal termination of Gaussian 09 at Mon Jan 27 12:52:00 2020.
