 Gaussian 09, Revision D.01,
 Gaussian 09:  ES64L-G09RevD.01 24-Apr-2013

 -----------------------------
 # b3lyp 6-31G(2df,p) opt Freq
 -----------------------------

 -----
 titel
 -----
 Symbolic Z-matrix:
 Charge =  0 Multiplicity = 1

 SCF Done:  E(RB3LYP) =  -423.162787274     A.U. after   14 cycles
 Optimization completed.
    -- Stationary point found.
 Normal termination of Gaussian 09 at Tue Jan 28 02:51:25 2020.

 ----------------------------------------------------------------------
 #N Geom=AllCheck Guess=TCheck SCRF=Check GenChk RB3LYP/6-31G(2df,p) Fr
 eq
 ----------------------------------------------------------------------

 Structure from the checkpoint file:  "/scratch/puck/g09_58936ada-5f68-4a88-850f-8485c7e76dd0/Gau-193437.chk"
 -----
 titel
 -----
 Charge =  0 Multiplicity = 1

                         Standard orientation:
 ---------------------------------------------------------------------
 Center     Atomic      Atomic             Coordinates (Angstroms)
 Number     Number       Type             X           Y           Z
 ---------------------------------------------------------------------
      1          6           0       -2.437950   -1.030944   -0.347199
      2          6           0       -1.537682    0.051190    0.235260
      3          6           0       -0.398019   -0.471607    1.169478
      4          6           0        0.667342    0.111505    0.216190
      5          8           0        1.059164    1.465136    0.510566
      6          6           0        0.077384    2.009737   -0.405171
      7          6           0       -0.471150    0.615303   -0.746851
      8          6           0        1.807256   -0.748402   -0.240582
      9          8           0        1.753360   -1.951601   -0.309450
     10          1           0       -3.049202   -1.493364    0.435076
     11          1           0       -3.113514   -0.621240   -1.106165
     12          1           0       -1.843335   -1.822921   -0.816294
     13          1           0       -2.146709    0.841921    0.685689
     14          1           0       -0.353930   -0.057904    2.178535
     15          1           0       -0.345429   -1.562548    1.212216
     16          1           0       -0.619189    2.696247    0.092063
     17          1           0        0.562971    2.532766   -1.238077
     18          1           0       -0.546719    0.332933   -1.796777
     19          1           0        2.711781   -0.174858   -0.541941
 ---------------------------------------------------------------------

 SCF Done:  E(RB3LYP) =  -423.162787273     A.U. after    1 cycles

 The electronic state is 1-A.
 Alpha  occ. eigenvalues --  -19.14589 -19.14413 -10.27024 -10.24610 -10.24196
 Alpha  occ. eigenvalues --  -10.20618 -10.20100 -10.18681 -10.18220  -1.05766
 Alpha  occ. eigenvalues --   -1.04495  -0.84223  -0.73858  -0.72506  -0.67256
 Alpha  occ. eigenvalues --   -0.62109  -0.58182  -0.52180  -0.50778  -0.49432
 Alpha  occ. eigenvalues --   -0.47802  -0.45392  -0.42977  -0.42230  -0.40874
 Alpha  occ. eigenvalues --   -0.39778  -0.38811  -0.37176  -0.34099  -0.33144
 Alpha  occ. eigenvalues --   -0.31413  -0.29583  -0.26858  -0.24433
 Alpha virt. eigenvalues --   -0.03796   0.07053   0.09424   0.09831   0.10926
 Alpha virt. eigenvalues --    0.12495   0.13327   0.14804   0.15644   0.16221
 Alpha virt. eigenvalues --    0.17152   0.17822   0.18625   0.19842   0.21340

 Mulliken charges:
               1
     1  C   -0.413408
     2  C    0.032322
     3  C   -0.300514
     4  C    0.357606
     5  O   -0.334988
     6  C   -0.097643
     7  C   -0.139372
     8  C    0.084185
     9  O   -0.257940
    10  H    0.120437
    11  H    0.114887
    12  H    0.128892
    13  H    0.075026
    14  H    0.112752
    15  H    0.127639
    16  H    0.105408
    17  H    0.108362
    18  H    0.088511
    19  H    0.087837
 Sum of Mulliken charges =   0.00000

 Dipole moment (field-independent basis, Debye):
    X=             -2.0320    Y=              1.6952    Z=             -0.7149  Tot=              2.7411
 Quadrupole moment (field-independent basis, Debye-Ang):
   XX=            -54.1878   YY=            -58.3259   ZZ=            -51.9454
   XY=              1.7605   XZ=             -0.9193   YZ=             -3.0800

  Exact polarizability:  81.755  -0.472  81.675  -2.302  -2.839  64.510
 Approx polarizability: 109.458  -3.804 123.942  -0.990  -2.355  97.751

                      1                      2                      3
                      A                      A                      A
 Frequencies --     52.7230                94.6173               204.4614
 Red. masses --      3.4205                 3.4644                 2.2941
 Frc consts  --      0.0056                 0.0183                 0.0565
 IR Inten    --      0.7353                 6.4213                 2.5403

                      4                      5                      6
                      A                      A                      A
 Frequencies --    228.5219               243.7803               277.6735
 Red. masses --      2.8575                 1.2855                 2.5098
 Frc consts  --      0.0879                 0.0450                 0.1140
 IR Inten    --      8.6005                 0.4921                 1.3369

                      7                      8                      9
                      A                      A                      A
 Frequencies --    305.4213               362.1466               447.1686
 Red. masses --      2.1243                 3.4855                 1.9919
 Frc consts  --      0.1168                 0.2693                 0.2347
 IR Inten    --      2.5091                 3.0826                 1.9037

                     10                     11                     12
                      A                      A                      A
 Frequencies --    507.1726               634.5576               728.2046
 Red. masses --      6.5695                 3.8921                 3.0723
 Frc consts  --      0.9956                 0.9234                 0.9599
 IR Inten    --      1.3288                12.7543                10.6526

                     13                     14                     15
                      A                      A                      A
 Frequencies --    778.0450               826.5718               863.7397
 Red. masses --      2.1883                 2.4342                 2.2492
 Frc consts  --      0.7805                 0.9799                 0.9887
 IR Inten    --      5.0735                 6.4411                 0.2055

                     16                     17                     18
                      A                      A                      A
 Frequencies --    898.5897               919.7070               972.9441
 Red. masses --      1.8358                 3.8885                 1.5970
 Frc consts  --      0.8734                 1.9379                 0.8907
 IR Inten    --      3.4899                10.6798                12.4793

                     19                     20                     21
                      A                      A                      A
 Frequencies --    983.5289              1009.5344              1032.4769
 Red. masses --      1.3595                 5.4807                 2.1866
 Frc consts  --      0.7748                 3.2910                 1.3733
 IR Inten    --      0.2691                60.5899                 5.8337

                     22                     23                     24
                      A                      A                      A
 Frequencies --   1061.8862              1103.6092              1137.8270
 Red. masses --      1.9217                 2.5174                 1.4895
 Frc consts  --      1.2767                 1.8065                 1.1362
 IR Inten    --      6.0446                15.4411                 0.5274

                     25                     26                     27
                      A                      A                      A
 Frequencies --   1141.3570              1156.7295              1170.7924
 Red. masses --      1.8109                 3.4504                 1.3897
 Frc consts  --      1.3899                 2.7201                 1.1224
 IR Inten    --     14.1951                28.3435                 8.3966

                     28                     29                     30
                      A                      A                      A
 Frequencies --   1200.7794              1232.2231              1269.8892
 Red. masses --      1.7981                 1.6462                 1.4694
 Frc consts  --      1.5276                 1.4727                 1.3961
 IR Inten    --      5.6987                 4.1790                 2.3538

                     31                     32                     33
                      A                      A                      A
 Frequencies --   1277.9644              1296.9942              1346.6687
 Red. masses --      1.7510                 1.7232                 1.3995
 Frc consts  --      1.6849                 1.7079                 1.4953
 IR Inten    --      0.8198                 4.5927                 1.8455

                     34                     35                     36
                      A                      A                      A
 Frequencies --   1366.4308              1397.4892              1410.7946
 Red. masses --      1.5615                 1.2789                 1.2466
 Frc consts  --      1.7178                 1.4715                 1.4619
 IR Inten    --      7.0078                11.2308                 2.0003

                     37                     38                     39
                      A                      A                      A
 Frequencies --   1460.5077              1494.3863              1499.8882
 Red. masses --      1.1106                 1.0426                 1.0504
 Frc consts  --      1.3958                 1.3718                 1.3923
 IR Inten    --      6.2248                 5.0341                 1.6350

                     40                     41                     42
                      A                      A                      A
 Frequencies --   1521.3894              1814.5530              2893.4729
 Red. masses --      1.0998                10.7558                 1.0842
 Frc consts  --      1.4999                20.8656                 5.3479
 IR Inten    --      0.9171               130.9275               108.1059

                     43                     44                     45
                      A                      A                      A
 Frequencies --   3013.4260              3025.9614              3045.6085
 Red. masses --      1.0550                 1.0348                 1.0861
 Frc consts  --      5.6446                 5.5823                 5.9355
 IR Inten    --     75.0055                22.0284                16.6324

                     46                     47                     48
                      A                      A                      A
 Frequencies --   3058.4730              3068.4070              3095.8462
 Red. masses --      1.1104                 1.0582                 1.1016
 Frc consts  --      6.1200                 5.8700                 6.2204
 IR Inten    --     38.2265                14.2318                28.5636

                     49                     50                     51
                      A                      A                      A
 Frequencies --   3098.6292              3114.8139              3132.9656
 Red. masses --      1.1014                 1.0894                 1.1083
 Frc consts  --      6.2305                 6.2272                 6.4093
 IR Inten    --     23.3434                24.9486                10.9220

 - Thermochemistry -
 -------------------
 Temperature   298.150 Kelvin.  Pressure   1.00000 Atm.
 Atom     1 has atomic number  6 and mass  12.00000

 Molecular mass:   126.06808 amu.
 Principal axes and moments of inertia in atomic units:
                           1         2         3
     Eigenvalues --   859.831791072.205971589.22621
           X            0.99171   0.12850  -0.00191
           Y           -0.12852   0.99145  -0.02261
           Z           -0.00101   0.02267   0.99974
 This molecule is an asymmetric top.
 Rotational symmetry number  1.
 Warning -- assumption of classical behavior for rotation
           may cause significant error
 Rotational temperatures (Kelvin)      0.10073     0.08078     0.05450
 Rotational constants (GHZ):           2.09895     1.68320     1.13561
 Zero-point vibrational energy     414394.5 (Joules/Mol)
                                   99.04266 (Kcal/Mol)
 Warning -- explicit consideration of  10 degrees of freedom as
           vibrations may cause significant error
 Vibrational temperatures:     75.86   136.13   294.17   328.79   350.75
          (Kelvin)            399.51   439.43   521.05   643.38   729.71
                              912.99  1047.72  1119.43  1189.25  1242.73
                             1292.87  1323.25  1399.85  1415.08  1452.49
                             1485.50  1527.82  1587.85  1637.08  1642.16
                             1664.27  1684.51  1727.65  1772.89  1827.09
                             1838.70  1866.08  1937.55  1965.99  2010.67
                             2029.82  2101.34  2150.09  2158.00  2188.94
                             2610.73  4163.06  4335.64  4353.68  4381.95
                             4400.45  4414.75  4454.23  4458.23  4481.52
                             4507.63

 Zero-point correction=                           0.157835 (Hartree/Particle)
 Thermal correction to Energy=                    0.166474
 Thermal correction to Enthalpy=                  0.167418
 Thermal correction to Gibbs Free Energy=         0.124073
 Sum of electronic and zero-point Energies=           -423.004953
 Sum of electronic and thermal Energies=              -422.996313
 Sum of electronic and thermal Enthalpies=            -422.995369
 Sum of electronic and thermal Free Energies=         -423.038715

                     E (Thermal)             CV                S
                      KCal/Mol        Cal/Mol-Kelvin    Cal/Mol-Kelvin
 Total                  104.464             32.091             91.228
 Electronic               0.000              0.000              0.000
 Translational            0.889              2.981             40.409
 Rotational               0.889              2.981             28.773
 Vibrational            102.686             26.129             22.046
 Vibration     1          0.596              1.977              4.713
 Vibration     2          0.603              1.953              3.562
 Vibration     3          0.640              1.834              2.093
 Vibration     4          0.651              1.797              1.891
 Vibration     5          0.659              1.773              1.775
 Vibration     6          0.679              1.715              1.548
 Vibration     7          0.696              1.663              1.387
 Vibration     8          0.736              1.550              1.113
 Vibration     9          0.806              1.367              0.804
 Vibration    10          0.862              1.234              0.640

 Optimization completed.
    -- Stationary point found.
 Normal termination of Gaussian 09 at Tue Jan 28 03:37:53 2020.
