 Gaussian 09, Revision D.01,
 Gaussian 09:  ES64L-G09RevD.01 24-Apr-2013

 -----------------------------
 # b3lyp 6-31G(2df,p) opt Freq
 -----------------------------

 -----
 titel
 -----
 Symbolic Z-matrix:
 Charge =  0 Multiplicity = 1

 SCF Done:  E(RB3LYP) =  -423.155082857     A.U. after   14 cycles
 Optimization completed.
    -- Stationary point found.
 Normal termination of Gaussian 09 at Mon Jan 27 17:09:27 2020.

 ----------------------------------------------------------------------
 #N Geom=AllCheck Guess=TCheck SCRF=Check GenChk RB3LYP/6-31G(2df,p) Fr
 eq
 ----------------------------------------------------------------------

 Structure from the checkpoint file:  "/scratch/puck/g09_b8502f0c-12a8-4fc5-9dcd-ed1d0cacd1c7/Gau-179176.chk"
 -----
 titel
 -----
 Charge =  0 Multiplicity = 1

                         Standard orientation:
 ---------------------------------------------------------------------
 Center     Atomic      Atomic             Coordinates (Angstroms)
 Number     Number       Type             X           Y           Z
 ---------------------------------------------------------------------
      1          8           0       -2.489436   -0.883481    0.001735
      2          6           0       -1.270834   -0.215918   -0.011127
      3          6           0       -0.832545    0.825417    1.067871
      4          6           0        0.223585    1.184824   -0.019353
      5          6           0       -0.876464    0.859650   -1.074094
      6          6           0        1.044654   -0.097951   -0.054306
      7          6           0        2.393903   -0.234095   -0.599547
      8          8           0        2.160629   -0.232663    0.818445
      9          6           0       -0.061270   -1.167984   -0.056527
     10          1           0       -3.194359   -0.229274    0.045832
     11          1           0       -1.572381    1.619299    1.204582
     12          1           0       -0.476676    0.458660    2.033786
     13          1           0        0.765763    2.128274   -0.012406
     14          1           0       -1.617673    1.659681   -1.155918
     15          1           0       -0.567342    0.521055   -2.067035
     16          1           0        2.718457   -1.187077   -1.016330
     17          1           0        2.917173    0.640486   -0.985837
     18          1           0       -0.066423   -1.795819   -0.951853
     19          1           0       -0.002258   -1.809793    0.826236
 ---------------------------------------------------------------------

 SCF Done:  E(RB3LYP) =  -423.155082857     A.U. after    1 cycles

 The electronic state is 1-A.
 Alpha  occ. eigenvalues --  -19.14514 -19.14413 -10.24454 -10.23906 -10.22824
 Alpha  occ. eigenvalues --  -10.19698 -10.18677 -10.18413 -10.18126  -1.06562
 Alpha  occ. eigenvalues --   -1.03191  -0.88561  -0.72390  -0.67833  -0.66669
 Alpha  occ. eigenvalues --   -0.64594  -0.57001  -0.54312  -0.52887  -0.48586
 Alpha  occ. eigenvalues --   -0.46790  -0.45155  -0.42914  -0.41138  -0.39932
 Alpha  occ. eigenvalues --   -0.37363  -0.36593  -0.36186  -0.33967  -0.33596
 Alpha  occ. eigenvalues --   -0.30217  -0.28449  -0.26217  -0.25774
 Alpha virt. eigenvalues --    0.07309   0.09663   0.10274   0.11164   0.12483
 Alpha virt. eigenvalues --    0.12914   0.14667   0.15457   0.16043   0.17278
 Alpha virt. eigenvalues --    0.17453   0.18127   0.19982   0.20649   0.21436

 Mulliken charges:
               1
     1  O   -0.480860
     2  C    0.411595
     3  C   -0.296835
     4  C   -0.106719
     5  C   -0.296416
     6  C    0.509332
     7  C   -0.289112
     8  O   -0.296203
     9  C   -0.341938
    10  H    0.278830
    11  H    0.088312
    12  H    0.110002
    13  H    0.071538
    14  H    0.091113
    15  H    0.096195
    16  H    0.112986
    17  H    0.110679
    18  H    0.107515
    19  H    0.119986
 Sum of Mulliken charges =   0.00000

 Dipole moment (field-independent basis, Debye):
    X=             -1.0736    Y=              1.4653    Z=             -1.4247  Tot=              2.3086
 Quadrupole moment (field-independent basis, Debye-Ang):
   XX=            -51.9536   YY=            -53.2481   ZZ=            -54.0290
   XY=             -4.0407   XZ=             -4.5609   YZ=              0.4913

  Exact polarizability:  86.728  -2.955  70.619  -4.272   0.665  67.353
 Approx polarizability: 116.904  -2.140 104.078  -2.973   0.444 106.443

                      1                      2                      3
                      A                      A                      A
 Frequencies --    121.1857               259.7618               273.0748
 Red. masses --      3.6462                 2.5993                 3.2522
 Frc consts  --      0.0315                 0.1033                 0.1429
 IR Inten    --      1.4215                 4.0784                 9.4697

                      4                      5                      6
                      A                      A                      A
 Frequencies --    302.8706               377.1568               408.9104
 Red. masses --      1.2947                 2.5998                 3.2131
 Frc consts  --      0.0700                 0.2179                 0.3165
 IR Inten    --     73.7504                15.2901                 8.8088

                      7                      8                      9
                      A                      A                      A
 Frequencies --    439.6881               448.4719               521.7128
 Red. masses --      3.8272                 2.1485                 2.0606
 Frc consts  --      0.4359                 0.2546                 0.3304
 IR Inten    --      0.5810                 4.1024                 1.0011

                     10                     11                     12
                      A                      A                      A
 Frequencies --    530.6657               653.6804               735.8601
 Red. masses --      3.0535                 4.2083                 3.1223
 Frc consts  --      0.5066                 1.0595                 0.9961
 IR Inten    --      8.2654                 8.4584                 1.9827

                     13                     14                     15
                      A                      A                      A
 Frequencies --    826.8788               830.7662               848.2166
 Red. masses --      3.1788                 2.3955                 3.6881
 Frc consts  --      1.2806                 0.9741                 1.5634
 IR Inten    --      1.7811                 9.9364                24.2438

                     16                     17                     18
                      A                      A                      A
 Frequencies --    896.6056               914.3675               940.8612
 Red. masses --      1.5252                 1.8449                 2.5484
 Frc consts  --      0.7224                 0.9088                 1.3291
 IR Inten    --      0.1856                 4.4412                 9.0768

                     19                     20                     21
                      A                      A                      A
 Frequencies --    953.8517               971.8967              1002.5025
 Red. masses --      2.1007                 1.8676                 2.4086
 Frc consts  --      1.1261                 1.0394                 1.4262
 IR Inten    --      1.1121                13.2893                14.3514

                     22                     23                     24
                      A                      A                      A
 Frequencies --   1030.0379              1061.9452              1098.3003
 Red. masses --      1.1950                 1.5044                 2.0280
 Frc consts  --      0.7470                 0.9996                 1.4413
 IR Inten    --      3.5709                 3.0466                12.8218

                     25                     26                     27
                      A                      A                      A
 Frequencies --   1120.8174              1127.9364              1136.4400
 Red. masses --      1.2739                 1.3917                 1.4033
 Frc consts  --      0.9429                 1.0432                 1.0678
 IR Inten    --      1.3781                42.2251                 1.1906

                     28                     29                     30
                      A                      A                      A
 Frequencies --   1152.0292              1183.3788              1200.2788
 Red. masses --      1.6578                 1.8711                 1.3979
 Frc consts  --      1.2963                 1.5438                 1.1866
 IR Inten    --     28.6179                42.5979                 0.6815

                     31                     32                     33
                      A                      A                      A
 Frequencies --   1224.1570              1236.1827              1239.7553
 Red. masses --      1.5118                 1.6773                 1.8626
 Frc consts  --      1.3348                 1.5102                 1.6867
 IR Inten    --      5.2707                 0.8424                 3.1816

                     34                     35                     36
                      A                      A                      A
 Frequencies --   1277.6030              1330.9277              1395.7032
 Red. masses --      2.1723                 2.7027                 1.8986
 Frc consts  --      2.0891                 2.8207                 2.1790
 IR Inten    --      7.4410               164.1623                 4.4520

                     37                     38                     39
                      A                      A                      A
 Frequencies --   1440.7006              1480.9211              1487.0348
 Red. masses --      2.1958                 1.0981                 1.1015
 Frc consts  --      2.6853                 1.4189                 1.4350
 IR Inten    --     26.3083                 2.1408                 2.4211

                     40                     41                     42
                      A                      A                      A
 Frequencies --   1521.6179              1540.6447              3048.2043
 Red. masses --      1.1687                 1.6024                 1.0554
 Frc consts  --      1.5943                 2.2410                 5.7778
 IR Inten    --      4.5763                 6.0444                40.2889

                     43                     44                     45
                      A                      A                      A
 Frequencies --   3056.1070              3061.9270              3074.8662
 Red. masses --      1.0567                 1.0590                 1.0506
 Frc consts  --      5.8148                 5.8497                 5.8527
 IR Inten    --     31.0325                13.3847                27.9022

                     46                     47                     48
                      A                      A                      A
 Frequencies --   3109.8637              3113.0180              3119.1594
 Red. masses --      1.1093                 1.1075                 1.1096
 Frc consts  --      6.3208                 6.3235                 6.3606
 IR Inten    --     10.7802                28.3100                32.1415

                     49                     50                     51
                      A                      A                      A
 Frequencies --   3138.9417              3159.7609              3814.0258
 Red. masses --      1.0912                 1.1190                 1.0658
 Frc consts  --      6.3346                 6.5823                 9.1347
 IR Inten    --     23.6812                25.6465                18.8231

 - Thermochemistry -
 -------------------
 Temperature   298.150 Kelvin.  Pressure   1.00000 Atm.
 Atom     1 has atomic number  8 and mass  15.99491

 Molecular mass:   126.06808 amu.
 Principal axes and moments of inertia in atomic units:
                           1         2         3
     Eigenvalues --   503.982281369.056451463.22806
           X            0.99961  -0.01835  -0.02087
           Y            0.01890   0.99947   0.02637
           Z            0.02038  -0.02675   0.99943
 This molecule is an asymmetric top.
 Rotational symmetry number  1.
 Warning -- assumption of classical behavior for rotation
           may cause significant error
 Rotational temperatures (Kelvin)      0.17186     0.06327     0.05919
 Rotational constants (GHZ):           3.58096     1.31824     1.23340
 Zero-point vibrational energy     420136.1 (Joules/Mol)
                                  100.41494 (Kcal/Mol)
 Warning -- explicit consideration of  10 degrees of freedom as
           vibrations may cause significant error
 Vibrational temperatures:    174.36   373.74   392.89   435.76   542.64
          (Kelvin)            588.33   632.61   645.25   750.63   763.51
                              940.50  1058.74  1189.69  1195.29  1220.39
                             1290.01  1315.57  1353.69  1372.38  1398.34
                             1442.38  1481.99  1527.90  1580.21  1612.60
                             1622.85  1635.08  1657.51  1702.62  1726.93
                             1761.29  1778.59  1783.73  1838.18  1914.91
                             2008.10  2072.84  2130.71  2139.51  2189.27
                             2216.64  4385.68  4397.05  4405.42  4424.04
                             4474.39  4478.93  4487.77  4516.23  4546.19
                             5487.53

 Zero-point correction=                           0.160021 (Hartree/Particle)
 Thermal correction to Energy=                    0.167495
 Thermal correction to Enthalpy=                  0.168439
 Thermal correction to Gibbs Free Energy=         0.128541
 Sum of electronic and zero-point Energies=           -422.995061
 Sum of electronic and thermal Energies=              -422.987588
 Sum of electronic and thermal Enthalpies=            -422.986644
 Sum of electronic and thermal Free Energies=         -423.026542

                     E (Thermal)             CV                S
                      KCal/Mol        Cal/Mol-Kelvin    Cal/Mol-Kelvin
 Total                  105.105             30.953             83.973
 Electronic               0.000              0.000              0.000
 Translational            0.889              2.981             40.409
 Rotational               0.889              2.981             28.403
 Vibrational            103.327             24.991             15.162
 Vibration     1          0.609              1.932              3.081
 Vibration     2          0.668              1.746              1.663
 Vibration     3          0.676              1.723              1.577
 Vibration     4          0.694              1.668              1.401
 Vibration     5          0.748              1.519              1.051
 Vibration     6          0.773              1.451              0.930
 Vibration     7          0.800              1.384              0.828
 Vibration     8          0.807              1.364              0.800
 Vibration     9          0.877              1.202              0.606
 Vibration    10          0.886              1.182              0.586

 Optimization completed.
    -- Stationary point found.
 Normal termination of Gaussian 09 at Mon Jan 27 17:57:45 2020.
