 Gaussian 09, Revision D.01,
 Gaussian 09:  ES64L-G09RevD.01 24-Apr-2013

 -----------------------------
 # b3lyp 6-31G(2df,p) opt Freq
 -----------------------------

 -----
 titel
 -----
 Symbolic Z-matrix:
 Charge =  0 Multiplicity = 1

 SCF Done:  E(RB3LYP) =  -423.149710372     A.U. after   14 cycles
 Optimization completed.
    -- Stationary point found.
 Normal termination of Gaussian 09 at Tue Jan 28 09:08:24 2020.

 ----------------------------------------------------------------------
 #N Geom=AllCheck Guess=TCheck SCRF=Check GenChk RB3LYP/6-31G(2df,p) Fr
 eq
 ----------------------------------------------------------------------

 Structure from the checkpoint file:  "/scratch/puck/g09_5d3fe1dd-c7e8-45f4-8276-3456df102c51/Gau-20205.chk"
 -----
 titel
 -----
 Charge =  0 Multiplicity = 1

                         Standard orientation:
 ---------------------------------------------------------------------
 Center     Atomic      Atomic             Coordinates (Angstroms)
 Number     Number       Type             X           Y           Z
 ---------------------------------------------------------------------
      1          6           0        1.649521    1.766071    0.050676
      2          8           0        0.676417    1.036492    0.786854
      3          6           0        0.175354   -0.117108    0.143167
      4          6           0       -0.931689   -0.684113    1.080235
      5          6           0       -2.231173   -0.517798    0.268428
      6          6           0       -1.829875    0.520043   -0.782826
      7          8           0       -0.466805    0.212437   -1.078125
      8          6           0        1.249759   -1.075766   -0.161723
      9          6           0        2.128582   -1.867991   -0.368899
     10          1           0        1.261161    2.072269   -0.926513
     11          1           0        1.882425    2.651081    0.646196
     12          1           0        2.562836    1.176416   -0.096375
     13          1           0       -0.730971   -1.721394    1.348018
     14          1           0       -0.931125   -0.084088    1.991688
     15          1           0       -2.503731   -1.456975   -0.221269
     16          1           0       -3.076486   -0.196095    0.881379
     17          1           0       -2.390122    0.454554   -1.718080
     18          1           0       -1.916753    1.542007   -0.388129
     19          1           0        2.902999   -2.569237   -0.561087
 ---------------------------------------------------------------------

 SCF Done:  E(RB3LYP) =  -423.149710372     A.U. after    1 cycles

 The electronic state is 1-A.
 Alpha  occ. eigenvalues --  -19.14469 -19.14426 -10.30020 -10.22859 -10.21580
 Alpha  occ. eigenvalues --  -10.18844 -10.18702 -10.18230 -10.17907  -1.07208
 Alpha  occ. eigenvalues --   -1.00768  -0.78832  -0.77191  -0.72475  -0.67387
 Alpha  occ. eigenvalues --   -0.61154  -0.59922  -0.53882  -0.50732  -0.50065
 Alpha  occ. eigenvalues --   -0.48684  -0.44822  -0.44122  -0.41944  -0.40874
 Alpha  occ. eigenvalues --   -0.36635  -0.35519  -0.35106  -0.34331  -0.31689
 Alpha  occ. eigenvalues --   -0.28261  -0.27574  -0.27237  -0.25932
 Alpha virt. eigenvalues --    0.04149   0.04384   0.09155   0.11059   0.12473
 Alpha virt. eigenvalues --    0.13120   0.14205   0.14986   0.15751   0.16833
 Alpha virt. eigenvalues --    0.17760   0.17928   0.19129   0.20775   0.21210

 Mulliken charges:
               1
     1  C   -0.255336
     2  O   -0.270737
     3  C    0.300017
     4  C   -0.303440
     5  C   -0.208503
     6  C   -0.091917
     7  O   -0.270447
     8  C    0.297733
     9  C   -0.447308
    10  H    0.125866
    11  H    0.123255
    12  H    0.120989
    13  H    0.122835
    14  H    0.128578
    15  H    0.113670
    16  H    0.106559
    17  H    0.109372
    18  H    0.102875
    19  H    0.195938
 Sum of Mulliken charges =   0.00000

 Dipole moment (field-independent basis, Debye):
    X=             -0.6829    Y=             -0.2261    Z=              0.2171  Tot=              0.7514
 Quadrupole moment (field-independent basis, Debye-Ang):
   XX=            -46.1264   YY=            -49.5956   ZZ=            -55.7760
   XY=             -1.4043   XZ=             -0.9496   YZ=             -0.5732

  Exact polarizability:  90.717  -8.534  79.609  -2.020   1.406  61.370
 Approx polarizability: 122.389 -19.860 114.622  -5.173   5.901  93.704

                      1                      2                      3
                      A                      A                      A
 Frequencies --     48.9948               110.0118               158.1750
 Red. masses --      2.6314                 1.6640                 2.0053
 Frc consts  --      0.0037                 0.0119                 0.0296
 IR Inten    --      1.0469                 1.6764                 0.9269

                      4                      5                      6
                      A                      A                      A
 Frequencies --    162.1330               183.2746               241.2174
 Red. masses --      2.3268                 2.6075                 2.6140
 Frc consts  --      0.0360                 0.0516                 0.0896
 IR Inten    --      0.3969                 4.0084                 5.1140

                      7                      8                      9
                      A                      A                      A
 Frequencies --    286.3128               419.8746               477.1327
 Red. masses --      2.6249                 3.6485                 6.9968
 Frc consts  --      0.1268                 0.3790                 0.9385
 IR Inten    --      7.5969                 3.4984                 3.3688

                     10                     11                     12
                      A                      A                      A
 Frequencies --    503.8312               550.3177               611.5535
 Red. masses --      5.9112                 6.1213                 1.9940
 Frc consts  --      0.8841                 1.0922                 0.4394
 IR Inten    --      3.6062                 1.9135                 1.9908

                     13                     14                     15
                      A                      A                      A
 Frequencies --    644.8395               656.0845               658.4045
 Red. masses --      1.3162                 4.1569                 1.2597
 Frc consts  --      0.3225                 1.0542                 0.3217
 IR Inten    --     31.3368                 7.1402                31.7285

                     16                     17                     18
                      A                      A                      A
 Frequencies --    770.4540               833.2349               884.4833
 Red. masses --      3.7013                 1.8465                 1.9936
 Frc consts  --      1.2945                 0.7553                 0.9189
 IR Inten    --      3.6462                 3.7411                26.6614

                     19                     20                     21
                      A                      A                      A
 Frequencies --    933.6301               957.4938              1011.4877
 Red. masses --      2.6943                 2.1010                 2.2203
 Frc consts  --      1.3837                 1.1349                 1.3384
 IR Inten    --      4.8509                60.1728                 3.8668

                     22                     23                     24
                      A                      A                      A
 Frequencies --   1017.9140              1062.2656              1093.2122
 Red. masses --      4.5129                 6.5942                 2.9562
 Frc consts  --      2.7551                 4.3841                 2.0815
 IR Inten    --     21.6920               183.6299                63.4358

                     25                     26                     27
                      A                      A                      A
 Frequencies --   1143.6015              1159.7921              1182.1773
 Red. masses --      4.0455                 2.2562                 1.2894
 Frc consts  --      3.1173                 1.7881                 1.0617
 IR Inten    --    146.3163                49.3653                 0.5675

                     28                     29                     30
                      A                      A                      A
 Frequencies --   1211.2326              1221.5889              1258.8876
 Red. masses --      1.4079                 1.4432                 1.4484
 Frc consts  --      1.2169                 1.2689                 1.3524
 IR Inten    --      8.6787                 2.4819                16.6598

                     31                     32                     33
                      A                      A                      A
 Frequencies --   1271.1957              1316.4627              1339.3884
 Red. masses --      1.5069                 1.4233                 1.3689
 Frc consts  --      1.4347                 1.4533                 1.4469
 IR Inten    --     47.5497                18.7999                 0.7872

                     34                     35                     36
                      A                      A                      A
 Frequencies --   1386.5556              1467.2160              1482.0470
 Red. masses --      1.3188                 1.1464                 1.0810
 Frc consts  --      1.4939                 1.4541                 1.3989
 IR Inten    --      3.7782                 0.5869                 2.8274

                     37                     38                     39
                      A                      A                      A
 Frequencies --   1483.9416              1496.3128              1513.8368
 Red. masses --      1.0511                 1.0954                 1.0491
 Frc consts  --      1.3637                 1.4450                 1.4166
 IR Inten    --      2.5210                 5.1151                 6.8393

                     40                     41                     42
                      A                      A                      A
 Frequencies --   1516.8577              2238.6911              3008.7105
 Red. masses --      1.0997                 5.8843                 1.0690
 Frc consts  --      1.4907                17.3752                 5.7013
 IR Inten    --      0.6182                 5.2726                51.6194

                     43                     44                     45
                      A                      A                      A
 Frequencies --   3020.2989              3061.7979              3086.7739
 Red. masses --      1.0331                 1.0610                 1.1023
 Frc consts  --      5.5524                 5.8602                 6.1879
 IR Inten    --     44.1772                23.0846                27.9169

                     46                     47                     48
                      A                      A                      A
 Frequencies --   3089.3445              3104.1973              3113.0862
 Red. masses --      1.0627                 1.0937                 1.1040
 Frc consts  --      5.9759                 6.2094                 6.3037
 IR Inten    --     14.7323                21.2199                26.0026

                     49                     50                     51
                      A                      A                      A
 Frequencies --   3129.2476              3144.7157              3499.5462
 Red. masses --      1.1024                 1.1067                 1.1633
 Frc consts  --      6.3604                 6.4480                 8.3941
 IR Inten    --     22.5149                15.0612                61.2433

 - Thermochemistry -
 -------------------
 Temperature   298.150 Kelvin.  Pressure   1.00000 Atm.
 Atom     1 has atomic number  6 and mass  12.00000

 Molecular mass:   126.06808 amu.
 Principal axes and moments of inertia in atomic units:
                           1         2         3
     Eigenvalues --   766.664771209.330541517.21072
           X            0.99927   0.03687  -0.01007
           Y           -0.03716   0.99885  -0.03018
           Z            0.00895   0.03053   0.99949
 This molecule is an asymmetric top.
 Rotational symmetry number  1.
 Warning -- assumption of classical behavior for rotation
           may cause significant error
 Rotational temperatures (Kelvin)      0.11297     0.07162     0.05709
 Rotational constants (GHZ):           2.35402     1.49235     1.18951
 Zero-point vibrational energy     414050.5 (Joules/Mol)
                                   98.96044 (Kcal/Mol)
 Warning -- explicit consideration of  12 degrees of freedom as
           vibrations may cause significant error
 Vibrational temperatures:     70.49   158.28   227.58   233.27   263.69
          (Kelvin)            347.06   411.94   604.11   686.49   724.90
                              791.78   879.89   927.78   943.96   947.30
                             1108.51  1198.84  1272.57  1343.28  1377.62
                             1455.30  1464.55  1528.36  1572.89  1645.39
                             1668.68  1700.89  1742.69  1757.59  1811.26
                             1828.96  1894.09  1927.08  1994.94  2110.99
                             2132.33  2135.06  2152.86  2178.07  2182.42
                             3220.97  4328.86  4345.53  4405.24  4441.17
                             4444.87  4466.24  4479.03  4502.28  4524.54
                             5035.06

 Zero-point correction=                           0.157704 (Hartree/Particle)
 Thermal correction to Energy=                    0.166963
 Thermal correction to Enthalpy=                  0.167907
 Thermal correction to Gibbs Free Energy=         0.123332
 Sum of electronic and zero-point Energies=           -422.992007
 Sum of electronic and thermal Energies=              -422.982747
 Sum of electronic and thermal Enthalpies=            -422.981803
 Sum of electronic and thermal Free Energies=         -423.026379

                     E (Thermal)             CV                S
                      KCal/Mol        Cal/Mol-Kelvin    Cal/Mol-Kelvin
 Total                  104.771             34.170             93.818
 Electronic               0.000              0.000              0.000
 Translational            0.889              2.981             40.409
 Rotational               0.889              2.981             28.733
 Vibrational            102.994             28.208             24.676
 Vibration     1          0.595              1.978              4.858
 Vibration     2          0.606              1.941              3.269
 Vibration     3          0.621              1.893              2.572
 Vibration     4          0.622              1.889              2.525
 Vibration     5          0.631              1.863              2.295
 Vibration     6          0.658              1.777              1.794
 Vibration     7          0.684              1.699              1.496
 Vibration     8          0.783              1.427              0.892
 Vibration     9          0.834              1.301              0.718
 Vibration    10          0.859              1.242              0.649
 Vibration    11          0.906              1.139              0.544
 Vibration    12          0.971              1.007              0.430

 Optimization completed.
    -- Stationary point found.
 Normal termination of Gaussian 09 at Tue Jan 28 09:51:04 2020.
