 Gaussian 09, Revision D.01,
 Gaussian 09:  ES64L-G09RevD.01 24-Apr-2013

 -----------------------------
 # b3lyp 6-31G(2df,p) opt Freq
 -----------------------------

 -----
 titel
 -----
 Symbolic Z-matrix:
 Charge =  0 Multiplicity = 1

 SCF Done:  E(RB3LYP) =  -423.196861346     A.U. after   14 cycles
 Optimization completed.
    -- Stationary point found.
 Normal termination of Gaussian 09 at Mon Jan 27 13:15:54 2020.

 ----------------------------------------------------------------------
 #N Geom=AllCheck Guess=TCheck SCRF=Check GenChk RB3LYP/6-31G(2df,p) Fr
 eq
 ----------------------------------------------------------------------

 Structure from the checkpoint file:  "/scratch/puck/g09_af936b61-a0de-4300-8388-f3339e72ebd8/Gau-169425.chk"
 -----
 titel
 -----
 Charge =  0 Multiplicity = 1

                         Standard orientation:
 ---------------------------------------------------------------------
 Center     Atomic      Atomic             Coordinates (Angstroms)
 Number     Number       Type             X           Y           Z
 ---------------------------------------------------------------------
      1          8           0       -2.561990   -0.726277    0.510494
      2          6           0       -1.920300    0.198072    0.079071
      3          6           0       -0.445093    0.132099   -0.243366
      4          6           0        0.039336   -1.192691   -0.830810
      5          6           0        1.531874   -1.254590   -0.456357
      6          6           0        1.585972   -0.628855    0.952382
      7          6           0        0.542652    0.495616    0.924772
      8          6           0        0.866893    1.726927    0.055364
      9          8           0       -0.021164    1.291192   -0.997504
     10          1           0       -2.368086    1.201563   -0.099216
     11          1           0       -0.526516   -1.997812   -0.349567
     12          1           0       -0.144817   -1.241296   -1.907423
     13          1           0        1.935543   -2.269894   -0.483983
     14          1           0        2.114967   -0.653288   -1.162083
     15          1           0        1.296850   -1.371251    1.704716
     16          1           0        2.581867   -0.262761    1.222774
     17          1           0        0.108738    0.716064    1.900619
     18          1           0        0.553894    2.690766    0.474724
     19          1           0        1.904793    1.809112   -0.290811
 ---------------------------------------------------------------------

 SCF Done:  E(RB3LYP) =  -423.196861346     A.U. after    1 cycles

 The electronic state is 1-A.
 Alpha  occ. eigenvalues --  -19.14375 -19.14284 -10.26935 -10.24424 -10.23840
 Alpha  occ. eigenvalues --  -10.20541 -10.19282 -10.18814 -10.18576  -1.05568
 Alpha  occ. eigenvalues --   -1.04333  -0.83279  -0.75256  -0.72047  -0.67028
 Alpha  occ. eigenvalues --   -0.61647  -0.58275  -0.52953  -0.51005  -0.49292
 Alpha  occ. eigenvalues --   -0.47115  -0.45379  -0.43251  -0.42844  -0.41031
 Alpha  occ. eigenvalues --   -0.39231  -0.38154  -0.34887  -0.34603  -0.34013
 Alpha  occ. eigenvalues --   -0.32166  -0.30424  -0.27591  -0.24381
 Alpha virt. eigenvalues --   -0.03189   0.07754   0.08390   0.10205   0.12177
 Alpha virt. eigenvalues --    0.12350   0.14242   0.15271   0.15992   0.16266
 Alpha virt. eigenvalues --    0.17747   0.18915   0.19140   0.21047   0.22109

 Mulliken charges:
               1
     1  O   -0.260288
     2  C    0.093395
     3  C    0.347933
     4  C   -0.254696
     5  C   -0.225090
     6  C   -0.223966
     7  C   -0.106650
     8  C   -0.089159
     9  O   -0.337068
    10  H    0.088448
    11  H    0.125789
    12  H    0.112713
    13  H    0.102411
    14  H    0.113339
    15  H    0.111368
    16  H    0.102837
    17  H    0.088610
    18  H    0.106116
    19  H    0.103959
 Sum of Mulliken charges =   0.00000

 Dipole moment (field-independent basis, Debye):
    X=              2.4619    Y=              0.6459    Z=              0.7336  Tot=              2.6488
 Quadrupole moment (field-independent basis, Debye-Ang):
   XX=            -57.5208   YY=            -52.7138   ZZ=            -53.9723
   XY=             -2.8987   XZ=              2.2076   YZ=              3.3979

  Exact polarizability:  82.183   0.880  78.425  -0.068   0.868  63.951
 Approx polarizability: 114.580   8.093 114.626  -1.858  -3.777  99.023

                      1                      2                      3
                      A                      A                      A
 Frequencies --     80.0566               114.2393               210.7433
 Red. masses --      3.6108                 2.9735                 2.3998
 Frc consts  --      0.0136                 0.0229                 0.0628
 IR Inten    --      7.9551                 0.0467                 2.6264

                      4                      5                      6
                      A                      A                      A
 Frequencies --    226.1415               254.1780               362.8605
 Red. masses --      2.3577                 3.5003                 2.2777
 Frc consts  --      0.0710                 0.1332                 0.1767
 IR Inten    --      1.7417                10.4308                 2.6515

                      7                      8                      9
                      A                      A                      A
 Frequencies --    378.1343               491.1204               579.2435
 Red. masses --      2.1916                 5.0419                 3.7739
 Frc consts  --      0.1846                 0.7165                 0.7460
 IR Inten    --      1.6653                 0.8471                 5.7879

                     10                     11                     12
                      A                      A                      A
 Frequencies --    600.8100               709.6671               803.0107
 Red. masses --      2.1652                 3.4250                 2.2913
 Frc consts  --      0.4605                 1.0163                 0.8705
 IR Inten    --      4.3555                17.2928                 0.7899

                     13                     14                     15
                      A                      A                      A
 Frequencies --    824.9314               855.7562               891.1994
 Red. masses --      2.3595                 2.1400                 2.3468
 Frc consts  --      0.9460                 0.9234                 1.0982
 IR Inten    --      3.0192                 6.8607                 2.8846

                     16                     17                     18
                      A                      A                      A
 Frequencies --    906.3535               943.6200               974.7027
 Red. masses --      2.4386                 1.9850                 1.7265
 Frc consts  --      1.1803                 1.0414                 0.9664
 IR Inten    --      6.8228                 1.2483                 7.7613

                     19                     20                     21
                      A                      A                      A
 Frequencies --    985.2984              1019.0725              1028.3218
 Red. masses --      1.8963                 2.0838                 5.4736
 Frc consts  --      1.0847                 1.2750                 3.4102
 IR Inten    --      2.9558                11.1595                84.1752

                     22                     23                     24
                      A                      A                      A
 Frequencies --   1077.4832              1087.6265              1141.3676
 Red. masses --      1.9623                 1.6356                 2.2432
 Frc consts  --      1.3423                 1.1400                 1.7218
 IR Inten    --      4.2621                16.9330                 4.6268

                     25                     26                     27
                      A                      A                      A
 Frequencies --   1165.9832              1170.1068              1183.9502
 Red. masses --      1.3892                 1.5971                 2.2149
 Frc consts  --      1.1127                 1.2883                 1.8292
 IR Inten    --      3.1113                 3.4462                20.3961

                     28                     29                     30
                      A                      A                      A
 Frequencies --   1221.1581              1237.1953              1273.9056
 Red. masses --      1.5846                 1.8329                 1.3187
 Frc consts  --      1.3923                 1.6529                 1.2609
 IR Inten    --      3.9555                 3.5958                 0.8353

                     31                     32                     33
                      A                      A                      A
 Frequencies --   1313.6397              1329.4345              1339.7346
 Red. masses --      1.5783                 1.4765                 1.3233
 Frc consts  --      1.6047                 1.5375                 1.3994
 IR Inten    --      0.8803                 1.0206                 0.4800

                     34                     35                     36
                      A                      A                      A
 Frequencies --   1347.7259              1369.0511              1393.6824
 Red. masses --      1.4465                 1.5081                 1.2506
 Frc consts  --      1.5480                 1.6654                 1.4312
 IR Inten    --      0.7303                 2.2093                 8.6562

                     37                     38                     39
                      A                      A                      A
 Frequencies --   1471.3891              1485.9301              1500.6852
 Red. masses --      1.0910                 1.0835                 1.1034
 Frc consts  --      1.3917                 1.4095                 1.4641
 IR Inten    --      5.0117                 3.3707                 2.1401

                     40                     41                     42
                      A                      A                      A
 Frequencies --   1527.3212              1821.0617              2886.8859
 Red. masses --      1.0983                10.9364                 1.0842
 Frc consts  --      1.5094                21.3684                 5.3236
 IR Inten    --      0.6984               139.8376               102.3432

                     43                     44                     45
                      A                      A                      A
 Frequencies --   3014.2022              3040.6256              3050.5597
 Red. masses --      1.0551                 1.0609                 1.0664
 Frc consts  --      5.6479                 5.7792                 5.8468
 IR Inten    --     70.1724                24.8311                13.6277

                     46                     47                     48
                      A                      A                      A
 Frequencies --   3054.7622              3057.1693              3083.3960
 Red. masses --      1.0598                 1.1097                 1.1004
 Frc consts  --      5.8269                 6.1109                 6.1640
 IR Inten    --      8.9509                38.7904                22.7675

                     49                     50                     51
                      A                      A                      A
 Frequencies --   3099.6928              3106.5458              3111.7766
 Red. masses --      1.0993                 1.0901                 1.1048
 Frc consts  --      6.2228                 6.1985                 6.3031
 IR Inten    --     29.0177                16.3637                27.0450

 - Thermochemistry -
 -------------------
 Temperature   298.150 Kelvin.  Pressure   1.00000 Atm.
 Atom     1 has atomic number  8 and mass  15.99491

 Molecular mass:   126.06808 amu.
 Principal axes and moments of inertia in atomic units:
                           1         2         3
     Eigenvalues --   740.237841126.091251392.48201
           X            0.99884  -0.04634   0.01284
           Y            0.04556   0.99742   0.05545
           Z           -0.01538  -0.05480   0.99838
 This molecule is an asymmetric top.
 Rotational symmetry number  1.
 Warning -- assumption of classical behavior for rotation
           may cause significant error
 Rotational temperatures (Kelvin)      0.11701     0.07692     0.06220
 Rotational constants (GHZ):           2.43806     1.60266     1.29606
 Zero-point vibrational energy     419910.2 (Joules/Mol)
                                  100.36095 (Kcal/Mol)
 Warning -- explicit consideration of  10 degrees of freedom as
           vibrations may cause significant error
 Vibrational temperatures:    115.18   164.36   303.21   325.37   365.70
          (Kelvin)            522.07   544.05   706.61   833.40   864.43
                             1021.05  1155.35  1186.89  1231.24  1282.24
                             1304.04  1357.66  1402.38  1417.62  1466.22
                             1479.52  1550.26  1564.85  1642.17  1677.59
                             1683.52  1703.44  1756.97  1780.05  1832.86
                             1890.03  1912.76  1927.58  1939.07  1969.76
                             2005.20  2117.00  2137.92  2159.15  2197.47
                             2620.10  4153.58  4336.76  4374.78  4389.07
                             4395.12  4398.58  4436.31  4459.76  4469.62
                             4477.15

 Zero-point correction=                           0.159935 (Hartree/Particle)
 Thermal correction to Energy=                    0.167908
 Thermal correction to Enthalpy=                  0.168852
 Thermal correction to Gibbs Free Energy=         0.127185
 Sum of electronic and zero-point Energies=           -423.036926
 Sum of electronic and thermal Energies=              -423.028954
 Sum of electronic and thermal Enthalpies=            -423.028010
 Sum of electronic and thermal Free Energies=         -423.069676

                     E (Thermal)             CV                S
                      KCal/Mol        Cal/Mol-Kelvin    Cal/Mol-Kelvin
 Total                  105.364             30.393             87.695
 Electronic               0.000              0.000              0.000
 Translational            0.889              2.981             40.409
 Rotational               0.889              2.981             28.542
 Vibrational            103.586             24.431             18.745
 Vibration     1          0.600              1.963              3.889
 Vibration     2          0.607              1.938              3.196
 Vibration     3          0.643              1.824              2.037
 Vibration     4          0.650              1.801              1.909
 Vibration     5          0.665              1.756              1.701
 Vibration     6          0.737              1.549              1.110
 Vibration     7          0.748              1.517              1.047
 Vibration     8          0.847              1.270              0.681
 Vibration     9          0.936              1.076              0.487
 Vibration    10          0.959              1.030              0.448

 Optimization completed.
    -- Stationary point found.
 Normal termination of Gaussian 09 at Mon Jan 27 14:01:38 2020.
