 Gaussian 09, Revision D.01,
 Gaussian 09:  ES64L-G09RevD.01 24-Apr-2013

 -----------------------------
 # b3lyp 6-31G(2df,p) opt Freq
 -----------------------------

 -----
 titel
 -----
 Symbolic Z-matrix:
 Charge =  0 Multiplicity = 1

 SCF Done:  E(RB3LYP) =  -423.117083545     A.U. after   14 cycles
 Optimization completed.
    -- Stationary point found.
 Normal termination of Gaussian 09 at Tue Jan 28 12:06:03 2020.

 ----------------------------------------------------------------------
 #N Geom=AllCheck Guess=TCheck SCRF=Check GenChk RB3LYP/6-31G(2df,p) Fr
 eq
 ----------------------------------------------------------------------

 Structure from the checkpoint file:  "/scratch/puck/g09_e55fb8f3-cb9f-4f3b-bf89-2e2669a9ac0e/Gau-6216.chk"
 -----
 titel
 -----
 Charge =  0 Multiplicity = 1

                         Standard orientation:
 ---------------------------------------------------------------------
 Center     Atomic      Atomic             Coordinates (Angstroms)
 Number     Number       Type             X           Y           Z
 ---------------------------------------------------------------------
      1          6           0        2.271704   -1.380644   -0.176112
      2          8           0        1.883524   -0.026832   -0.032400
      3          6           0        0.647547    0.271914   -0.601709
      4          6           0        0.320593    1.767628   -0.615671
      5          8           0       -0.926406    1.558576    0.076030
      6          6           0       -0.647750    0.142629    0.297322
      7          6           0       -0.398197   -0.134307    1.776341
      8          6           0       -1.695698   -0.704439   -0.255228
      9          6           0       -2.537534   -1.422289   -0.726563
     10          1           0        2.323271   -1.669729   -1.236108
     11          1           0        3.263904   -1.478193    0.269552
     12          1           0        1.582134   -2.064577    0.337098
     13          1           0        0.523600   -0.228154   -1.570155
     14          1           0        1.030718    2.362863   -0.028968
     15          1           0        0.176036    2.229293   -1.597904
     16          1           0        0.467355    0.432980    2.123934
     17          1           0       -1.279741    0.165120    2.349222
     18          1           0       -0.217406   -1.198627    1.952041
     19          1           0       -3.290808   -2.047882   -1.138042
 ---------------------------------------------------------------------

 SCF Done:  E(RB3LYP) =  -423.117083545     A.U. after    1 cycles

 The electronic state is 1-A.
 Alpha  occ. eigenvalues --  -19.15716 -19.13545 -10.25822 -10.24369 -10.23439
 Alpha  occ. eigenvalues --  -10.22904 -10.18183 -10.17903 -10.17839  -1.05844
 Alpha  occ. eigenvalues --   -1.03144  -0.78738  -0.74960  -0.72646  -0.67437
 Alpha  occ. eigenvalues --   -0.65476  -0.57742  -0.53356  -0.51228  -0.50325
 Alpha  occ. eigenvalues --   -0.48474  -0.45086  -0.44143  -0.41820  -0.41063
 Alpha  occ. eigenvalues --   -0.40090  -0.38816  -0.35480  -0.33250  -0.31280
 Alpha  occ. eigenvalues --   -0.28781  -0.27488  -0.25879  -0.24679
 Alpha virt. eigenvalues --    0.02495   0.04892   0.08044   0.10631   0.11424
 Alpha virt. eigenvalues --    0.12490   0.13346   0.14053   0.14234   0.15846
 Alpha virt. eigenvalues --    0.16194   0.18207   0.18924   0.19198   0.21397

 Mulliken charges:
               1
     1  C   -0.247358
     2  O   -0.230008
     3  C    0.035915
     4  C   -0.111324
     5  O   -0.311176
     6  C    0.185560
     7  C   -0.432800
     8  C    0.310292
     9  C   -0.461867
    10  H    0.114796
    11  H    0.133332
    12  H    0.118968
    13  H    0.085965
    14  H    0.111052
    15  H    0.110124
    16  H    0.131149
    17  H    0.135731
    18  H    0.123113
    19  H    0.198538
 Sum of Mulliken charges =   0.00000

 Dipole moment (field-independent basis, Debye):
    X=              1.2212    Y=             -1.8024    Z=             -0.6622  Tot=              2.2756
 Quadrupole moment (field-independent basis, Debye-Ang):
   XX=            -52.8265   YY=            -51.6222   ZZ=            -51.2305
   XY=              2.1915   XZ=              0.5344   YZ=             -0.0574

  Exact polarizability:  86.855  10.531  78.484   5.204   2.058  68.951
 Approx polarizability: 122.673  21.356 115.973  11.626   8.400  98.858

                      1                      2                      3
                      A                      A                      A
 Frequencies --     48.7627               109.5607               142.1210
 Red. masses --      3.1095                 2.7121                 3.4058
 Frc consts  --      0.0044                 0.0192                 0.0405
 IR Inten    --      0.5026                 1.4472                 1.2106

                      4                      5                      6
                      A                      A                      A
 Frequencies --    161.8684               187.6644               231.1702
 Red. masses --      1.2035                 3.1207                 1.1360
 Frc consts  --      0.0186                 0.0648                 0.0358
 IR Inten    --      0.5264                 1.6524                 0.2799

                      7                      8                      9
                      A                      A                      A
 Frequencies --    257.3519               275.0479               374.1306
 Red. masses --      2.6838                 2.5728                 3.3610
 Frc consts  --      0.1047                 0.1147                 0.2772
 IR Inten    --      6.1180                 2.8944                 4.6452

                     10                     11                     12
                      A                      A                      A
 Frequencies --    426.8010               460.7458               529.0668
 Red. masses --      3.8069                 4.5923                 5.1065
 Frc consts  --      0.4086                 0.5744                 0.8422
 IR Inten    --      0.9190                 1.4403                 7.9573

                     13                     14                     15
                      A                      A                      A
 Frequencies --    559.9463               619.0641               643.2586
 Red. masses --      5.2059                 1.2283                 4.2288
 Frc consts  --      0.9617                 0.2773                 1.0310
 IR Inten    --      2.6592                44.1263                 5.7020

                     16                     17                     18
                      A                      A                      A
 Frequencies --    662.5332               779.9010               881.2284
 Red. masses --      1.2544                 2.6695                 2.6918
 Frc consts  --      0.3244                 0.9567                 1.2316
 IR Inten    --     34.3871                 3.6776                25.9728

                     19                     20                     21
                      A                      A                      A
 Frequencies --    914.8432               943.6205              1018.0906
 Red. masses --      2.0907                 1.9106                 7.0724
 Frc consts  --      1.0309                 1.0023                 4.3190
 IR Inten    --      4.9719                14.4899                83.4285

                     22                     23                     24
                      A                      A                      A
 Frequencies --   1045.0631              1077.8242              1116.6992
 Red. masses --      3.9404                 2.4914                 2.3054
 Frc consts  --      2.5356                 1.7052                 1.6938
 IR Inten    --     43.7478                13.3683                16.3057

                     25                     26                     27
                      A                      A                      A
 Frequencies --   1156.1020              1168.4113              1174.9510
 Red. masses --      1.6604                 1.7918                 2.2255
 Frc consts  --      1.3076                 1.4413                 1.8102
 IR Inten    --     38.3505                75.6898                18.1000

                     28                     29                     30
                      A                      A                      A
 Frequencies --   1184.7932              1211.0408              1249.6922
 Red. masses --      1.5782                 2.1183                 2.1316
 Frc consts  --      1.3053                 1.8305                 1.9614
 IR Inten    --     23.0565                29.9693                61.1000

                     31                     32                     33
                      A                      A                      A
 Frequencies --   1279.9344              1335.3653              1395.5927
 Red. masses --      1.6120                 1.3616                 1.2923
 Frc consts  --      1.5559                 1.4306                 1.4829
 IR Inten    --      8.0268                 3.4623                14.2614

                     34                     35                     36
                      A                      A                      A
 Frequencies --   1410.3809              1476.9846              1482.4451
 Red. masses --      1.3245                 1.0671                 1.0860
 Frc consts  --      1.5523                 1.3716                 1.4062
 IR Inten    --     20.0695                 2.8319                 5.4520

                     37                     38                     39
                      A                      A                      A
 Frequencies --   1487.1556              1492.5379              1507.8657
 Red. masses --      1.0722                 1.0793                 1.0664
 Frc consts  --      1.3971                 1.4166                 1.4286
 IR Inten    --      5.3888                 3.6467                 6.7988

                     40                     41                     42
                      A                      A                      A
 Frequencies --   1517.9542              2229.3465              2990.5352
 Red. masses --      1.1058                 5.9433                 1.0368
 Frc consts  --      1.5012                17.4033                 5.4633
 IR Inten    --      1.4614                 0.7753                41.3305

                     43                     44                     45
                      A                      A                      A
 Frequencies --   3025.7008              3027.9021              3045.7454
 Red. masses --      1.0631                 1.0793                 1.0964
 Frc consts  --      5.7342                 5.8301                 5.9925
 IR Inten    --     49.0549                36.5622                31.0750

                     46                     47                     48
                      A                      A                      A
 Frequencies --   3051.0847              3079.4348              3123.9431
 Red. masses --      1.0395                 1.1092                 1.0996
 Frc consts  --      5.7013                 6.1972                 6.3224
 IR Inten    --     19.9346                39.4131                27.4749

                     49                     50                     51
                      A                      A                      A
 Frequencies --   3125.0588              3141.1145              3500.5420
 Red. masses --      1.1001                 1.1027                 1.1616
 Frc consts  --      6.3296                 6.4103                 8.3862
 IR Inten    --     12.8196                11.7271                66.5955

 - Thermochemistry -
 -------------------
 Temperature   298.150 Kelvin.  Pressure   1.00000 Atm.
 Atom     1 has atomic number  6 and mass  12.00000

 Molecular mass:   126.06808 amu.
 Principal axes and moments of inertia in atomic units:
                           1         2         3
     Eigenvalues --   835.606361312.693431595.35534
           X            0.99982  -0.01798  -0.00561
           Y            0.01790   0.99976  -0.01291
           Z            0.00584   0.01281   0.99990
 This molecule is an asymmetric top.
 Rotational symmetry number  1.
 Warning -- assumption of classical behavior for rotation
           may cause significant error
 Rotational temperatures (Kelvin)      0.10365     0.06598     0.05429
 Rotational constants (GHZ):           2.15980     1.37484     1.13125
 Zero-point vibrational energy     408751.9 (Joules/Mol)
                                   97.69404 (Kcal/Mol)
 Warning -- explicit consideration of  14 degrees of freedom as
           vibrations may cause significant error
 Vibrational temperatures:     70.16   157.63   204.48   232.89   270.01
          (Kelvin)            332.60   370.27   395.73   538.29   614.07
                              662.91   761.21   805.64   890.69   925.50
                              953.24  1122.10  1267.89  1316.25  1357.66
                             1464.80  1503.61  1550.75  1606.68  1663.37
                             1681.08  1690.49  1704.65  1742.42  1798.03
                             1841.54  1921.29  2007.94  2029.22  2125.05
                             2132.91  2139.68  2147.43  2169.48  2183.99
                             3207.53  4302.71  4353.30  4356.47  4382.14
                             4389.82  4430.61  4494.65  4496.26  4519.36
                             5036.49

 Zero-point correction=                           0.155685 (Hartree/Particle)
 Thermal correction to Energy=                    0.165579
 Thermal correction to Enthalpy=                  0.166523
 Thermal correction to Gibbs Free Energy=         0.120688
 Sum of electronic and zero-point Energies=           -422.961398
 Sum of electronic and thermal Energies=              -422.951505
 Sum of electronic and thermal Enthalpies=            -422.950561
 Sum of electronic and thermal Free Energies=         -422.996396

                     E (Thermal)             CV                S
                      KCal/Mol        Cal/Mol-Kelvin    Cal/Mol-Kelvin
 Total                  103.902             35.839             96.468
 Electronic               0.000              0.000              0.000
 Translational            0.889              2.981             40.409
 Rotational               0.889              2.981             28.950
 Vibrational            102.125             29.877             27.110
 Vibration     1          0.595              1.978              4.867
 Vibration     2          0.606              1.942              3.277
 Vibration     3          0.616              1.911              2.775
 Vibration     4          0.622              1.889              2.528
 Vibration     5          0.632              1.857              2.251
 Vibration     6          0.653              1.793              1.870
 Vibration     7          0.667              1.750              1.680
 Vibration     8          0.677              1.719              1.564
 Vibration     9          0.745              1.525              1.063
 Vibration    10          0.788              1.412              0.869
 Vibration    11          0.819              1.337              0.764
 Vibration    12          0.884              1.186              0.589
 Vibration    13          0.916              1.118              0.524
 Vibration    14          0.979              0.992              0.418

 Optimization completed.
    -- Stationary point found.
 Normal termination of Gaussian 09 at Tue Jan 28 13:52:39 2020.
