 Gaussian 09, Revision D.01,
 Gaussian 09:  ES64L-G09RevD.01 24-Apr-2013

 -----------------------------
 # b3lyp 6-31G(2df,p) opt Freq
 -----------------------------

 -----
 titel
 -----
 Symbolic Z-matrix:
 Charge =  0 Multiplicity = 1

 SCF Done:  E(RB3LYP) =  -423.235919430     A.U. after   14 cycles
 Optimization completed.
    -- Stationary point found.
 Normal termination of Gaussian 09 at Tue Jan 28 11:44:11 2020.

 ----------------------------------------------------------------------
 #N Geom=AllCheck Guess=TCheck SCRF=Check GenChk RB3LYP/6-31G(2df,p) Fr
 eq
 ----------------------------------------------------------------------

 Structure from the checkpoint file:  "/scratch/puck/g09_598870f7-2d28-4cf5-97dd-cb22ee7508e6/Gau-112466.chk"
 -----
 titel
 -----
 Charge =  0 Multiplicity = 1

                         Standard orientation:
 ---------------------------------------------------------------------
 Center     Atomic      Atomic             Coordinates (Angstroms)
 Number     Number       Type             X           Y           Z
 ---------------------------------------------------------------------
      1          6           0        1.702642   -1.298157   -0.954279
      2          6           0        2.191219   -0.095044   -0.141719
      3          6           0        1.084762    0.779085    0.504524
      4          6           0        0.181869    0.047467    1.501674
      5          8           0       -0.854731   -0.734638    0.887773
      6          6           0       -1.597628   -0.165127   -0.099803
      7          8           0       -2.624979   -0.687188   -0.447829
      8          6           0       -1.036379    1.043006   -0.747252
      9          6           0        0.211244    1.457555   -0.513966
     10          1           0        1.138733   -2.002514   -0.337266
     11          1           0        1.053304   -0.987307   -1.777991
     12          1           0        2.554202   -1.833381   -1.385046
     13          1           0        2.852595   -0.437857    0.663869
     14          1           0        2.804295    0.552926   -0.780900
     15          1           0        1.604237    1.559328    1.077920
     16          1           0        0.747843   -0.658890    2.114374
     17          1           0       -0.290855    0.777987    2.170515
     18          1           0       -1.685384    1.505124   -1.481701
     19          1           0        0.632334    2.286484   -1.078394
 ---------------------------------------------------------------------

 SCF Done:  E(RB3LYP) =  -423.235919430     A.U. after    1 cycles

 The electronic state is 1-A.
 Alpha  occ. eigenvalues --  -19.17437 -19.11485 -10.30065 -10.24946 -10.21690
 Alpha  occ. eigenvalues --  -10.21375 -10.20187 -10.19899 -10.17827  -1.09030
 Alpha  occ. eigenvalues --   -1.01009  -0.84144  -0.78129  -0.74112  -0.67298
 Alpha  occ. eigenvalues --   -0.63138  -0.60279  -0.52694  -0.50911  -0.50118
 Alpha  occ. eigenvalues --   -0.47135  -0.44789  -0.43437  -0.42445  -0.41601
 Alpha  occ. eigenvalues --   -0.40015  -0.39186  -0.36426  -0.35594  -0.34534
 Alpha  occ. eigenvalues --   -0.32459  -0.28623  -0.27913  -0.26224
 Alpha virt. eigenvalues --   -0.04563   0.06919   0.07942   0.10837   0.11688
 Alpha virt. eigenvalues --    0.12309   0.13476   0.14518   0.15158   0.16647
 Alpha virt. eigenvalues --    0.17456   0.17943   0.18792   0.20262   0.21346

 Mulliken charges:
               1
     1  C   -0.382417
     2  C   -0.195948
     3  C   -0.064110
     4  C   -0.096353
     5  O   -0.236129
     6  C    0.412614
     7  O   -0.337710
     8  C   -0.184157
     9  C   -0.065665
    10  H    0.138799
    11  H    0.125905
    12  H    0.114885
    13  H    0.102993
    14  H    0.101279
    15  H    0.093395
    16  H    0.121627
    17  H    0.116386
    18  H    0.122306
    19  H    0.112301
 Sum of Mulliken charges =   0.00000

 Dipole moment (field-independent basis, Debye):
    X=              4.0169    Y=              2.6299    Z=              0.6454  Tot=              4.8444
 Quadrupole moment (field-independent basis, Debye-Ang):
   XX=            -60.7081   YY=            -52.9130   ZZ=            -50.9716
   XY=             -4.0008   XZ=             -0.1167   YZ=             -0.7917

  Exact polarizability:  94.285   5.689  69.838   7.113  -2.388  68.336
 Approx polarizability: 147.656  19.871 106.065  15.976  -3.128 100.276

                      1                      2                      3
                      A                      A                      A
 Frequencies --     75.5924                96.9224               192.3398
 Red. masses --      5.1245                 2.1282                 4.2116
 Frc consts  --      0.0173                 0.0118                 0.0918
 IR Inten    --      2.0548                 0.1625                 0.4772

                      4                      5                      6
                      A                      A                      A
 Frequencies --    202.2457               243.9838               309.8357
 Red. masses --      2.5373                 1.3226                 2.4451
 Frc consts  --      0.0611                 0.0464                 0.1383
 IR Inten    --      3.9719                 0.5933                 0.2790

                      7                      8                      9
                      A                      A                      A
 Frequencies --    362.0934               427.4740               451.3900
 Red. masses --      2.1324                 3.2691                 4.9296
 Frc consts  --      0.1647                 0.3520                 0.5918
 IR Inten    --      1.0096                 1.0565                 1.3082

                     10                     11                     12
                      A                      A                      A
 Frequencies --    556.3935               611.1160               705.6993
 Red. masses --      7.0880                 3.4800                 2.4384
 Frc consts  --      1.2928                 0.7657                 0.7155
 IR Inten    --      5.0636                 4.1427                 2.5194

                     13                     14                     15
                      A                      A                      A
 Frequencies --    755.4644               790.8230               807.9281
 Red. masses --      3.0711                 1.3668                 4.1716
 Frc consts  --      1.0327                 0.5036                 1.6044
 IR Inten    --      2.4001                 0.5330                 9.0170

                     16                     17                     18
                      A                      A                      A
 Frequencies --    854.8393               889.1214               923.7766
 Red. masses --      2.2893                 2.8681                 2.3755
 Frc consts  --      0.9856                 1.3359                 1.1944
 IR Inten    --     43.4977                 7.4560                 8.8644

                     19                     20                     21
                      A                      A                      A
 Frequencies --    972.1454              1014.2611              1020.5408
 Red. masses --      2.3167                 1.8713                 1.2666
 Frc consts  --      1.2900                 1.1342                 0.7772
 IR Inten    --     10.0694                 1.3705                 0.4016

                     22                     23                     24
                      A                      A                      A
 Frequencies --   1053.7870              1093.4697              1128.5126
 Red. masses --      1.9505                 2.2086                 2.0953
 Frc consts  --      1.2761                 1.5559                 1.5722
 IR Inten    --     20.2368                34.1439                54.4671

                     25                     26                     27
                      A                      A                      A
 Frequencies --   1141.6517              1167.3491              1239.6126
 Red. masses --      1.7568                 1.6364                 1.6277
 Frc consts  --      1.3491                 1.3139                 1.4737
 IR Inten    --     22.1678                13.3444                58.6459

                     28                     29                     30
                      A                      A                      A
 Frequencies --   1273.6821              1288.1521              1318.9507
 Red. masses --      1.3249                 1.1880                 1.4392
 Frc consts  --      1.2663                 1.1615                 1.4752
 IR Inten    --     30.3159                 2.0146                14.5270

                     31                     32                     33
                      A                      A                      A
 Frequencies --   1369.1865              1381.9153              1404.7824
 Red. masses --      1.4238                 1.4801                 1.6828
 Frc consts  --      1.5726                 1.6654                 1.9566
 IR Inten    --      7.1297                 4.1605                20.3538

                     34                     35                     36
                      A                      A                      A
 Frequencies --   1421.4482              1428.4881              1483.0691
 Red. masses --      1.2627                 1.3754                 1.0718
 Frc consts  --      1.5032                 1.6537                 1.3890
 IR Inten    --      5.2838                 9.9781                 1.6734

                     37                     38                     39
                      A                      A                      A
 Frequencies --   1500.4072              1506.8692              1507.9078
 Red. masses --      1.0444                 1.0804                 1.0707
 Frc consts  --      1.3852                 1.4454                 1.4344
 IR Inten    --      3.4545                 2.2431                 9.8956

                     40                     41                     42
                      A                      A                      A
 Frequencies --   1691.3770              1826.2534              3006.5611
 Red. masses --      6.9919                12.0110                 1.0771
 Frc consts  --     11.7848                23.6022                 5.7365
 IR Inten    --      4.3512               355.4084                 1.9391

                     43                     44                     45
                      A                      A                      A
 Frequencies --   3021.8245              3030.3133              3046.3236
 Red. masses --      1.0620                 1.0698                 1.0360
 Frc consts  --      5.7136                 5.7881                 5.6644
 IR Inten    --     34.2162                66.7174                14.7797

                     46                     47                     48
                      A                      A                      A
 Frequencies --   3054.1167              3098.8739              3111.4911
 Red. masses --      1.1025                 1.0991                 1.1012
 Frc consts  --      6.0591                 6.2187                 6.2813
 IR Inten    --     20.4833                21.2697                30.0746

                     49                     50                     51
                      A                      A                      A
 Frequencies --   3125.0283              3155.6443              3210.3927
 Red. masses --      1.1016                 1.0886                 1.0950
 Frc consts  --      6.3384                 6.3871                 6.6495
 IR Inten    --     20.0196                11.3378                 3.9958

 - Thermochemistry -
 -------------------
 Temperature   298.150 Kelvin.  Pressure   1.00000 Atm.
 Atom     1 has atomic number  6 and mass  12.00000

 Molecular mass:   126.06808 amu.
 Principal axes and moments of inertia in atomic units:
                           1         2         3
     Eigenvalues --   677.068111395.416951451.02153
           X            0.99939  -0.03320  -0.01080
           Y            0.03412   0.99433   0.10073
           Z            0.00739  -0.10104   0.99486
 This molecule is an asymmetric top.
 Rotational symmetry number  1.
 Warning -- assumption of classical behavior for rotation
           may cause significant error
 Rotational temperatures (Kelvin)      0.12792     0.06207     0.05969
 Rotational constants (GHZ):           2.66552     1.29333     1.24377
 Zero-point vibrational energy     420795.0 (Joules/Mol)
                                  100.57241 (Kcal/Mol)
 Warning -- explicit consideration of  11 degrees of freedom as
           vibrations may cause significant error
 Vibrational temperatures:    108.76   139.45   276.73   290.99   351.04
          (Kelvin)            445.78   520.97   615.04   649.45   800.53
                              879.26  1015.34  1086.94  1137.82  1162.43
                             1229.92  1279.25  1329.11  1398.70  1459.29
                             1468.33  1516.16  1573.26  1623.68  1642.58
                             1679.55  1783.52  1832.54  1853.36  1897.67
                             1969.95  1988.27  2021.17  2045.14  2055.27
                             2133.80  2158.75  2168.05  2169.54  2433.51
                             2627.57  4325.77  4347.73  4359.94  4382.97
                             4394.19  4458.58  4476.74  4496.21  4540.26
                             4619.03

 Zero-point correction=                           0.160272 (Hartree/Particle)
 Thermal correction to Energy=                    0.168761
 Thermal correction to Enthalpy=                  0.169706
 Thermal correction to Gibbs Free Energy=         0.126914
 Sum of electronic and zero-point Energies=           -423.075647
 Sum of electronic and thermal Energies=              -423.067158
 Sum of electronic and thermal Enthalpies=            -423.066214
 Sum of electronic and thermal Free Energies=         -423.109005

                     E (Thermal)             CV                S
                      KCal/Mol        Cal/Mol-Kelvin    Cal/Mol-Kelvin
 Total                  105.899             31.832             90.062
 Electronic               0.000              0.000              0.000
 Translational            0.889              2.981             40.409
 Rotational               0.889              2.981             28.707
 Vibrational            104.122             25.870             20.946
 Vibration     1          0.599              1.965              4.002
 Vibration     2          0.603              1.951              3.515
 Vibration     3          0.634              1.850              2.205
 Vibration     4          0.639              1.837              2.113
 Vibration     5          0.659              1.773              1.774
 Vibration     6          0.699              1.655              1.363
 Vibration     7          0.736              1.550              1.113
 Vibration     8          0.789              1.410              0.867
 Vibration     9          0.810              1.358              0.792
 Vibration    10          0.912              1.126              0.531
 Vibration    11          0.970              1.008              0.431

 Optimization completed.
    -- Stationary point found.
 Normal termination of Gaussian 09 at Tue Jan 28 12:26:42 2020.
