 Gaussian 09, Revision D.01,
 Gaussian 09:  ES64L-G09RevD.01 24-Apr-2013

 -----------------------------
 # b3lyp 6-31G(2df,p) opt Freq
 -----------------------------

 -----
 titel
 -----
 Symbolic Z-matrix:
 Charge =  0 Multiplicity = 1

 SCF Done:  E(RB3LYP) =  -423.156042977     A.U. after   14 cycles
 Optimization completed.
    -- Stationary point found.
 Normal termination of Gaussian 09 at Tue Jan 28 14:26:39 2020.

 ----------------------------------------------------------------------
 #N Geom=AllCheck Guess=TCheck SCRF=Check GenChk RB3LYP/6-31G(2df,p) Fr
 eq
 ----------------------------------------------------------------------

 Structure from the checkpoint file:  "/scratch/puck/g09_883ed6e8-6354-486d-8d96-6f60a4cb343f/Gau-164269.chk"
 -----
 titel
 -----
 Charge =  0 Multiplicity = 1

                         Standard orientation:
 ---------------------------------------------------------------------
 Center     Atomic      Atomic             Coordinates (Angstroms)
 Number     Number       Type             X           Y           Z
 ---------------------------------------------------------------------
      1          6           0        4.510331    0.115929    0.000461
      2          6           0        3.128675    0.746483    0.000160
      3          8           0        2.161362   -0.288174   -0.000781
      4          6           0        0.837829    0.185307   -0.000854
      5          6           0       -0.080384   -1.043422    0.000424
      6          6           0       -1.490876   -0.695665    0.000498
      7          6           0       -2.653958   -0.368329   -0.000080
      8          6           0       -4.052557   -0.029190   -0.000298
      9          8           0       -4.486329    1.100508    0.000439
     10          1           0        5.281653    0.891642    0.001453
     11          1           0        4.646311   -0.510534    0.886475
     12          1           0        4.647346   -0.509274   -0.886280
     13          1           0        2.993471    1.388045    0.886819
     14          1           0        2.994277    1.388922   -0.885992
     15          1           0        0.635491    0.806859    0.886036
     16          1           0        0.635067    0.805604   -0.888532
     17          1           0        0.151144   -1.660663   -0.876304
     18          1           0        0.151303   -1.658875    0.878378
     19          1           0       -4.730680   -0.907073   -0.001176
 ---------------------------------------------------------------------

 SCF Done:  E(RB3LYP) =  -423.156042977     A.U. after    1 cycles

 The electronic state is 1-A.
 Alpha  occ. eigenvalues --  -19.14949 -19.14181 -10.28777 -10.24445 -10.23637
 Alpha  occ. eigenvalues --  -10.22378 -10.21358 -10.19267 -10.18208  -1.04753
 Alpha  occ. eigenvalues --   -1.04472  -0.82038  -0.77130  -0.74088  -0.66559
 Alpha  occ. eigenvalues --   -0.63368  -0.61416  -0.52157  -0.50825  -0.50356
 Alpha  occ. eigenvalues --   -0.46642  -0.46131  -0.44682  -0.43832  -0.40710
 Alpha  occ. eigenvalues --   -0.39625  -0.38896  -0.37682  -0.35735  -0.32931
 Alpha  occ. eigenvalues --   -0.28468  -0.28318  -0.26581  -0.26496
 Alpha virt. eigenvalues --   -0.05957   0.02963   0.08197   0.10093   0.10685
 Alpha virt. eigenvalues --    0.11550   0.13364   0.13456   0.14727   0.15961
 Alpha virt. eigenvalues --    0.16524   0.17449   0.19011   0.20634   0.21032

 Mulliken charges:
               1
     1  C   -0.385433
     2  C   -0.033849
     3  O   -0.240559
     4  C   -0.046418
     5  C   -0.362792
     6  C    0.090349
     7  C    0.017502
     8  C    0.024546
     9  O   -0.231070
    10  H    0.118469
    11  H    0.128161
    12  H    0.128166
    13  H    0.091117
    14  H    0.091113
    15  H    0.104066
    16  H    0.104081
    17  H    0.152265
    18  H    0.152254
    19  H    0.098033
 Sum of Mulliken charges =   0.00000

 Dipole moment (field-independent basis, Debye):
    X=              2.8806    Y=             -1.4083    Z=             -0.0001  Tot=              3.2065
 Quadrupole moment (field-independent basis, Debye-Ang):
   XX=            -60.7541   YY=            -54.5316   ZZ=            -52.3747
   XY=             11.3682   XZ=              0.0087   YZ=             -0.0021

  Exact polarizability: 130.418  -8.349  70.557   0.014   0.001  56.669
 Approx polarizability: 168.225 -28.037 113.398   0.026   0.004  84.769

                      1                      2                      3
                      A                      A                      A
 Frequencies --     30.4927                44.6962                51.9311
 Red. masses --      2.3580                 2.7161                 5.5897
 Frc consts  --      0.0013                 0.0032                 0.0089
 IR Inten    --      8.5652                 1.4189                 2.3586

                      4                      5                      6
                      A                      A                      A
 Frequencies --     95.6951               128.4460               140.1500
 Red. masses --      2.0803                 2.7846                 4.8271
 Frc consts  --      0.0112                 0.0271                 0.0559
 IR Inten    --      0.6360                 0.4480                 0.4761

                      7                      8                      9
                      A                      A                      A
 Frequencies --    195.1386               228.9164               251.4333
 Red. masses --      3.1053                 4.6993                 1.1533
 Frc consts  --      0.0697                 0.1451                 0.0430
 IR Inten    --      8.6890                 2.7303                 0.8247

                     10                     11                     12
                      A                      A                      A
 Frequencies --    348.6490               411.2635               414.9376
 Red. masses --      5.9189                 3.5423                 3.8598
 Frc consts  --      0.4239                 0.3530                 0.3915
 IR Inten    --      0.0519                 9.6335                 0.3434

                     13                     14                     15
                      A                      A                      A
 Frequencies --    503.5604               635.0317               788.6409
 Red. masses --      3.9352                 7.6092                 1.1877
 Frc consts  --      0.5879                 1.8079                 0.4352
 IR Inten    --      3.2048                 3.3130                 0.4444

                     16                     17                     18
                      A                      A                      A
 Frequencies --    821.6918               831.5531               902.7950
 Red. masses --      1.0859                 4.4782                 2.1226
 Frc consts  --      0.4320                 1.8245                 1.0193
 IR Inten    --      0.5340                72.3210                 8.5769

                     19                     20                     21
                      A                      A                      A
 Frequencies --   1022.5665              1044.0191              1050.4635
 Red. masses --      1.7715                 3.2623                 3.6222
 Frc consts  --      1.0914                 2.0950                 2.3549
 IR Inten    --      0.8960                16.4551                 9.5287

                     22                     23                     24
                      A                      A                      A
 Frequencies --   1081.5753              1148.3479              1158.5011
 Red. masses --      1.5637                 2.9658                 3.1554
 Frc consts  --      1.0777                 2.3043                 2.4951
 IR Inten    --      1.4655                20.6200                 8.9841

                     25                     26                     27
                      A                      A                      A
 Frequencies --   1168.0082              1185.4501              1230.2639
 Red. masses --      5.8262                 1.4625                 1.2652
 Frc consts  --      4.6831                 1.2109                 1.1282
 IR Inten    --    318.3992                 3.7629                 5.1850

                     28                     29                     30
                      A                      A                      A
 Frequencies --   1296.4531              1300.9953              1307.1728
 Red. masses --      1.0933                 1.0898                 1.5124
 Frc consts  --      1.0827                 1.0868                 1.5226
 IR Inten    --      0.9325                 1.9170                32.7431

                     31                     32                     33
                      A                      A                      A
 Frequencies --   1388.7799              1408.3624              1423.1521
 Red. masses --      1.2601                 1.2853                 1.2018
 Frc consts  --      1.4320                 1.5021                 1.4341
 IR Inten    --     40.2249                19.1078                15.8065

                     34                     35                     36
                      A                      A                      A
 Frequencies --   1450.1604              1461.5221              1484.2474
 Red. masses --      1.4567                 1.0879                 1.0403
 Frc consts  --      1.8049                 1.3692                 1.3503
 IR Inten    --      6.9409                 2.8083                 4.3951

                     37                     38                     39
                      A                      A                      A
 Frequencies --   1499.6585              1516.7037              1537.9778
 Red. masses --      1.0484                 1.0826                 1.0948
 Frc consts  --      1.3892                 1.4673                 1.5258
 IR Inten    --      2.7719                 4.1693                 2.7089

                     40                     41                     42
                      A                      A                      A
 Frequencies --   1766.9185              2331.3109              2916.4126
 Red. masses --     10.5347                11.9291                 1.0815
 Frc consts  --     19.3778                38.1996                 5.4195
 IR Inten    --    241.0129               184.6405               104.8065

                     43                     44                     45
                      A                      A                      A
 Frequencies --   2958.2440              2974.5226              2986.5370
 Red. masses --      1.0544                 1.0546                 1.1057
 Frc consts  --      5.4365                 5.4978                 5.8104
 IR Inten    --     26.0058                53.7892                59.3823

                     46                     47                     48
                      A                      A                      A
 Frequencies --   3002.9660              3034.4354              3046.4709
 Red. masses --      1.1065                 1.0583                 1.0347
 Frc consts  --      5.8791                 5.7414                 5.6578
 IR Inten    --     33.8094                 7.5257                17.4012

                     49                     50                     51
                      A                      A                      A
 Frequencies --   3071.2632              3121.7815              3123.2542
 Red. masses --      1.1017                 1.1015                 1.1028
 Frc consts  --      6.1229                 6.3249                 6.3381
 IR Inten    --      9.2143                23.1438                25.3745

 - Thermochemistry -
 -------------------
 Temperature   298.150 Kelvin.  Pressure   1.00000 Atm.
 Atom     1 has atomic number  6 and mass  12.00000

 Molecular mass:   126.06808 amu.
 Principal axes and moments of inertia in atomic units:
                           1         2         3
     Eigenvalues --   241.154484257.489534453.60746
           X            0.99993   0.01153   0.00001
           Y           -0.01153   0.99993  -0.00002
           Z           -0.00001   0.00002   1.00000
 This molecule is an asymmetric top.
 Rotational symmetry number  1.
 Rotational temperatures (Kelvin)      0.35916     0.02034     0.01945
 Rotational constants (GHZ):           7.48376     0.42390     0.40523
 Zero-point vibrational energy     408665.4 (Joules/Mol)
                                   97.67337 (Kcal/Mol)
 Warning -- explicit consideration of  13 degrees of freedom as
           vibrations may cause significant error
 Vibrational temperatures:     43.87    64.31    74.72   137.68   184.80
          (Kelvin)            201.64   280.76   329.36   361.76   501.63
                              591.72   597.00   724.51   913.67  1134.68
                             1182.23  1196.42  1298.92  1471.24  1502.11
                             1511.38  1556.14  1652.21  1666.82  1680.50
                             1705.60  1770.07  1865.30  1871.84  1880.73
                             1998.14  2026.32  2047.60  2086.45  2102.80
                             2135.50  2157.67  2182.20  2212.80  2542.20
                             3354.23  4196.06  4256.25  4279.67  4296.96
                             4320.59  4365.87  4383.19  4418.86  4491.54
                             4493.66

 Zero-point correction=                           0.155652 (Hartree/Particle)
 Thermal correction to Energy=                    0.166592
 Thermal correction to Enthalpy=                  0.167536
 Thermal correction to Gibbs Free Energy=         0.116929
 Sum of electronic and zero-point Energies=           -423.000391
 Sum of electronic and thermal Energies=              -422.989451
 Sum of electronic and thermal Enthalpies=            -422.988507
 Sum of electronic and thermal Free Energies=         -423.039114

                     E (Thermal)             CV                S
                      KCal/Mol        Cal/Mol-Kelvin    Cal/Mol-Kelvin
 Total                  104.538             35.799            106.510
 Electronic               0.000              0.000              0.000
 Translational            0.889              2.981             40.409
 Rotational               0.889              2.981             29.904
 Vibrational            102.760             29.837             36.198
 Vibration     1          0.594              1.984              5.797
 Vibration     2          0.595              1.980              5.039
 Vibration     3          0.596              1.977              4.742
 Vibration     4          0.603              1.952              3.540
 Vibration     5          0.611              1.925              2.969
 Vibration     6          0.615              1.913              2.802
 Vibration     7          0.636              1.847              2.178
 Vibration     8          0.652              1.797              1.887
 Vibration     9          0.663              1.760              1.721
 Vibration    10          0.726              1.578              1.172
 Vibration    11          0.775              1.446              0.922
 Vibration    12          0.778              1.438              0.909
 Vibration    13          0.859              1.242              0.649

 Normal termination of Gaussian 09 at Tue Jan 28 14:57:27 2020.
