 Gaussian 09, Revision D.01,
 Gaussian 09:  ES64L-G09RevD.01 24-Apr-2013

 -----------------------------
 # b3lyp 6-31G(2df,p) opt Freq
 -----------------------------

 -----
 titel
 -----
 Symbolic Z-matrix:
 Charge =  0 Multiplicity = 1

 SCF Done:  E(RB3LYP) =  -423.137486545     A.U. after   14 cycles
 SCF Done:  E(RB3LYP) =  -423.137486458     A.U. after    7 cycles
 SCF Done:  E(RB3LYP) =  -423.137486388     A.U. after    6 cycles
 Optimization completed.
    -- Stationary point found.
 Normal termination of Gaussian 09 at Mon Jan 27 22:10:24 2020.

 ----------------------------------------------------------------------
 #N Geom=AllCheck Guess=TCheck SCRF=Check GenChk RB3LYP/6-31G(2df,p) Fr
 eq
 ----------------------------------------------------------------------

 Structure from the checkpoint file:  "/scratch/puck/g09_7fe100b0-5481-4aed-9fe0-5e0210bcece1/Gau-179190.chk"
 -----
 titel
 -----
 Charge =  0 Multiplicity = 1

                         Standard orientation:
 ---------------------------------------------------------------------
 Center     Atomic      Atomic             Coordinates (Angstroms)
 Number     Number       Type             X           Y           Z
 ---------------------------------------------------------------------
      1          6           0       -2.260220   -0.949627   -0.621294
      2          6           0       -1.224210   -0.134193    0.131578
      3          8           0       -1.900910    0.814467    0.915880
      4          6           0       -0.129791   -0.986510    0.848522
      5          6           0        0.844605   -0.689054   -0.336911
      6          6           0        2.232263   -0.399058   -0.049824
      7          6           0        3.386833   -0.174876    0.199144
      8          6           0       -0.095585    0.476224   -0.778928
      9          8           0        0.366725    1.710685   -0.264125
     10          1           0       -2.915080   -1.470925    0.083530
     11          1           0       -2.878480   -0.295552   -1.243925
     12          1           0       -1.785818   -1.696843   -1.265017
     13          1           0       -1.225689    1.446194    1.198357
     14          1           0        0.205122   -0.504762    1.769225
     15          1           0       -0.355021   -2.035517    1.052387
     16          1           0        0.783377   -1.487095   -1.084304
     17          1           0        4.404497    0.033296    0.418135
     18          1           0       -0.302681    0.545827   -1.853867
     19          1           0       -0.180121    2.406718   -0.642288
 ---------------------------------------------------------------------

 SCF Done:  E(RB3LYP) =  -423.137486388     A.U. after    1 cycles

 The electronic state is 1-A.
 Alpha  occ. eigenvalues --  -19.15762 -19.13386 -10.23933 -10.23619 -10.21171
 Alpha  occ. eigenvalues --  -10.18288 -10.17882 -10.17519 -10.16533  -1.04671
 Alpha  occ. eigenvalues --   -1.01331  -0.84463  -0.75269  -0.71661  -0.66392
 Alpha  occ. eigenvalues --   -0.63948  -0.56047  -0.54476  -0.51568  -0.50955
 Alpha  occ. eigenvalues --   -0.46604  -0.43996  -0.43039  -0.41544  -0.39902
 Alpha  occ. eigenvalues --   -0.38668  -0.36261  -0.35582  -0.34154  -0.32026
 Alpha  occ. eigenvalues --   -0.29164  -0.25889  -0.25361  -0.24880
 Alpha virt. eigenvalues --    0.04249   0.05284   0.06861   0.10167   0.11260
 Alpha virt. eigenvalues --    0.12636   0.12738   0.13999   0.15327   0.15944
 Alpha virt. eigenvalues --    0.17470   0.17500   0.20512   0.20787   0.22613

 Mulliken charges:
               1
     1  C   -0.430518
     2  C    0.401162
     3  O   -0.485926
     4  C   -0.302075
     5  C   -0.207674
     6  C    0.337306
     7  C   -0.445981
     8  C    0.038691
     9  O   -0.425362
    10  H    0.129172
    11  H    0.120254
    12  H    0.115495
    13  H    0.275521
    14  H    0.114802
    15  H    0.105274
    16  H    0.106673
    17  H    0.191723
    18  H    0.067291
    19  H    0.294173
 Sum of Mulliken charges =   0.00000

 Dipole moment (field-independent basis, Debye):
    X=             -0.3470    Y=              0.2038    Z=             -1.2247  Tot=              1.2891
 Quadrupole moment (field-independent basis, Debye-Ang):
   XX=            -55.9896   YY=            -48.9057   ZZ=            -52.2243
   XY=              0.4632   XZ=              3.4474   YZ=             -0.7459

  Exact polarizability: 102.510   3.784  68.133   5.063   0.286  63.212
 Approx polarizability: 144.500   7.625  99.640   8.693   2.874  95.229

                      1                      2                      3
                      A                      A                      A
 Frequencies --     64.6408               133.5340               166.3878
 Red. masses --      4.0893                 4.2140                 1.1543
 Frc consts  --      0.0101                 0.0443                 0.0188
 IR Inten    --      0.5364                 1.4249               178.0274

                      4                      5                      6
                      A                      A                      A
 Frequencies --    189.9340               228.1258               240.8599
 Red. masses --      3.5953                 1.0991                 2.8770
 Frc consts  --      0.0764                 0.0337                 0.0983
 IR Inten    --      2.0764                 5.1015                 1.9816

                      7                      8                      9
                      A                      A                      A
 Frequencies --    311.9898               324.6091               368.5990
 Red. masses --      3.4227                 2.5731                 4.8736
 Frc consts  --      0.1963                 0.1597                 0.3901
 IR Inten    --      1.1755                 4.5387                 2.5482

                     10                     11                     12
                      A                      A                      A
 Frequencies --    410.6822               506.8461               515.7421
 Red. masses --      3.5154                 4.3935                 4.8831
 Frc consts  --      0.3493                 0.6650                 0.7653
 IR Inten    --      5.9824                 2.7035                 6.8128

                     13                     14                     15
                      A                      A                      A
 Frequencies --    549.2160               585.7096               615.6703
 Red. masses --      1.2892                 2.4182                 1.2273
 Frc consts  --      0.2291                 0.4888                 0.2741
 IR Inten    --     16.9349                 8.2208                38.9911

                     16                     17                     18
                      A                      A                      A
 Frequencies --    627.7512               685.1255               741.0826
 Red. masses --      1.2480                 2.8567                 2.6581
 Frc consts  --      0.2898                 0.7901                 0.8601
 IR Inten    --     36.2885                27.5409                 4.3556

                     19                     20                     21
                      A                      A                      A
 Frequencies --    843.9325               883.8865               925.4260
 Red. masses --      2.4062                 2.2058                 2.1048
 Frc consts  --      1.0097                 1.0153                 1.0620
 IR Inten    --      3.0673                 2.5515                 1.2219

                     22                     23                     24
                      A                      A                      A
 Frequencies --    945.6293               984.3492              1045.1418
 Red. masses --      2.6728                 2.0956                 2.1084
 Frc consts  --      1.4082                 1.1964                 1.3569
 IR Inten    --      6.9996                28.9933                29.5594

                     25                     26                     27
                      A                      A                      A
 Frequencies --   1071.0425              1118.5042              1144.3443
 Red. masses --      2.1577                 1.8343                 2.5334
 Frc consts  --      1.4583                 1.3521                 1.9546
 IR Inten    --     37.3781                25.1801                15.5644

                     28                     29                     30
                      A                      A                      A
 Frequencies --   1169.6729              1193.3968              1221.9023
 Red. masses --      2.5801                 1.3788                 1.3611
 Frc consts  --      2.0797                 1.1569                 1.1973
 IR Inten    --      9.5490                 2.1640                57.3729

                     31                     32                     33
                      A                      A                      A
 Frequencies --   1245.7057              1270.7571              1288.7780
 Red. masses --      1.3794                 1.4031                 1.9149
 Frc consts  --      1.2611                 1.3349                 1.8740
 IR Inten    --     31.6692                38.0198                34.1612

                     34                     35                     36
                      A                      A                      A
 Frequencies --   1353.8988              1394.6719              1415.7723
 Red. masses --      1.6088                 1.2812                 1.3748
 Frc consts  --      1.7375                 1.4683                 1.6235
 IR Inten    --      2.0390                46.6062                 4.9630

                     37                     38                     39
                      A                      A                      A
 Frequencies --   1429.3979              1477.1663              1482.4202
 Red. masses --      1.7049                 1.0891                 1.0709
 Frc consts  --      2.0524                 1.4001                 1.3866
 IR Inten    --     43.0358                 6.3873                 0.3531

                     40                     41                     42
                      A                      A                      A
 Frequencies --   1497.7045              2238.0269              3022.7427
 Red. masses --      1.0665                 5.9738                 1.0858
 Frc consts  --      1.4095                17.6293                 5.8453
 IR Inten    --      1.2440                 4.1775                42.0034

                     43                     44                     45
                      A                      A                      A
 Frequencies --   3037.1790              3052.3988              3070.5724
 Red. masses --      1.0361                 1.0831                 1.0585
 Frc consts  --      5.6310                 5.9458                 5.8803
 IR Inten    --     17.9410                22.4713                19.1774

                     46                     47                     48
                      A                      A                      A
 Frequencies --   3111.3651              3112.3455              3131.7221
 Red. masses --      1.1019                 1.1015                 1.1088
 Frc consts  --      6.2846                 6.2867                 6.4072
 IR Inten    --     21.1284                20.7063                19.1835

                     49                     50                     51
                      A                      A                      A
 Frequencies --   3505.4275              3751.5724              3824.5777
 Red. masses --      1.1613                 1.0647                 1.0663
 Frc consts  --      8.4077                 8.8284                 9.1897
 IR Inten    --     70.5505                29.7157                37.9007

 - Thermochemistry -
 -------------------
 Temperature   298.150 Kelvin.  Pressure   1.00000 Atm.
 Atom     1 has atomic number  6 and mass  12.00000

 Molecular mass:   126.06808 amu.
 Principal axes and moments of inertia in atomic units:
                           1         2         3
     Eigenvalues --   578.194821567.350041780.01598
           X            0.99966   0.01959   0.01727
           Y           -0.01967   0.99979   0.00485
           Z           -0.01717  -0.00519   0.99984
 This molecule is an asymmetric top.
 Rotational symmetry number  1.
 Warning -- assumption of classical behavior for rotation
           may cause significant error
 Rotational temperatures (Kelvin)      0.14980     0.05526     0.04866
 Rotational constants (GHZ):           3.12134     1.15146     1.01389
 Zero-point vibrational energy     409888.1 (Joules/Mol)
                                   97.96560 (Kcal/Mol)
 Warning -- explicit consideration of  15 degrees of freedom as
           vibrations may cause significant error
 Vibrational temperatures:     93.00   192.13   239.39   273.27   328.22
          (Kelvin)            346.54   448.88   467.04   530.33   590.88
                              729.24   742.04   790.20   842.70   885.81
                              903.19   985.74  1066.25  1214.23  1271.71
                             1331.48  1360.55  1416.26  1503.72  1540.99
                             1609.28  1646.45  1682.90  1717.03  1758.04
                             1792.29  1828.33  1854.26  1947.96  2006.62
                             2036.98  2056.58  2125.31  2132.87  2154.86
                             3220.02  4349.05  4369.82  4391.72  4417.86
                             4476.55  4477.97  4505.84  5043.52  5397.67
                             5502.71

 Zero-point correction=                           0.156118 (Hartree/Particle)
 Thermal correction to Energy=                    0.165872
 Thermal correction to Enthalpy=                  0.166816
 Thermal correction to Gibbs Free Energy=         0.121928
 Sum of electronic and zero-point Energies=           -422.981368
 Sum of electronic and thermal Energies=              -422.971614
 Sum of electronic and thermal Enthalpies=            -422.970670
 Sum of electronic and thermal Free Energies=         -423.015558

                     E (Thermal)             CV                S
                      KCal/Mol        Cal/Mol-Kelvin    Cal/Mol-Kelvin
 Total                  104.086             37.002             94.475
 Electronic               0.000              0.000              0.000
 Translational            0.889              2.981             40.409
 Rotational               0.889              2.981             28.869
 Vibrational            102.309             31.041             25.198
 Vibration     1          0.597              1.971              4.310
 Vibration     2          0.613              1.920              2.895
 Vibration     3          0.624              1.884              2.476
 Vibration     4          0.633              1.854              2.228
 Vibration     5          0.651              1.798              1.894
 Vibration     6          0.658              1.778              1.797
 Vibration     7          0.700              1.651              1.352
 Vibration     8          0.709              1.626              1.287
 Vibration     9          0.741              1.537              1.086
 Vibration    10          0.775              1.447              0.924
 Vibration    11          0.862              1.235              0.641
 Vibration    12          0.871              1.215              0.620
 Vibration    13          0.904              1.141              0.546
 Vibration    14          0.943              1.062              0.475
 Vibration    15          0.975              0.999              0.423

 Optimization completed.
    -- Stationary point found.
 Normal termination of Gaussian 09 at Mon Jan 27 22:54:07 2020.
