 Gaussian 09, Revision D.01,
 Gaussian 09:  ES64L-G09RevD.01 24-Apr-2013

 -----------------------------
 # b3lyp 6-31G(2df,p) opt Freq
 -----------------------------

 -----
 titel
 -----
 Symbolic Z-matrix:
 Charge =  0 Multiplicity = 1

 SCF Done:  E(RB3LYP) =  -423.141506817     A.U. after   14 cycles
 Optimization completed.
    -- Stationary point found.
 Normal termination of Gaussian 09 at Tue Jan 28 08:17:49 2020.

 ----------------------------------------------------------------------
 #N Geom=AllCheck Guess=TCheck SCRF=Check GenChk RB3LYP/6-31G(2df,p) Fr
 eq
 ----------------------------------------------------------------------

 Structure from the checkpoint file:  "/scratch/puck/g09_492d8aaf-42cb-4577-866f-cb0b9d0de592/Gau-8485.chk"
 -----
 titel
 -----
 Charge =  0 Multiplicity = 1

                         Standard orientation:
 ---------------------------------------------------------------------
 Center     Atomic      Atomic             Coordinates (Angstroms)
 Number     Number       Type             X           Y           Z
 ---------------------------------------------------------------------
      1          6           0       -1.460288    2.398068    0.176505
      2          6           0       -1.787977    1.003400   -0.361596
      3          6           0       -0.859297   -0.081663    0.201580
      4          8           0        0.464571    0.220976   -0.199902
      5          6           0        1.450604   -0.486007    0.539309
      6          6           0        2.777110   -0.124992    0.061120
      7          6           0        3.882090    0.155106   -0.315521
      8          6           0       -1.285381   -1.441711   -0.346112
      9          8           0       -2.150077   -2.126780    0.132825
     10          1           0       -2.125177    3.146816   -0.263698
     11          1           0       -1.582127    2.439351    1.264363
     12          1           0       -0.429397    2.670904   -0.060261
     13          1           0       -2.816049    0.720476   -0.111239
     14          1           0       -1.707662    0.993511   -1.455475
     15          1           0       -0.946050   -0.106281    1.299677
     16          1           0        1.360800   -0.249604    1.612444
     17          1           0        1.308666   -1.575456    0.444538
     18          1           0        4.857556    0.406411   -0.652252
     19          1           0       -0.737681   -1.732891   -1.273197
 ---------------------------------------------------------------------

 SCF Done:  E(RB3LYP) =  -423.141506817     A.U. after    1 cycles

 The electronic state is 1-A.
 Alpha  occ. eigenvalues --  -19.16224 -19.14904 -10.27491 -10.26743 -10.24831
 Alpha  occ. eigenvalues --  -10.19768 -10.19230 -10.18630 -10.18017  -1.06207
 Alpha  occ. eigenvalues --   -1.04981  -0.81224  -0.76977  -0.71851  -0.68809
 Alpha  occ. eigenvalues --   -0.61732  -0.58375  -0.54396  -0.52547  -0.49185
 Alpha  occ. eigenvalues --   -0.48856  -0.45888  -0.44410  -0.43118  -0.42841
 Alpha  occ. eigenvalues --   -0.39344  -0.36736  -0.36321  -0.35339  -0.33515
 Alpha  occ. eigenvalues --   -0.30204  -0.28541  -0.27359  -0.24858
 Alpha virt. eigenvalues --   -0.03591   0.02530   0.04842   0.09673   0.10665
 Alpha virt. eigenvalues --    0.11925   0.12143   0.13765   0.14642   0.16247
 Alpha virt. eigenvalues --    0.16496   0.17808   0.17982   0.19227   0.21173

 Mulliken charges:
               1
     1  C   -0.390443
     2  C   -0.199744
     3  C    0.061004
     4  O   -0.255244
     5  C   -0.220631
     6  C    0.282926
     7  C   -0.412696
     8  C    0.129009
     9  O   -0.243497
    10  H    0.117910
    11  H    0.115725
    12  H    0.140709
    13  H    0.121116
    14  H    0.112801
    15  H    0.089467
    16  H    0.128442
    17  H    0.128135
    18  H    0.205049
    19  H    0.089960
 Sum of Mulliken charges =   0.00000

 Dipole moment (field-independent basis, Debye):
    X=              1.1930    Y=              1.2049    Z=              0.1711  Tot=              1.7041
 Quadrupole moment (field-independent basis, Debye-Ang):
   XX=            -52.1307   YY=            -57.7025   ZZ=            -52.1865
   XY=             -5.8490   XZ=              0.5852   YZ=              0.6133

  Exact polarizability: 101.701   5.026  74.493  -7.692  -0.696  62.571
 Approx polarizability: 141.465  15.524 101.144 -18.568  -6.148  97.427

                      1                      2                      3
                      A                      A                      A
 Frequencies --     42.0793                54.7595                95.9003
 Red. masses --      3.8619                 4.3260                 3.1049
 Frc consts  --      0.0040                 0.0076                 0.0168
 IR Inten    --      0.2587                 6.2308                 0.6344

                      4                      5                      6
                      A                      A                      A
 Frequencies --    110.6254               126.3637               213.5493
 Red. masses --      2.9164                 2.1653                 1.3932
 Frc consts  --      0.0210                 0.0204                 0.0374
 IR Inten    --      2.0941                 0.8563                 1.3391

                      7                      8                      9
                      A                      A                      A
 Frequencies --    227.6184               263.2110               299.0880
 Red. masses --      2.5079                 2.8348                 3.3359
 Frc consts  --      0.0766                 0.1157                 0.1758
 IR Inten    --      1.8154                 4.6029                10.0260

                     10                     11                     12
                      A                      A                      A
 Frequencies --    332.3476               418.5576               459.4181
 Red. masses --      3.4750                 3.3708                 3.1881
 Frc consts  --      0.2261                 0.3479                 0.3965
 IR Inten    --      1.0514                 6.8289                 7.2105

                     13                     14                     15
                      A                      A                      A
 Frequencies --    474.1790               614.1991               616.3351
 Red. masses --      6.0030                 1.5742                 2.2645
 Frc consts  --      0.7952                 0.3499                 0.5068
 IR Inten    --      2.2812                19.8190                25.8893

                     16                     17                     18
                      A                      A                      A
 Frequencies --    681.9736               780.9440               866.8800
 Red. masses --      1.2431                 1.3327                 2.2627
 Frc consts  --      0.3406                 0.4789                 1.0018
 IR Inten    --     33.8378                 2.6265                 0.2176

                     19                     20                     21
                      A                      A                      A
 Frequencies --    964.4255               979.1856               986.6986
 Red. masses --      1.8599                 3.2269                 1.6580
 Frc consts  --      1.0193                 1.8229                 0.9511
 IR Inten    --      8.4795                13.4756                 5.0117

                     22                     23                     24
                      A                      A                      A
 Frequencies --   1022.7332              1031.6303              1074.3331
 Red. masses --      3.0608                 1.8804                 2.9980
 Frc consts  --      1.8863                 1.1791                 2.0388
 IR Inten    --     12.8006                 3.3134                25.2821

                     25                     26                     27
                      A                      A                      A
 Frequencies --   1110.7112              1151.3433              1167.5236
 Red. masses --      4.0375                 2.8015                 2.2800
 Frc consts  --      2.9347                 2.1880                 1.8311
 IR Inten    --    155.0436                79.4893                 3.5138

                     28                     29                     30
                      A                      A                      A
 Frequencies --   1254.3329              1275.4143              1299.3391
 Red. masses --      1.0719                 1.3390                 1.1780
 Frc consts  --      0.9937                 1.2834                 1.1718
 IR Inten    --      2.3121                 3.1865                 7.0325

                     31                     32                     33
                      A                      A                      A
 Frequencies --   1339.3815              1374.7351              1396.8766
 Red. masses --      1.1907                 1.4276                 1.2444
 Frc consts  --      1.2585                 1.5896                 1.4306
 IR Inten    --     42.4112                 3.8096                35.3962

                     34                     35                     36
                      A                      A                      A
 Frequencies --   1405.3481              1426.7069              1478.9687
 Red. masses --      1.2378                 1.3705                 1.0790
 Frc consts  --      1.4404                 1.6437                 1.3906
 IR Inten    --      2.4770                17.5291                 0.9310

                     37                     38                     39
                      A                      A                      A
 Frequencies --   1493.6425              1500.2562              1508.9369
 Red. masses --      1.0430                 1.0732                 1.0543
 Frc consts  --      1.3709                 1.4232                 1.4144
 IR Inten    --      4.6025                 2.8212                 4.1555

                     40                     41                     42
                      A                      A                      A
 Frequencies --   1836.3525              2249.7511              2864.5496
 Red. masses --     10.7231                 5.8884                 1.0832
 Frc consts  --     21.3051                17.5596                 5.2369
 IR Inten    --    147.4252                 4.0408                86.3631

                     43                     44                     45
                      A                      A                      A
 Frequencies --   2961.7852              2983.0826              2986.2646
 Red. masses --      1.0555                 1.0943                 1.0903
 Frc consts  --      5.4555                 5.7377                 5.7288
 IR Inten    --     26.0667                42.7111                14.3520

                     46                     47                     48
                      A                      A                      A
 Frequencies --   3035.9951              3040.6569              3081.2961
 Red. masses --      1.0599                 1.0384                 1.0997
 Frc consts  --      5.7560                 5.6564                 6.1516
 IR Inten    --     11.7733                29.3105                 9.6265

                     49                     50                     51
                      A                      A                      A
 Frequencies --   3107.2297              3131.1862              3505.5054
 Red. masses --      1.1012                 1.1011                 1.1643
 Frc consts  --      6.2640                 6.3606                 8.4295
 IR Inten    --     32.2508                20.2953                62.9780

 - Thermochemistry -
 -------------------
 Temperature   298.150 Kelvin.  Pressure   1.00000 Atm.
 Atom     1 has atomic number  6 and mass  12.00000

 Molecular mass:   126.06808 amu.
 Principal axes and moments of inertia in atomic units:
                           1         2         3
     Eigenvalues --   828.108201914.962552600.79054
           X            0.99886  -0.04764   0.00117
           Y            0.04763   0.99884   0.00665
           Z           -0.00149  -0.00658   0.99998
 This molecule is an asymmetric top.
 Rotational symmetry number  1.
 Warning -- assumption of classical behavior for rotation
           may cause significant error
 Rotational temperatures (Kelvin)      0.10459     0.04523     0.03330
 Rotational constants (GHZ):           2.17935     0.94244     0.69392
 Zero-point vibrational energy     404961.1 (Joules/Mol)
                                   96.78802 (Kcal/Mol)
 Warning -- explicit consideration of  15 degrees of freedom as
           vibrations may cause significant error
 Vibrational temperatures:     60.54    78.79   137.98   159.17   181.81
          (Kelvin)            307.25   327.49   378.70   430.32   478.17
                              602.21   661.00   682.24   883.69   886.77
                              981.21  1123.60  1247.25  1387.59  1408.83
                             1419.64  1471.48  1484.28  1545.72  1598.06
                             1656.52  1679.80  1804.70  1835.03  1869.46
                             1927.07  1977.93  2009.79  2021.98  2052.71
                             2127.90  2149.02  2158.53  2171.02  2642.10
                             3236.89  4121.44  4261.34  4291.99  4296.56
                             4368.11  4374.82  4433.29  4470.60  4505.07
                             5043.63

 Zero-point correction=                           0.154242 (Hartree/Particle)
 Thermal correction to Energy=                    0.164959
 Thermal correction to Enthalpy=                  0.165903
 Thermal correction to Gibbs Free Energy=         0.117006
 Sum of electronic and zero-point Energies=           -422.987265
 Sum of electronic and thermal Energies=              -422.976548
 Sum of electronic and thermal Enthalpies=            -422.975604
 Sum of electronic and thermal Free Energies=         -423.024501

                     E (Thermal)             CV                S
                      KCal/Mol        Cal/Mol-Kelvin    Cal/Mol-Kelvin
 Total                  103.513             36.867            102.912
 Electronic               0.000              0.000              0.000
 Translational            0.889              2.981             40.409
 Rotational               0.889              2.981             29.801
 Vibrational            101.736             30.905             32.702
 Vibration     1          0.595              1.980              5.159
 Vibration     2          0.596              1.976              4.638
 Vibration     3          0.603              1.952              3.536
 Vibration     4          0.606              1.941              3.258
 Vibration     5          0.611              1.927              3.001
 Vibration     6          0.644              1.820              2.013
 Vibration     7          0.651              1.799              1.898
 Vibration     8          0.670              1.740              1.640
 Vibration     9          0.692              1.675              1.422
 Vibration    10          0.714              1.611              1.249
 Vibration    11          0.781              1.430              0.897
 Vibration    12          0.817              1.340              0.768
 Vibration    13          0.831              1.307              0.726
 Vibration    14          0.974              1.002              0.426
 Vibration    15          0.976              0.997              0.422

 Optimization completed.
    -- Stationary point found.
 Normal termination of Gaussian 09 at Tue Jan 28 08:56:28 2020.
