 Gaussian 09, Revision D.01,
 Gaussian 09:  ES64L-G09RevD.01 24-Apr-2013

 -----------------------------
 # b3lyp 6-31G(2df,p) opt Freq
 -----------------------------

 -----
 titel
 -----
 Symbolic Z-matrix:
 Charge =  0 Multiplicity = 1

 SCF Done:  E(RB3LYP) =  -423.161340174     A.U. after   14 cycles
 Optimization completed.
    -- Stationary point found.
 Normal termination of Gaussian 09 at Tue Jan 28 09:16:38 2020.

 ----------------------------------------------------------------------
 #N Geom=AllCheck Guess=TCheck SCRF=Check GenChk RB3LYP/6-31G(2df,p) Fr
 eq
 ----------------------------------------------------------------------

 Structure from the checkpoint file:  "/scratch/puck/g09_c8d6be4f-3db7-481e-877a-faab1bfd8518/Gau-82371.chk"
 -----
 titel
 -----
 Charge =  0 Multiplicity = 1

                         Standard orientation:
 ---------------------------------------------------------------------
 Center     Atomic      Atomic             Coordinates (Angstroms)
 Number     Number       Type             X           Y           Z
 ---------------------------------------------------------------------
      1          6           0        2.728688   -0.334797   -0.028614
      2          8           0        1.513064    0.086174   -0.624511
      3          6           0        0.364185   -0.262215    0.079648
      4          6           0        0.032779    0.457925    1.383958
      5          6           0       -0.748825    0.758690    0.120687
      6          8           0       -0.584044    1.998610   -0.489016
      7          6           0       -2.061101    0.018962   -0.120026
      8          6           0       -1.630737   -1.432173   -0.215359
      9          6           0       -0.305757   -1.581160   -0.134300
     10          1           0        2.799059   -1.430205    0.013394
     11          1           0        3.539061    0.047327   -0.653511
     12          1           0        2.836560    0.062021    0.989461
     13          1           0       -0.413681   -0.106042    2.196825
     14          1           0        0.711913    1.251971    1.678437
     15          1           0        0.248948    1.955469   -0.977621
     16          1           0       -2.788700    0.182654    0.684076
     17          1           0       -2.528085    0.370195   -1.048579
     18          1           0       -2.345199   -2.242154   -0.309519
     19          1           0        0.232566   -2.520893   -0.180704
 ---------------------------------------------------------------------

 SCF Done:  E(RB3LYP) =  -423.161340174     A.U. after    1 cycles

 The electronic state is 1-A.
 Alpha  occ. eigenvalues --  -19.15695 -19.13452 -10.23538 -10.23254 -10.23133
 Alpha  occ. eigenvalues --  -10.18480 -10.18448 -10.18266 -10.18081  -1.05296
 Alpha  occ. eigenvalues --   -1.01834  -0.87020  -0.76704  -0.71237  -0.68776
 Alpha  occ. eigenvalues --   -0.60381  -0.56057  -0.55189  -0.52911  -0.47465
 Alpha  occ. eigenvalues --   -0.46241  -0.45551  -0.43363  -0.42646  -0.41625
 Alpha  occ. eigenvalues --   -0.38414  -0.37361  -0.36059  -0.35213  -0.33429
 Alpha  occ. eigenvalues --   -0.29012  -0.27301  -0.24012  -0.23062
 Alpha virt. eigenvalues --    0.01426   0.08613   0.09845   0.12161   0.12609
 Alpha virt. eigenvalues --    0.13237   0.14442   0.15590   0.15852   0.16525
 Alpha virt. eigenvalues --    0.17501   0.18745   0.19378   0.20800   0.23283

 Mulliken charges:
               1
     1  C   -0.252974
     2  O   -0.302718
     3  C    0.316412
     4  C   -0.394283
     5  C    0.365869
     6  O   -0.483133
     7  C   -0.329852
     8  C   -0.078710
     9  C   -0.143931
    10  H    0.114583
    11  H    0.128548
    12  H    0.116077
    13  H    0.109743
    14  H    0.114799
    15  H    0.290365
    16  H    0.114103
    17  H    0.119943
    18  H    0.098230
    19  H    0.096928
 Sum of Mulliken charges =   0.00000

 Dipole moment (field-independent basis, Debye):
    X=              1.1635    Y=             -1.5320    Z=              0.6336  Tot=              2.0254
 Quadrupole moment (field-independent basis, Debye-Ang):
   XX=            -47.4483   YY=            -55.0266   ZZ=            -53.6862
   XY=              2.4722   XZ=              0.1743   YZ=             -0.2311

  Exact polarizability:  94.056   0.646  74.231   1.866   1.143  61.467
 Approx polarizability: 134.767  -3.074 107.551   2.461  -0.052  95.665

                      1                      2                      3
                      A                      A                      A
 Frequencies --     92.3345               152.5091               171.2888
 Red. masses --      2.6360                 2.1836                 1.4735
 Frc consts  --      0.0132                 0.0299                 0.0255
 IR Inten    --      1.0082                 1.0546                 2.5063

                      4                      5                      6
                      A                      A                      A
 Frequencies --    210.8163               270.3306               293.1438
 Red. masses --      2.9001                 1.6803                 2.3794
 Frc consts  --      0.0759                 0.0723                 0.1205
 IR Inten    --      4.0590                21.5717                30.7047

                      7                      8                      9
                      A                      A                      A
 Frequencies --    327.6916               400.0400               459.3448
 Red. masses --      2.5456                 2.1399                 2.7724
 Frc consts  --      0.1611                 0.2018                 0.3447
 IR Inten    --      8.8118                13.0590                 4.8230

                     10                     11                     12
                      A                      A                      A
 Frequencies --    475.1467               513.7622               600.8101
 Red. masses --      2.0468                 4.2470                 3.4402
 Frc consts  --      0.2723                 0.6605                 0.7317
 IR Inten    --      0.3868                 3.8269                10.0472

                     13                     14                     15
                      A                      A                      A
 Frequencies --    693.0403               729.7247               772.8063
 Red. masses --      3.4181                 1.7241                 3.2959
 Frc consts  --      0.9673                 0.5409                 1.1597
 IR Inten    --      2.4893                37.2680                 4.0396

                     16                     17                     18
                      A                      A                      A
 Frequencies --    822.8917               912.0808               927.1901
 Red. masses --      3.8112                 1.4948                 3.2343
 Frc consts  --      1.5205                 0.7326                 1.6382
 IR Inten    --     15.9215                 6.3617                 8.8469

                     19                     20                     21
                      A                      A                      A
 Frequencies --    936.2601               944.5678               961.1502
 Red. masses --      1.7885                 1.5699                 1.5850
 Frc consts  --      0.9237                 0.8253                 0.8627
 IR Inten    --      7.6292                 5.4035                 8.6423

                     22                     23                     24
                      A                      A                      A
 Frequencies --   1003.8915              1041.1466              1053.8345
 Red. masses --      2.1289                 1.3981                 4.0040
 Frc consts  --      1.2641                 0.8929                 2.6199
 IR Inten    --      3.3308                 2.0272                14.5595

                     25                     26                     27
                      A                      A                      A
 Frequencies --   1106.1230              1147.2903              1173.4821
 Red. masses --      2.0670                 1.3818                 1.4913
 Frc consts  --      1.4900                 1.0716                 1.2099
 IR Inten    --     71.2937                 7.7066                 5.3505

                     28                     29                     30
                      A                      A                      A
 Frequencies --   1181.6649              1214.8141              1216.8965
 Red. masses --      1.2847                 2.0944                 1.5175
 Frc consts  --      1.0569                 1.8211                 1.3240
 IR Inten    --      1.0281                64.6135                36.1192

                     31                     32                     33
                      A                      A                      A
 Frequencies --   1255.4628              1299.0826              1356.2721
 Red. masses --      2.4705                 2.1200                 1.8072
 Frc consts  --      2.2943                 2.1079                 1.9586
 IR Inten    --     87.7454                41.8781                51.5978

                     34                     35                     36
                      A                      A                      A
 Frequencies --   1375.5528              1410.0835              1457.2599
 Red. masses --      2.3026                 1.7988                 1.3142
 Frc consts  --      2.5670                 2.1073                 1.6443
 IR Inten    --     44.8631                15.5824                17.2155

                     37                     38                     39
                      A                      A                      A
 Frequencies --   1474.7743              1482.5045              1489.2383
 Red. masses --      1.1248                 1.2300                 1.0840
 Frc consts  --      1.4414                 1.5928                 1.4165
 IR Inten    --      5.6585                10.0577                 3.1679

                     40                     41                     42
                      A                      A                      A
 Frequencies --   1507.0491              1660.9920              2999.9232
 Red. masses --      1.0536                 6.3420                 1.0341
 Frc consts  --      1.4099                10.3088                 5.4831
 IR Inten    --      7.7039                 4.5492                53.6862

                     43                     44                     45
                      A                      A                      A
 Frequencies --   3029.8910              3056.2234              3062.7835
 Red. masses --      1.0592                 1.1040                 1.1026
 Frc consts  --      5.7289                 6.0757                 6.0940
 IR Inten    --     28.2739                38.1371                15.1444

                     46                     47                     48
                      A                      A                      A
 Frequencies --   3119.1145              3122.0674              3186.2325
 Red. masses --      1.0532                 1.0993                 1.0845
 Frc consts  --      6.0372                 6.3130                 6.4870
 IR Inten    --      8.5091                28.4749                 5.5660

                     49                     50                     51
                      A                      A                      A
 Frequencies --   3210.2656              3216.1739              3753.9329
 Red. masses --      1.1037                 1.1179                 1.0657
 Frc consts  --      6.7019                 6.8131                 8.8487
 IR Inten    --     20.8670                 6.5373                41.1469

 - Thermochemistry -
 -------------------
 Temperature   298.150 Kelvin.  Pressure   1.00000 Atm.
 Atom     1 has atomic number  6 and mass  12.00000

 Molecular mass:   126.06808 amu.
 Principal axes and moments of inertia in atomic units:
                           1         2         3
     Eigenvalues --   697.460141139.095431508.17636
           X            0.99993   0.00741   0.00895
           Y           -0.00748   0.99994   0.00779
           Z           -0.00889  -0.00786   0.99993
 This molecule is an asymmetric top.
 Rotational symmetry number  1.
 Warning -- assumption of classical behavior for rotation
           may cause significant error
 Rotational temperatures (Kelvin)      0.12418     0.07604     0.05743
 Rotational constants (GHZ):           2.58759     1.58436     1.19664
 Zero-point vibrational energy     414691.2 (Joules/Mol)
                                   99.11357 (Kcal/Mol)
 Warning -- explicit consideration of  12 degrees of freedom as
           vibrations may cause significant error
 Vibrational temperatures:    132.85   219.43   246.45   303.32   388.94
          (Kelvin)            421.77   471.47   575.57   660.89   683.63
                              739.19   864.43   997.13  1049.91  1111.89
                             1183.96  1312.28  1334.02  1347.07  1359.02
                             1382.88  1444.37  1497.98  1516.23  1591.46
                             1650.69  1688.38  1700.15  1747.84  1750.84
                             1806.33  1869.09  1951.37  1979.11  2028.79
                             2096.67  2121.87  2132.99  2142.68  2168.30
                             2389.79  4316.21  4359.33  4397.22  4406.66
                             4487.70  4491.95  4584.27  4618.85  4627.35
                             5401.07

 Zero-point correction=                           0.157948 (Hartree/Particle)
 Thermal correction to Energy=                    0.166675
 Thermal correction to Enthalpy=                  0.167620
 Thermal correction to Gibbs Free Energy=         0.124921
 Sum of electronic and zero-point Energies=           -423.003393
 Sum of electronic and thermal Energies=              -422.994665
 Sum of electronic and thermal Enthalpies=            -422.993721
 Sum of electronic and thermal Free Energies=         -423.036419

                     E (Thermal)             CV                S
                      KCal/Mol        Cal/Mol-Kelvin    Cal/Mol-Kelvin
 Total                  104.590             33.586             89.867
 Electronic               0.000              0.000              0.000
 Translational            0.889              2.981             40.409
 Rotational               0.889              2.981             28.573
 Vibrational            102.813             27.624             20.885
 Vibration     1          0.602              1.955              3.610
 Vibration     2          0.619              1.900              2.641
 Vibration     3          0.626              1.878              2.421
 Vibration     4          0.643              1.824              2.037
 Vibration     5          0.674              1.728              1.594
 Vibration     6          0.688              1.687              1.456
 Vibration     7          0.711              1.620              1.271
 Vibration     8          0.766              1.470              0.963
 Vibration     9          0.817              1.340              0.768
 Vibration    10          0.832              1.305              0.723
 Vibration    11          0.869              1.220              0.625
 Vibration    12          0.959              1.030              0.448

 Optimization completed.
    -- Stationary point found.
 Normal termination of Gaussian 09 at Tue Jan 28 10:09:06 2020.
