 Gaussian 09, Revision D.01,
 Gaussian 09:  ES64L-G09RevD.01 24-Apr-2013

 -----------------------------
 # b3lyp 6-31G(2df,p) opt Freq
 -----------------------------

 -----
 titel
 -----
 Symbolic Z-matrix:
 Charge =  0 Multiplicity = 1

 SCF Done:  E(RB3LYP) =  -423.102490717     A.U. after   13 cycles
 Optimization completed.
    -- Stationary point found.
 Normal termination of Gaussian 09 at Tue Jan 28 03:07:41 2020.

 ----------------------------------------------------------------------
 #N Geom=AllCheck Guess=TCheck SCRF=Check GenChk RB3LYP/6-31G(2df,p) Fr
 eq
 ----------------------------------------------------------------------

 Structure from the checkpoint file:  "/scratch/puck/g09_399b5ba4-b660-4e63-859c-90af1e0519c3/Gau-983.chk"
 -----
 titel
 -----
 Charge =  0 Multiplicity = 1

                         Standard orientation:
 ---------------------------------------------------------------------
 Center     Atomic      Atomic             Coordinates (Angstroms)
 Number     Number       Type             X           Y           Z
 ---------------------------------------------------------------------
      1          6           0       -2.353222   -0.983284    0.147190
      2          6           0       -1.142255   -0.377537   -0.538527
      3          8           0       -1.190142    1.095395   -0.506890
      4          6           0        0.072253    1.505924    0.129025
      5          6           0        0.136592    0.542856    1.310533
      6          6           0        0.237940   -0.469005    0.098972
      7          8           0        1.290536   -1.421473    0.122756
      8          6           0        2.214836   -0.317690   -0.193619
      9          6           0        1.043321    0.601229   -0.663033
     10          1           0       -2.389565   -0.737016    1.210832
     11          1           0       -3.270728   -0.612725   -0.319158
     12          1           0       -2.333915   -2.073390    0.042258
     13          1           0       -1.107180   -0.702713   -1.585250
     14          1           0        0.080092    2.593464    0.183832
     15          1           0        1.058198    0.582895    1.888916
     16          1           0       -0.732650    0.506082    1.965866
     17          1           0        2.787924   -0.009821    0.685548
     18          1           0        2.896325   -0.611413   -0.995132
     19          1           0        0.951559    0.658301   -1.747884
 ---------------------------------------------------------------------

 SCF Done:  E(RB3LYP) =  -423.102490717     A.U. after    1 cycles

 The electronic state is 1-A.
 Alpha  occ. eigenvalues --  -19.14661 -19.13709 -10.24725 -10.24714 -10.24631
 Alpha  occ. eigenvalues --  -10.23809 -10.18863 -10.18413 -10.17706  -1.05883
 Alpha  occ. eigenvalues --   -1.02391  -0.82265  -0.76442  -0.71293  -0.67426
 Alpha  occ. eigenvalues --   -0.63771  -0.56663  -0.53421  -0.51252  -0.50365
 Alpha  occ. eigenvalues --   -0.46634  -0.45346  -0.42670  -0.41207  -0.40156
 Alpha  occ. eigenvalues --   -0.38544  -0.36846  -0.36391  -0.34515  -0.33759
 Alpha  occ. eigenvalues --   -0.32349  -0.26573  -0.25442  -0.24555
 Alpha virt. eigenvalues --    0.05864   0.08777   0.09725   0.11204   0.11949
 Alpha virt. eigenvalues --    0.12827   0.14390   0.14864   0.15498   0.16379
 Alpha virt. eigenvalues --    0.18049   0.18391   0.19886   0.20825   0.21153

 Mulliken charges:
               1
     1  C   -0.418349
     2  C    0.075208
     3  O   -0.313777
     4  C    0.064151
     5  C   -0.301952
     6  C    0.404720
     7  O   -0.351242
     8  C   -0.158021
     9  C   -0.085857
    10  H    0.121481
    11  H    0.129672
    12  H    0.123270
    13  H    0.083459
    14  H    0.080692
    15  H    0.109783
    16  H    0.105415
    17  H    0.116786
    18  H    0.121323
    19  H    0.093237
 Sum of Mulliken charges =   0.00000

 Dipole moment (field-independent basis, Debye):
    X=              0.8403    Y=              0.4832    Z=              0.1836  Tot=              0.9866
 Quadrupole moment (field-independent basis, Debye-Ang):
   XX=            -51.0703   YY=            -56.6872   ZZ=            -51.8590
   XY=              4.7170   XZ=             -1.2543   YZ=              2.1458

  Exact polarizability:  86.553   1.740  68.929  -1.158   2.410  68.170
 Approx polarizability: 117.951  -1.670 109.427  -0.257   1.522 104.208

                      1                      2                      3
                      A                      A                      A
 Frequencies --    196.6574               215.8091               225.5473
 Red. masses --      1.0400                 3.0369                 2.9088
 Frc consts  --      0.0237                 0.0833                 0.0872
 IR Inten    --      0.1982                 3.3994                 2.2569

                      4                      5                      6
                      A                      A                      A
 Frequencies --    326.7147               366.4863               459.4675
 Red. masses --      2.6981                 4.0519                 2.8086
 Frc consts  --      0.1697                 0.3206                 0.3493
 IR Inten    --      0.5558                 5.9238                 3.0065

                      7                      8                      9
                      A                      A                      A
 Frequencies --    494.6865               507.1429               544.8910
 Red. masses --      3.0722                 2.7084                 4.6623
 Frc consts  --      0.4430                 0.4104                 0.8156
 IR Inten    --      3.7887                 2.5378                 2.4443

                     10                     11                     12
                      A                      A                      A
 Frequencies --    643.9322               755.6931               788.6787
 Red. masses --      2.6451                 3.1727                 3.4235
 Frc consts  --      0.6462                 1.0675                 1.2546
 IR Inten    --      3.9866                 6.4047                15.8742

                     13                     14                     15
                      A                      A                      A
 Frequencies --    796.0722               837.1683               878.3182
 Red. masses --      3.1949                 3.9079                 2.9473
 Frc consts  --      1.1929                 1.6137                 1.3396
 IR Inten    --      8.2612                14.8477                 8.6699

                     16                     17                     18
                      A                      A                      A
 Frequencies --    898.8901               920.1364               937.6654
 Red. masses --      4.0682                 3.4066                 2.4471
 Frc consts  --      1.9367                 1.6993                 1.2676
 IR Inten    --     33.9996                52.4397                23.9785

                     19                     20                     21
                      A                      A                      A
 Frequencies --    973.6270              1008.7696              1033.6763
 Red. masses --      1.6762                 2.2238                 1.3161
 Frc consts  --      0.9362                 1.3333                 0.8285
 IR Inten    --      8.2265                 8.3575                24.3802

                     22                     23                     24
                      A                      A                      A
 Frequencies --   1068.0642              1081.9831              1090.1688
 Red. masses --      2.1306                 1.8543                 1.6313
 Frc consts  --      1.4320                 1.2790                 1.1423
 IR Inten    --      9.2652                 2.0330                13.7719

                     25                     26                     27
                      A                      A                      A
 Frequencies --   1121.5910              1138.3582              1156.0481
 Red. masses --      1.9037                 2.1949                 1.3702
 Frc consts  --      1.4109                 1.6758                 1.0789
 IR Inten    --     10.0764                19.8490                 8.1388

                     28                     29                     30
                      A                      A                      A
 Frequencies --   1175.2976              1204.8871              1243.5188
 Red. masses --      2.1870                 1.7083                 1.5956
 Frc consts  --      1.7799                 1.4612                 1.4537
 IR Inten    --     17.0581                35.4519                 3.8448

                     31                     32                     33
                      A                      A                      A
 Frequencies --   1251.7792              1283.4446              1307.1663
 Red. masses --      1.5335                 1.6416                 1.6024
 Frc consts  --      1.4157                 1.5932                 1.6132
 IR Inten    --     28.7598                13.2762                 1.1811

                     34                     35                     36
                      A                      A                      A
 Frequencies --   1331.7703              1345.2995              1398.6098
 Red. masses --      1.5376                 1.5434                 1.3112
 Frc consts  --      1.6068                 1.6457                 1.5111
 IR Inten    --     16.3881                 4.5014                 4.0030

                     37                     38                     39
                      A                      A                      A
 Frequencies --   1414.5042              1483.7819              1489.1664
 Red. masses --      1.4071                 1.1503                 1.0624
 Frc consts  --      1.6588                 1.4921                 1.3881
 IR Inten    --     17.8232                 2.1785                 3.8705

                     40                     41                     42
                      A                      A                      A
 Frequencies --   1494.9831              1516.0879              3030.2626
 Red. masses --      1.0569                 1.1012                 1.0842
 Frc consts  --      1.3917                 1.4914                 5.8657
 IR Inten    --      6.3939                 4.6844                31.8268

                     43                     44                     45
                      A                      A                      A
 Frequencies --   3042.6724              3053.2604              3099.8371
 Red. masses --      1.0374                 1.0566                 1.0639
 Frc consts  --      5.6584                 5.8035                 6.0232
 IR Inten    --     19.4264                50.1844                13.5548

                     46                     47                     48
                      A                      A                      A
 Frequencies --   3103.5803              3110.3788              3118.2572
 Red. masses --      1.0890                 1.1002                 1.1016
 Frc consts  --      6.1803                 6.2712                 6.3111
 IR Inten    --      0.1807                13.6585                44.6927

                     49                     50                     51
                      A                      A                      A
 Frequencies --   3129.0338              3132.1546              3165.2994
 Red. masses --      1.1004                 1.0926                 1.1099
 Frc consts  --      6.3477                 6.3153                 6.5520
 IR Inten    --     33.2129                48.6056                18.0593

 - Thermochemistry -
 -------------------
 Temperature   298.150 Kelvin.  Pressure   1.00000 Atm.
 Atom     1 has atomic number  6 and mass  12.00000

 Molecular mass:   126.06808 amu.
 Principal axes and moments of inertia in atomic units:
                           1         2         3
     Eigenvalues --   600.045131063.540011300.62765
           X            0.99771   0.06685  -0.01005
           Y           -0.06648   0.99723   0.03348
           Z            0.01226  -0.03273   0.99939
 This molecule is an asymmetric top.
 Rotational symmetry number  1.
 Warning -- assumption of classical behavior for rotation
           may cause significant error
 Rotational temperatures (Kelvin)      0.14435     0.08144     0.06659
 Rotational constants (GHZ):           3.00768     1.69692     1.38759
 Zero-point vibrational energy     421033.3 (Joules/Mol)
                                  100.62938 (Kcal/Mol)
 Warning -- explicit consideration of   9 degrees of freedom as
           vibrations may cause significant error
 Vibrational temperatures:    282.95   310.50   324.51   470.07   527.29
          (Kelvin)            661.07   711.74   729.66   783.98   926.47
                             1087.27  1134.73  1145.37  1204.50  1263.70
                             1293.30  1323.87  1349.09  1400.83  1451.39
                             1487.23  1536.70  1556.73  1568.51  1613.72
                             1637.84  1663.29  1690.99  1733.56  1789.14
                             1801.03  1846.59  1880.72  1916.12  1935.58
                             2012.29  2035.15  2134.83  2142.58  2150.94
                             2181.31  4359.87  4377.72  4392.96  4459.97
                             4465.35  4475.14  4486.47  4501.98  4506.47
                             4554.15

 Zero-point correction=                           0.160363 (Hartree/Particle)
 Thermal correction to Energy=                    0.167509
 Thermal correction to Enthalpy=                  0.168453
 Thermal correction to Gibbs Free Energy=         0.129279
 Sum of electronic and zero-point Energies=           -422.942128
 Sum of electronic and thermal Energies=              -422.934982
 Sum of electronic and thermal Enthalpies=            -422.934038
 Sum of electronic and thermal Free Energies=         -422.973211

                     E (Thermal)             CV                S
                      KCal/Mol        Cal/Mol-Kelvin    Cal/Mol-Kelvin
 Total                  105.113             29.720             82.447
 Electronic               0.000              0.000              0.000
 Translational            0.889              2.981             40.409
 Rotational               0.889              2.981             28.209
 Vibrational            103.336             23.758             13.830
 Vibration     1          0.636              1.845              2.164
 Vibration     2          0.645              1.817              1.994
 Vibration     3          0.650              1.802              1.914
 Vibration     4          0.710              1.622              1.276
 Vibration     5          0.739              1.541              1.094
 Vibration     6          0.817              1.340              0.768
 Vibration     7          0.850              1.262              0.672
 Vibration     8          0.862              1.234              0.641
 Vibration     9          0.900              1.151              0.555

 Optimization completed.
    -- Stationary point found.
 Normal termination of Gaussian 09 at Tue Jan 28 03:52:40 2020.
