 Gaussian 09, Revision D.01,
 Gaussian 09:  ES64L-G09RevD.01 24-Apr-2013

 -----------------------------
 # b3lyp 6-31G(2df,p) opt Freq
 -----------------------------

 -----
 titel
 -----
 Symbolic Z-matrix:
 Charge =  0 Multiplicity = 1

 SCF Done:  E(RB3LYP) =  -423.128858605     A.U. after   14 cycles
 Optimization completed.
    -- Stationary point found.
 Normal termination of Gaussian 09 at Tue Jan 28 02:23:38 2020.

 ----------------------------------------------------------------------
 #N Geom=AllCheck Guess=TCheck SCRF=Check GenChk RB3LYP/6-31G(2df,p) Fr
 eq
 ----------------------------------------------------------------------

 Structure from the checkpoint file:  "/scratch/puck/g09_7614da36-9590-417a-a29a-073beecadaa4/Gau-194434.chk"
 -----
 titel
 -----
 Charge =  0 Multiplicity = 1

                         Standard orientation:
 ---------------------------------------------------------------------
 Center     Atomic      Atomic             Coordinates (Angstroms)
 Number     Number       Type             X           Y           Z
 ---------------------------------------------------------------------
      1          6           0        1.997823    1.377465   -0.234529
      2          6           0        0.737926    0.585110    0.010906
      3          6           0       -0.573195    1.305290    0.315311
      4          6           0       -1.552779    0.100124    0.453968
      5          8           0       -2.538241    0.038785   -0.568282
      6          6           0       -0.588265   -1.053542    0.252628
      7          6           0        0.790650   -0.717891    0.882471
      8          8           0        1.491833   -1.444228   -0.184499
      9          6           0        0.428706   -0.680694   -0.860572
     10          1           0        2.241534    2.009490    0.626926
     11          1           0        2.835599    0.699352   -0.416612
     12          1           0        1.886971    2.035448   -1.103732
     13          1           0       -0.506274    1.908416    1.227736
     14          1           0       -0.887049    1.962330   -0.502852
     15          1           0       -2.026558    0.069809    1.445798
     16          1           0       -3.144726    0.775486   -0.443697
     17          1           0       -0.953832   -2.077263    0.302921
     18          1           0        1.140830   -0.855980    1.907207
     19          1           0        0.339574   -0.778708   -1.942541
 ---------------------------------------------------------------------

 SCF Done:  E(RB3LYP) =  -423.128858605     A.U. after    1 cycles

 The electronic state is 1-A.
 Alpha  occ. eigenvalues --  -19.13846 -19.12692 -10.24193 -10.23935 -10.23504
 Alpha  occ. eigenvalues --  -10.20094 -10.19065 -10.18290 -10.17387  -1.05455
 Alpha  occ. eigenvalues --   -1.01985  -0.84430  -0.74424  -0.70336  -0.65614
 Alpha  occ. eigenvalues --   -0.64902  -0.57439  -0.51841  -0.51630  -0.49451
 Alpha  occ. eigenvalues --   -0.47088  -0.44312  -0.42711  -0.40477  -0.39038
 Alpha  occ. eigenvalues --   -0.37681  -0.36365  -0.35356  -0.33599  -0.31746
 Alpha  occ. eigenvalues --   -0.31047  -0.29369  -0.26773  -0.22942
 Alpha virt. eigenvalues --    0.06893   0.09206   0.10400   0.11954   0.12416
 Alpha virt. eigenvalues --    0.13553   0.14311   0.14938   0.15681   0.16019
 Alpha virt. eigenvalues --    0.17331   0.18454   0.19207   0.20269   0.21963

 Mulliken charges:
               1
     1  C   -0.504181
     2  C    0.351132
     3  C   -0.333615
     4  C    0.091381
     5  O   -0.440644
     6  C   -0.035899
     7  C   -0.001391
     8  O   -0.322673
     9  C    0.021988
    10  H    0.113121
    11  H    0.138394
    12  H    0.115414
    13  H    0.096072
    14  H    0.099507
    15  H    0.066080
    16  H    0.283290
    17  H    0.084572
    18  H    0.084764
    19  H    0.092689
 Sum of Mulliken charges =   0.00000

 Dipole moment (field-independent basis, Debye):
    X=             -1.3882    Y=              2.3332    Z=              1.1621  Tot=              2.9532
 Quadrupole moment (field-independent basis, Debye-Ang):
   XX=            -54.1563   YY=            -54.3405   ZZ=            -50.8466
   XY=             -0.5801   XZ=             -0.9947   YZ=             -1.0792

  Exact polarizability:  80.528   0.915  74.187   0.184  -0.386  68.779
 Approx polarizability: 110.260  -3.035 108.949   2.198   0.767 110.354

                      1                      2                      3
                      A                      A                      A
 Frequencies --    111.6868               229.5778               250.9839
 Red. masses --      3.5626                 2.1168                 1.2852
 Frc consts  --      0.0262                 0.0657                 0.0477
 IR Inten    --      0.7162                 0.7807                 0.5687

                      4                      5                      6
                      A                      A                      A
 Frequencies --    278.3851               299.5313               344.5431
 Red. masses --      1.7737                 1.3593                 2.4788
 Frc consts  --      0.0810                 0.0719                 0.1734
 IR Inten    --     37.3918                63.6763                 3.0185

                      7                      8                      9
                      A                      A                      A
 Frequencies --    394.9461               479.0543               526.2375
 Red. masses --      2.8521                 5.0739                 3.3809
 Frc consts  --      0.2621                 0.6861                 0.5516
 IR Inten    --     13.2488                 9.4445                 1.9894

                     10                     11                     12
                      A                      A                      A
 Frequencies --    658.3721               685.5702               713.4652
 Red. masses --      4.8958                 3.4855                 3.6487
 Frc consts  --      1.2503                 0.9652                 1.0943
 IR Inten    --      3.9462                 3.5025                 1.4214

                     13                     14                     15
                      A                      A                      A
 Frequencies --    762.5605               794.7179               871.8160
 Red. masses --      2.8877                 4.0075                 2.6113
 Frc consts  --      0.9894                 1.4912                 1.1694
 IR Inten    --      2.7897                 9.6001                 3.2043

                     16                     17                     18
                      A                      A                      A
 Frequencies --    890.4055               899.6932               922.7364
 Red. masses --      2.8788                 2.6168                 2.3390
 Frc consts  --      1.3447                 1.2480                 1.1734
 IR Inten    --      6.5212                34.1423                 4.0462

                     19                     20                     21
                      A                      A                      A
 Frequencies --    938.3385               978.4506              1020.8415
 Red. masses --      1.8227                 1.5930                 1.4943
 Frc consts  --      0.9456                 0.8985                 0.9175
 IR Inten    --      7.6868                12.6443                14.3423

                     22                     23                     24
                      A                      A                      A
 Frequencies --   1036.1436              1071.3593              1084.8123
 Red. masses --      1.8763                 2.2120                 2.2832
 Frc consts  --      1.1868                 1.4959                 1.5831
 IR Inten    --      2.8943                 9.5559                14.8233

                     25                     26                     27
                      A                      A                      A
 Frequencies --   1136.8542              1150.6035              1168.4791
 Red. masses --      1.7364                 1.5376                 1.4361
 Frc consts  --      1.3223                 1.1993                 1.1553
 IR Inten    --     31.3803                 2.2426                 1.9168

                     28                     29                     30
                      A                      A                      A
 Frequencies --   1188.2199              1217.8609              1231.2975
 Red. masses --      2.1017                 1.4882                 1.4084
 Frc consts  --      1.7483                 1.3005                 1.2580
 IR Inten    --      3.3757                 5.7144                 4.6362

                     31                     32                     33
                      A                      A                      A
 Frequencies --   1238.4223              1247.4792              1272.4816
 Red. masses --      1.6780                 2.3113                 1.5157
 Frc consts  --      1.5163                 2.1192                 1.4460
 IR Inten    --     58.0448                14.6463                 4.4938

                     34                     35                     36
                      A                      A                      A
 Frequencies --   1316.4322              1351.6791              1363.9911
 Red. masses --      1.8680                 1.6537                 2.0230
 Frc consts  --      1.9073                 1.7801                 2.2176
 IR Inten    --     19.3394                 6.3883                 8.9565

                     37                     38                     39
                      A                      A                      A
 Frequencies --   1405.9729              1430.7839              1484.3231
 Red. masses --      1.4030                 1.5470                 1.1098
 Frc consts  --      1.6340                 1.8659                 1.4406
 IR Inten    --      7.6554                 4.8913                 0.9500

                     40                     41                     42
                      A                      A                      A
 Frequencies --   1493.4741              1500.7076              2991.5957
 Red. masses --      1.0591                 1.0483                 1.0843
 Frc consts  --      1.3918                 1.3910                 5.7174
 IR Inten    --      3.4107                 5.4402                55.1183

                     43                     44                     45
                      A                      A                      A
 Frequencies --   3029.4760              3037.9864              3082.3718
 Red. masses --      1.0377                 1.0586                 1.1049
 Frc consts  --      5.6112                 5.7563                 6.1850
 IR Inten    --     23.3117                44.5346                12.0035

                     46                     47                     48
                      A                      A                      A
 Frequencies --   3087.6803              3098.7726              3119.0796
 Red. masses --      1.1005                 1.0906                 1.0917
 Frc consts  --      6.1815                 6.1699                 6.2576
 IR Inten    --     29.7027                59.9496                27.7518

                     49                     50                     51
                      A                      A                      A
 Frequencies --   3120.1622              3149.6800              3818.0837
 Red. masses --      1.0995                 1.0918                 1.0663
 Frc consts  --      6.3064                 6.3814                 9.1583
 IR Inten    --      9.7623                23.8536                18.9202

 - Thermochemistry -
 -------------------
 Temperature   298.150 Kelvin.  Pressure   1.00000 Atm.
 Atom     1 has atomic number  6 and mass  12.00000

 Molecular mass:   126.06808 amu.
 Principal axes and moments of inertia in atomic units:
                           1         2         3
     Eigenvalues --   608.686951131.123831436.75264
           X            0.99918   0.03927  -0.01024
           Y           -0.03938   0.99917  -0.01067
           Z            0.00981   0.01106   0.99989
 This molecule is an asymmetric top.
 Rotational symmetry number  1.
 Warning -- assumption of classical behavior for rotation
           may cause significant error
 Rotational temperatures (Kelvin)      0.14230     0.07657     0.06028
 Rotational constants (GHZ):           2.96497     1.59553     1.25613
 Zero-point vibrational energy     418562.5 (Joules/Mol)
                                  100.03883 (Kcal/Mol)
 Warning -- explicit consideration of   9 degrees of freedom as
           vibrations may cause significant error
 Vibrational temperatures:    160.69   330.31   361.11   400.53   430.96
          (Kelvin)            495.72   568.24   689.25   757.14   947.25
                              986.38  1026.52  1097.15  1143.42  1254.35
                             1281.09  1294.46  1327.61  1350.06  1407.77
                             1468.76  1490.78  1541.45  1560.80  1635.68
                             1655.46  1681.18  1709.58  1752.23  1771.56
                             1781.81  1794.84  1830.81  1894.05  1944.76
                             1962.48  2022.88  2058.58  2135.61  2148.77
                             2159.18  4304.23  4358.73  4370.98  4434.84
                             4442.48  4458.44  4487.65  4489.21  4531.68
                             5493.36

 Zero-point correction=                           0.159422 (Hartree/Particle)
 Thermal correction to Energy=                    0.167124
 Thermal correction to Enthalpy=                  0.168068
 Thermal correction to Gibbs Free Energy=         0.127631
 Sum of electronic and zero-point Energies=           -422.969437
 Sum of electronic and thermal Energies=              -422.961735
 Sum of electronic and thermal Enthalpies=            -422.960791
 Sum of electronic and thermal Free Energies=         -423.001228

                     E (Thermal)             CV                S
                      KCal/Mol        Cal/Mol-Kelvin    Cal/Mol-Kelvin
 Total                  104.872             31.156             85.107
 Electronic               0.000              0.000              0.000
 Translational            0.889              2.981             40.409
 Rotational               0.889              2.981             28.383
 Vibrational            103.094             25.195             16.316
 Vibration     1          0.607              1.940              3.239
 Vibration     2          0.652              1.796              1.882
 Vibration     3          0.663              1.761              1.724
 Vibration     4          0.679              1.713              1.544
 Vibration     5          0.692              1.675              1.420
 Vibration     6          0.723              1.586              1.191
 Vibration     7          0.762              1.481              0.981
 Vibration     8          0.835              1.297              0.713
 Vibration     9          0.881              1.192              0.596

 Optimization completed.
    -- Stationary point found.
 Normal termination of Gaussian 09 at Tue Jan 28 03:09:47 2020.
