 Gaussian 09, Revision D.01,
 Gaussian 09:  ES64L-G09RevD.01 24-Apr-2013

 -----------------------------
 # b3lyp 6-31G(2df,p) opt Freq
 -----------------------------

 -----
 titel
 -----
 Symbolic Z-matrix:
 Charge =  0 Multiplicity = 1

 SCF Done:  E(RB3LYP) =  -423.101272600     A.U. after   12 cycles
 Optimization completed.
    -- Stationary point found.
 Normal termination of Gaussian 09 at Mon Jan 27 22:00:40 2020.

 ----------------------------------------------------------------------
 #N Geom=AllCheck Guess=TCheck SCRF=Check GenChk RB3LYP/6-31G(2df,p) Fr
 eq
 ----------------------------------------------------------------------

 Structure from the checkpoint file:  "/scratch/puck/g09_06680b30-c539-4d9d-b526-3036a036b0b2/Gau-98569.chk"
 -----
 titel
 -----
 Charge =  0 Multiplicity = 1

                         Standard orientation:
 ---------------------------------------------------------------------
 Center     Atomic      Atomic             Coordinates (Angstroms)
 Number     Number       Type             X           Y           Z
 ---------------------------------------------------------------------
      1          6           0       -0.940175    1.893322   -0.667569
      2          6           0       -0.103495    0.793029   -0.088009
      3          6           0        1.456343    0.820914   -0.135710
      4          6           0        2.169210   -0.108533    0.816815
      5          6           0        1.503017   -0.672557   -0.409879
      6          6           0       -0.035087   -0.722020   -0.323783
      7          8           0       -0.734708   -1.581189   -1.139568
      8          6           0       -0.615120   -0.196023    0.959059
      9          8           0       -2.008862   -0.407139    0.941979
     10          1           0       -0.854431    2.819620   -0.083520
     11          1           0       -0.633776    2.124258   -1.694175
     12          1           0       -1.995671    1.607269   -0.700551
     13          1           0        1.983477    1.604530   -0.666145
     14          1           0        3.252803   -0.060875    0.747861
     15          1           0        1.818914   -0.312398    1.821813
     16          1           0        2.040067   -1.195307   -1.190241
     17          1           0       -1.642482   -1.588225   -0.805126
     18          1           0       -0.180066   -0.314718    1.951135
     19          1           0       -2.448431    0.373685    1.294119
 ---------------------------------------------------------------------

 SCF Done:  E(RB3LYP) =  -423.101272600     A.U. after    1 cycles

 The electronic state is 1-A.
 Alpha  occ. eigenvalues --  -19.15845 -19.13912 -10.23547 -10.23185 -10.19186
 Alpha  occ. eigenvalues --  -10.18965 -10.18882 -10.18871 -10.18116  -1.04931
 Alpha  occ. eigenvalues --   -1.01774  -0.90653  -0.79195  -0.71876  -0.64210
 Alpha  occ. eigenvalues --   -0.61373  -0.56436  -0.53885  -0.52615  -0.49784
 Alpha  occ. eigenvalues --   -0.47422  -0.45700  -0.41967  -0.40823  -0.39963
 Alpha  occ. eigenvalues --   -0.38307  -0.37129  -0.36672  -0.33573  -0.31027
 Alpha  occ. eigenvalues --   -0.30078  -0.28462  -0.25770  -0.19080
 Alpha virt. eigenvalues --    0.05569   0.09022   0.10254   0.10983   0.13030
 Alpha virt. eigenvalues --    0.13320   0.13421   0.15712   0.16613   0.18057
 Alpha virt. eigenvalues --    0.18757   0.20038   0.21251   0.21664   0.23641

 Mulliken charges:
               1
     1  C   -0.512816
     2  C    0.212019
     3  C   -0.108513
     4  C   -0.311552
     5  C   -0.106981
     6  C    0.384556
     7  O   -0.470721
     8  C   -0.084645
     9  O   -0.446233
    10  H    0.114869
    11  H    0.127195
    12  H    0.115135
    13  H    0.090490
    14  H    0.112003
    15  H    0.116126
    16  H    0.099400
    17  H    0.294445
    18  H    0.079655
    19  H    0.295568
 Sum of Mulliken charges =   0.00000

 Dipole moment (field-independent basis, Debye):
    X=             -0.3010    Y=              1.8797    Z=              1.1310  Tot=              2.2143
 Quadrupole moment (field-independent basis, Debye-Ang):
   XX=            -47.6449   YY=            -55.3174   ZZ=            -53.3178
   XY=             -1.9761   XZ=             -1.8189   YZ=             -0.6015

  Exact polarizability:  83.829  -1.896  73.295   0.461  -0.719  67.645
 Approx polarizability: 113.211   0.319 113.677  -0.650   2.832 104.587

                      1                      2                      3
                      A                      A                      A
 Frequencies --    149.0329               180.8082               208.7835
 Red. masses --      3.6852                 1.0520                 2.9530
 Frc consts  --      0.0482                 0.0203                 0.0758
 IR Inten    --      0.4048                 3.8207                 2.7890

                      4                      5                      6
                      A                      A                      A
 Frequencies --    260.1775               269.0023               282.7926
 Red. masses --      3.0965                 3.5636                 1.4878
 Frc consts  --      0.1235                 0.1519                 0.0701
 IR Inten    --      5.5687                 1.2379                93.7102

                      7                      8                      9
                      A                      A                      A
 Frequencies --    295.4025               373.2887               406.2727
 Red. masses --      2.1661                 3.1228                 1.2520
 Frc consts  --      0.1114                 0.2564                 0.1218
 IR Inten    --      9.9227                24.2565                61.8791

                     10                     11                     12
                      A                      A                      A
 Frequencies --    459.2914               524.6379               551.6616
 Red. masses --      2.5756                 2.7767                 4.7168
 Frc consts  --      0.3201                 0.4503                 0.8458
 IR Inten    --     17.6840                 6.2538                 8.3308

                     13                     14                     15
                      A                      A                      A
 Frequencies --    639.4656               697.3888               742.2104
 Red. masses --      3.7059                 3.3970                 3.6624
 Frc consts  --      0.8929                 0.9734                 1.1887
 IR Inten    --      2.9935                 3.3937                 7.8956

                     16                     17                     18
                      A                      A                      A
 Frequencies --    776.6926               842.3192               871.3905
 Red. masses --      1.3112                 2.5723                 2.5570
 Frc consts  --      0.4660                 1.0753                 1.1440
 IR Inten    --      9.6106                 6.2025                14.8343

                     19                     20                     21
                      A                      A                      A
 Frequencies --    896.5102               948.7446               969.5749
 Red. masses --      3.5974                 2.7373                 1.6486
 Frc consts  --      1.7035                 1.4517                 0.9131
 IR Inten    --      9.8410                 3.8112                 1.8684

                     22                     23                     24
                      A                      A                      A
 Frequencies --   1005.4044              1037.2055              1062.8350
 Red. masses --      1.3400                 1.2817                 1.3119
 Frc consts  --      0.7980                 0.8124                 0.8731
 IR Inten    --     19.3724                 8.0711                 1.8072

                     25                     26                     27
                      A                      A                      A
 Frequencies --   1084.6371              1087.0094              1096.7245
 Red. masses --      1.5307                 1.7039                 1.6639
 Frc consts  --      1.0610                 1.1862                 1.1791
 IR Inten    --     40.2370                 7.6342                30.3772

                     28                     29                     30
                      A                      A                      A
 Frequencies --   1137.1467              1177.9565              1207.0986
 Red. masses --      2.8112                 1.8259                 2.2368
 Frc consts  --      2.1418                 1.4928                 1.9202
 IR Inten    --     47.2200                 1.7236                 4.4082

                     31                     32                     33
                      A                      A                      A
 Frequencies --   1228.1504              1265.9381              1296.3647
 Red. masses --      2.1266                 1.2827                 2.6068
 Frc consts  --      1.8899                 1.2112                 2.5811
 IR Inten    --     17.4987                70.3877                 7.3745

                     34                     35                     36
                      A                      A                      A
 Frequencies --   1317.1638              1366.0960              1408.4240
 Red. masses --      1.8735                 1.6791                 1.4316
 Frc consts  --      1.9151                 1.8462                 1.6732
 IR Inten    --     95.0693                 6.7088                 0.9232

                     37                     38                     39
                      A                      A                      A
 Frequencies --   1420.0717              1462.1356              1491.0226
 Red. masses --      1.8165                 3.1828                 1.0493
 Frc consts  --      2.1583                 4.0089                 1.3744
 IR Inten    --     22.6703                43.9386                 2.6581

                     40                     41                     42
                      A                      A                      A
 Frequencies --   1499.2828              1501.7075              3010.4393
 Red. masses --      1.1838                 1.1287                 1.0412
 Frc consts  --      1.5678                 1.4996                 5.5596
 IR Inten    --      1.0162                17.1873                51.7174

                     43                     44                     45
                      A                      A                      A
 Frequencies --   3068.6851              3084.2366              3101.4656
 Red. masses --      1.0954                 1.0855                 1.0981
 Frc consts  --      6.0776                 6.0839                 6.2235
 IR Inten    --     20.3149                30.8907                17.9152

                     46                     47                     48
                      A                      A                      A
 Frequencies --   3128.6503              3180.8418              3200.0087
 Red. masses --      1.0569                 1.0914                 1.1025
 Frc consts  --      6.0954                 6.5059                 6.6520
 IR Inten    --     31.4288                13.3340                 3.1864

                     49                     50                     51
                      A                      A                      A
 Frequencies --   3207.8189              3752.8174              3809.7822
 Red. masses --      1.1047                 1.0645                 1.0666
 Frc consts  --      6.6973                 8.8332                 9.1209
 IR Inten    --     21.0150                50.6521                28.6944

 - Thermochemistry -
 -------------------
 Temperature   298.150 Kelvin.  Pressure   1.00000 Atm.
 Atom     1 has atomic number  6 and mass  12.00000

 Molecular mass:   126.06808 amu.
 Principal axes and moments of inertia in atomic units:
                           1         2         3
     Eigenvalues --   762.281391113.658311319.06788
           X            0.99858  -0.05041   0.01725
           Y            0.05151   0.99614  -0.07105
           Z           -0.01360   0.07184   0.99732
 This molecule is an asymmetric top.
 Rotational symmetry number  1.
 Warning -- assumption of classical behavior for rotation
           may cause significant error
 Rotational temperatures (Kelvin)      0.11362     0.07777     0.06566
 Rotational constants (GHZ):           2.36755     1.62055     1.36819
 Zero-point vibrational energy     412966.3 (Joules/Mol)
                                   98.70131 (Kcal/Mol)
 Warning -- explicit consideration of  12 degrees of freedom as
           vibrations may cause significant error
 Vibrational temperatures:    214.42   260.14   300.39   374.34   387.03
          (Kelvin)            406.88   425.02   537.08   584.54   660.82
                              754.84   793.72   920.05  1003.39  1067.87
                             1117.49  1211.91  1253.74  1289.88  1365.03
                             1395.00  1446.55  1492.31  1529.18  1560.55
                             1563.96  1577.94  1636.10  1694.81  1736.74
                             1767.03  1821.40  1865.18  1895.10  1965.51
                             2026.41  2043.16  2103.68  2145.25  2157.13
                             2160.62  4331.35  4415.15  4437.52  4462.31
                             4501.42  4576.52  4604.09  4615.33  5399.46
                             5481.42

 Zero-point correction=                           0.157291 (Hartree/Particle)
 Thermal correction to Energy=                    0.166025
 Thermal correction to Enthalpy=                  0.166970
 Thermal correction to Gibbs Free Energy=         0.124782
 Sum of electronic and zero-point Energies=           -422.943982
 Sum of electronic and thermal Energies=              -422.935247
 Sum of electronic and thermal Enthalpies=            -422.934303
 Sum of electronic and thermal Free Energies=         -422.976491

                     E (Thermal)             CV                S
                      KCal/Mol        Cal/Mol-Kelvin    Cal/Mol-Kelvin
 Total                  104.183             34.615             88.792
 Electronic               0.000              0.000              0.000
 Translational            0.889              2.981             40.409
 Rotational               0.889              2.981             28.506
 Vibrational            102.405             28.653             19.877
 Vibration     1          0.618              1.904              2.685
 Vibration     2          0.630              1.866              2.320
 Vibration     3          0.642              1.827              2.054
 Vibration     4          0.668              1.746              1.661
 Vibration     5          0.673              1.730              1.603
 Vibration     6          0.682              1.706              1.517
 Vibration     7          0.690              1.682              1.443
 Vibration     8          0.745              1.527              1.066
 Vibration     9          0.771              1.457              0.940
 Vibration    10          0.817              1.340              0.768
 Vibration    11          0.880              1.195              0.599
 Vibration    12          0.907              1.136              0.541

 Optimization completed.
    -- Stationary point found.
 Normal termination of Gaussian 09 at Mon Jan 27 22:48:06 2020.
