 Gaussian 09, Revision D.01,
 Gaussian 09:  ES64L-G09RevD.01 24-Apr-2013

 -----------------------------
 # b3lyp 6-31G(2df,p) opt Freq
 -----------------------------

 -----
 titel
 -----
 Symbolic Z-matrix:
 Charge =  0 Multiplicity = 1

 SCF Done:  E(RB3LYP) =  -423.160183097     A.U. after   13 cycles
 Optimization completed.
    -- Stationary point found.
 Normal termination of Gaussian 09 at Mon Jan 27 23:06:31 2020.

 ----------------------------------------------------------------------
 #N Geom=AllCheck Guess=TCheck SCRF=Check GenChk RB3LYP/6-31G(2df,p) Fr
 eq
 ----------------------------------------------------------------------

 Structure from the checkpoint file:  "/scratch/puck/g09_739b3836-42b3-482d-acfa-3cac338f8992/Gau-49653.chk"
 -----
 titel
 -----
 Charge =  0 Multiplicity = 1

                         Standard orientation:
 ---------------------------------------------------------------------
 Center     Atomic      Atomic             Coordinates (Angstroms)
 Number     Number       Type             X           Y           Z
 ---------------------------------------------------------------------
      1          8           0        0.163051    2.167189    0.289810
      2          6           0       -0.065776    0.962311   -0.435130
      3          6           0       -1.510404    0.510657   -0.275564
      4          8           0       -1.773309   -0.780756   -0.832273
      5          6           0       -1.558637   -0.684857    0.580961
      6          6           0       -0.153334   -1.069773    0.999695
      7          6           0        0.742991   -0.244737    0.064612
      8          6           0        1.717594   -0.922629   -0.864160
      9          6           0        2.224718   -0.107137    0.296237
     10          1           0        0.072551    1.970889    1.228740
     11          1           0        0.174852    1.209807   -1.473265
     12          1           0       -2.312093    1.241457   -0.344534
     13          1           0       -2.417162   -0.932034    1.200437
     14          1           0       -0.004537   -0.803698    2.055256
     15          1           0        0.027396   -2.145667    0.908604
     16          1           0        1.798805   -2.003289   -0.808086
     17          1           0        1.831348   -0.519708   -1.865144
     18          1           0        2.656238   -0.632627    1.142258
     19          1           0        2.671757    0.860396    0.095526
 ---------------------------------------------------------------------

 SCF Done:  E(RB3LYP) =  -423.160183097     A.U. after    1 cycles

 The electronic state is 1-A.
 Alpha  occ. eigenvalues --  -19.15062 -19.14009 -10.23782 -10.23467 -10.23150
 Alpha  occ. eigenvalues --  -10.19755 -10.19283 -10.18579 -10.18538  -1.07429
 Alpha  occ. eigenvalues --   -1.02038  -0.86569  -0.76396  -0.71634  -0.63718
 Alpha  occ. eigenvalues --   -0.60257  -0.58680  -0.56484  -0.52035  -0.49023
 Alpha  occ. eigenvalues --   -0.46650  -0.45872  -0.43940  -0.42833  -0.40761
 Alpha  occ. eigenvalues --   -0.38327  -0.36736  -0.36051  -0.32534  -0.30787
 Alpha  occ. eigenvalues --   -0.29705  -0.28918  -0.27557  -0.25108
 Alpha virt. eigenvalues --    0.06420   0.09331   0.09568   0.10606   0.11594
 Alpha virt. eigenvalues --    0.12579   0.13760   0.15226   0.16498   0.17014
 Alpha virt. eigenvalues --    0.17392   0.18742   0.19752   0.22572   0.22913

 Mulliken charges:
               1
     1  O   -0.424190
     2  C    0.005293
     3  C    0.009583
     4  O   -0.254177
     5  C    0.048453
     6  C   -0.341582
     7  C    0.341907
     8  C   -0.302491
     9  C   -0.326062
    10  H    0.280118
    11  H    0.095476
    12  H    0.098434
    13  H    0.096156
    14  H    0.098101
    15  H    0.114743
    16  H    0.111537
    17  H    0.115843
    18  H    0.108362
    19  H    0.124497
 Sum of Mulliken charges =   0.00000

 Dipole moment (field-independent basis, Debye):
    X=              0.3025    Y=             -0.4279    Z=              2.0365  Tot=              2.1028
 Quadrupole moment (field-independent basis, Debye-Ang):
   XX=            -53.9017   YY=            -56.4729   ZZ=            -50.4044
   XY=             -2.6214   XZ=             -2.8586   YZ=             -1.2225

  Exact polarizability:  79.193  -1.382  73.100  -1.567  -2.582  69.333
 Approx polarizability: 103.886   0.552 110.840   0.427  -0.949 110.173

                      1                      2                      3
                      A                      A                      A
 Frequencies --     68.5635               192.6168               223.3761
 Red. masses --      3.5386                 3.9073                 1.8527
 Frc consts  --      0.0098                 0.0854                 0.0545
 IR Inten    --      1.5750                 2.5203                 9.5199

                      4                      5                      6
                      A                      A                      A
 Frequencies --    267.2847               291.8213               336.5427
 Red. masses --      1.3918                 2.9055                 2.2925
 Frc consts  --      0.0586                 0.1458                 0.1530
 IR Inten    --     67.9945                 3.0645                23.2656

                      7                      8                      9
                      A                      A                      A
 Frequencies --    368.3676               447.3705               520.6030
 Red. masses --      2.7636                 6.0075                 4.1993
 Frc consts  --      0.2209                 0.7084                 0.6706
 IR Inten    --      9.4198                 1.3021                 0.3656

                     10                     11                     12
                      A                      A                      A
 Frequencies --    566.7210               715.2188               777.2815
 Red. masses --      3.5155                 5.2240                 1.0792
 Frc consts  --      0.6652                 1.5745                 0.3841
 IR Inten    --      8.9492                 2.2274                 1.4476

                     13                     14                     15
                      A                      A                      A
 Frequencies --    791.8849               826.0654               862.9088
 Red. masses --      3.4603                 3.2892                 2.2221
 Frc consts  --      1.2785                 1.3224                 0.9749
 IR Inten    --     15.5961                 5.1446                27.7118

                     16                     17                     18
                      A                      A                      A
 Frequencies --    875.6055               921.0586               941.7698
 Red. masses --      2.6526                 1.9569                 1.6161
 Frc consts  --      1.1982                 0.9781                 0.8445
 IR Inten    --      7.6150                 9.2686                 1.6474

                     19                     20                     21
                      A                      A                      A
 Frequencies --    968.3543               986.7136               996.8851
 Red. masses --      2.2724                 2.5534                 1.6955
 Frc consts  --      1.2554                 1.4647                 0.9928
 IR Inten    --      6.1169                 6.6201                12.7798

                     22                     23                     24
                      A                      A                      A
 Frequencies --   1035.0851              1052.1476              1062.2699
 Red. masses --      1.3819                 1.4702                 2.7668
 Frc consts  --      0.8723                 0.9589                 1.8395
 IR Inten    --      7.3046                11.5005                24.8057

                     25                     26                     27
                      A                      A                      A
 Frequencies --   1082.4013              1087.1494              1124.9055
 Red. masses --      1.7780                 2.1716                 1.4058
 Frc consts  --      1.2273                 1.5122                 1.0481
 IR Inten    --     30.8879                38.6315                 1.4972

                     28                     29                     30
                      A                      A                      A
 Frequencies --   1188.8490              1195.0618              1242.9084
 Red. masses --      1.2883                 1.3550                 1.3837
 Frc consts  --      1.0728                 1.1401                 1.2594
 IR Inten    --      2.0785                 3.7915                10.1940

                     31                     32                     33
                      A                      A                      A
 Frequencies --   1244.2076              1266.2585              1276.2340
 Red. masses --      1.8647                 1.6910                 1.5980
 Frc consts  --      1.7008                 1.5975                 1.5336
 IR Inten    --      3.4616                 5.3693                 8.5841

                     34                     35                     36
                      A                      A                      A
 Frequencies --   1296.1733              1337.4962              1376.4954
 Red. masses --      1.4462                 1.6171                 2.7636
 Frc consts  --      1.4316                 1.7044                 3.0852
 IR Inten    --      2.8557                 0.1019                 1.4623

                     37                     38                     39
                      A                      A                      A
 Frequencies --   1418.0708              1437.3992              1469.0643
 Red. masses --      1.3342                 2.6325                 1.0892
 Frc consts  --      1.5807                 3.2045                 1.3849
 IR Inten    --     53.7515                15.0092                 2.3230

                     40                     41                     42
                      A                      A                      A
 Frequencies --   1484.8536              1504.1466              3015.8046
 Red. masses --      1.1010                 1.3778                 1.0663
 Frc consts  --      1.4303                 1.8366                 5.7140
 IR Inten    --      2.2465                 0.5220                31.1677

                     43                     44                     45
                      A                      A                      A
 Frequencies --   3071.5251              3074.3564              3125.6605
 Red. masses --      1.0868                 1.0952                 1.0510
 Frc consts  --      6.0409                 6.0989                 6.0499
 IR Inten    --     21.2867                17.9923                18.4682

                     46                     47                     48
                      A                      A                      A
 Frequencies --   3129.8458              3143.1099              3157.1364
 Red. masses --      1.0580                 1.0872                 1.0955
 Frc consts  --      6.1062                 6.3284                 6.4338
 IR Inten    --     11.4273                21.3102                34.5653

                     49                     50                     51
                      A                      A                      A
 Frequencies --   3204.9149              3219.8089              3804.9407
 Red. masses --      1.1178                 1.1155                 1.0660
 Frc consts  --      6.7648                 6.8135                 9.0930
 IR Inten    --      0.9402                13.8565                13.0282

 - Thermochemistry -
 -------------------
 Temperature   298.150 Kelvin.  Pressure   1.00000 Atm.
 Atom     1 has atomic number  8 and mass  15.99491

 Molecular mass:   126.06808 amu.
 Principal axes and moments of inertia in atomic units:
                           1         2         3
     Eigenvalues --   733.353821066.942491390.38882
           X            0.99871  -0.04688  -0.01963
           Y            0.04633   0.99855  -0.02732
           Z            0.02088   0.02638   0.99943
 This molecule is an asymmetric top.
 Rotational symmetry number  1.
 Warning -- assumption of classical behavior for rotation
           may cause significant error
 Rotational temperatures (Kelvin)      0.11811     0.08118     0.06229
 Rotational constants (GHZ):           2.46094     1.69151     1.29801
 Zero-point vibrational energy     419143.3 (Joules/Mol)
                                  100.17766 (Kcal/Mol)
 Warning -- explicit consideration of  10 degrees of freedom as
           vibrations may cause significant error
 Vibrational temperatures:     98.65   277.13   321.39   384.56   419.87
          (Kelvin)            484.21   530.00   643.67   749.03   815.38
                             1029.04  1118.33  1139.34  1188.52  1241.53
                             1259.80  1325.20  1354.99  1393.24  1419.66
                             1434.29  1489.25  1513.80  1528.37  1557.33
                             1564.16  1618.49  1710.49  1719.43  1788.27
                             1790.14  1821.86  1836.21  1864.90  1924.36
                             1980.47  2040.29  2068.09  2113.65  2136.37
                             2164.13  4339.06  4419.23  4423.31  4497.12
                             4503.14  4522.23  4542.41  4611.15  4632.58
                             5474.45

 Zero-point correction=                           0.159643 (Hartree/Particle)
 Thermal correction to Energy=                    0.167627
 Thermal correction to Enthalpy=                  0.168571
 Thermal correction to Gibbs Free Energy=         0.127195
 Sum of electronic and zero-point Energies=           -423.000540
 Sum of electronic and thermal Energies=              -422.992556
 Sum of electronic and thermal Enthalpies=            -422.991612
 Sum of electronic and thermal Free Energies=         -423.032988

                     E (Thermal)             CV                S
                      KCal/Mol        Cal/Mol-Kelvin    Cal/Mol-Kelvin
 Total                  105.187             31.526             87.083
 Electronic               0.000              0.000              0.000
 Translational            0.889              2.981             40.409
 Rotational               0.889              2.981             28.477
 Vibrational            103.410             25.564             18.197
 Vibration     1          0.598              1.969              4.194
 Vibration     2          0.635              1.850              2.203
 Vibration     3          0.649              1.805              1.932
 Vibration     4          0.672              1.733              1.614
 Vibration     5          0.687              1.689              1.463
 Vibration     6          0.717              1.603              1.228
 Vibration     7          0.741              1.537              1.087
 Vibration     8          0.807              1.367              0.804
 Vibration     9          0.876              1.204              0.609
 Vibration    10          0.923              1.103              0.511

 Optimization completed.
    -- Stationary point found.
 Normal termination of Gaussian 09 at Mon Jan 27 23:57:45 2020.
