 Gaussian 09, Revision D.01,
 Gaussian 09:  ES64L-G09RevD.01 24-Apr-2013

 -----------------------------
 # b3lyp 6-31G(2df,p) opt Freq
 -----------------------------

 -----
 titel
 -----
 Symbolic Z-matrix:
 Charge =  0 Multiplicity = 1

 SCF Done:  E(RB3LYP) =  -423.126063280     A.U. after   14 cycles
 Optimization completed.
    -- Stationary point found.
 Normal termination of Gaussian 09 at Mon Jan 27 14:11:17 2020.

 ----------------------------------------------------------------------
 #N Geom=AllCheck Guess=TCheck SCRF=Check GenChk RB3LYP/6-31G(2df,p) Fr
 eq
 ----------------------------------------------------------------------

 Structure from the checkpoint file:  "/scratch/puck/g09_8b0af2d3-2ab1-4e31-81c4-621bb3260121/Gau-64251.chk"
 -----
 titel
 -----
 Charge =  0 Multiplicity = 1

                         Standard orientation:
 ---------------------------------------------------------------------
 Center     Atomic      Atomic             Coordinates (Angstroms)
 Number     Number       Type             X           Y           Z
 ---------------------------------------------------------------------
      1          6           0       -2.502145   -0.975140   -0.421636
      2          6           0       -1.798262    0.302249   -0.042081
      3          8           0       -0.970011    0.937619   -1.029679
      4          6           0       -0.351702    0.484040    0.180949
      5          6           0        0.130058    1.570060    1.116885
      6          6           0        0.611045   -0.695481   -0.005388
      7          8           0        0.776311   -1.406001    1.222541
      8          6           0        1.895737   -0.261407   -0.558205
      9          6           0        2.968660    0.096688   -0.965550
     10          1           0       -3.371031   -0.746643   -1.047717
     11          1           0       -1.861040   -1.658434   -0.981146
     12          1           0       -2.860357   -1.489785    0.476079
     13          1           0       -2.438510    1.007833    0.493181
     14          1           0       -0.608849    2.371827    1.181151
     15          1           0        0.291758    1.166388    2.121474
     16          1           0        1.072093    1.996353    0.758743
     17          1           0        0.157058   -1.401156   -0.706327
     18          1           0        1.537267   -1.031753    1.677977
     19          1           0        3.910864    0.406362   -1.346157
 ---------------------------------------------------------------------

 SCF Done:  E(RB3LYP) =  -423.126063280     A.U. after    1 cycles

 The electronic state is 1-A.
 Alpha  occ. eigenvalues --  -19.14929 -19.14589 -10.26143 -10.24256 -10.23688
 Alpha  occ. eigenvalues --  -10.19021 -10.18603 -10.18413 -10.18069  -1.06847
 Alpha  occ. eigenvalues --   -1.03069  -0.78510  -0.74674  -0.74288  -0.70007
 Alpha  occ. eigenvalues --   -0.61831  -0.57288  -0.55484  -0.51078  -0.49184
 Alpha  occ. eigenvalues --   -0.48437  -0.45061  -0.42100  -0.41809  -0.39851
 Alpha  occ. eigenvalues --   -0.39117  -0.37885  -0.36477  -0.35436  -0.30099
 Alpha  occ. eigenvalues --   -0.29226  -0.27984  -0.27633  -0.25591
 Alpha virt. eigenvalues --    0.02369   0.04250   0.08795   0.10482   0.11148
 Alpha virt. eigenvalues --    0.11960   0.12146   0.13033   0.14400   0.16049
 Alpha virt. eigenvalues --    0.17301   0.17917   0.19190   0.21161   0.22230

 Mulliken charges:
               1
     1  C   -0.426688
     2  C    0.023393
     3  O   -0.299523
     4  C    0.393571
     5  C   -0.483380
     6  C   -0.114862
     7  O   -0.421529
     8  C    0.294323
     9  C   -0.445948
    10  H    0.129152
    11  H    0.130255
    12  H    0.131283
    13  H    0.085681
    14  H    0.129061
    15  H    0.122112
    16  H    0.136915
    17  H    0.120117
    18  H    0.291717
    19  H    0.204350
 Sum of Mulliken charges =   0.00000

 Dipole moment (field-independent basis, Debye):
    X=              0.4399    Y=              0.2118    Z=              1.2218  Tot=              1.3158
 Quadrupole moment (field-independent basis, Debye-Ang):
   XX=            -44.1052   YY=            -56.1059   ZZ=            -54.0712
   XY=              2.4610   XZ=             -0.9109   YZ=              3.4413

  Exact polarizability: 100.961   7.510  66.378  -5.082   0.819  65.792
 Approx polarizability: 141.268  14.270  96.164 -11.426  -6.541 102.900

                      1                      2                      3
                      A                      A                      A
 Frequencies --     42.0539               117.9914               143.4781
 Red. masses --      4.1774                 2.2012                 1.3051
 Frc consts  --      0.0044                 0.0181                 0.0158
 IR Inten    --      1.8370                 5.4306                15.5870

                      4                      5                      6
                      A                      A                      A
 Frequencies --    159.3096               173.1838               198.1181
 Red. masses --      1.3848                 2.1258                 1.4990
 Frc consts  --      0.0207                 0.0376                 0.0347
 IR Inten    --     21.1554                 1.3854                48.1385

                      7                      8                      9
                      A                      A                      A
 Frequencies --    226.7345               252.5703               269.0710
 Red. masses --      2.7315                 1.8748                 3.9732
 Frc consts  --      0.0827                 0.0705                 0.1695
 IR Inten    --      5.4506                 9.3020                 7.7037

                     10                     11                     12
                      A                      A                      A
 Frequencies --    347.9983               410.8272               472.6347
 Red. masses --      3.3101                 5.4620                 3.2739
 Frc consts  --      0.2362                 0.5432                 0.4309
 IR Inten    --      0.3321                 2.2056                 5.1701

                     13                     14                     15
                      A                      A                      A
 Frequencies --    494.1223               551.5363               601.2090
 Red. masses --      4.1478                 4.0839                 5.3814
 Frc consts  --      0.5967                 0.7319                 1.1460
 IR Inten    --      9.2412                 1.3107                13.1062

                     16                     17                     18
                      A                      A                      A
 Frequencies --    634.4478               676.6096               753.5527
 Red. masses --      1.2489                 1.2499                 3.7996
 Frc consts  --      0.2962                 0.3371                 1.2712
 IR Inten    --     42.2117                33.7920                12.6364

                     19                     20                     21
                      A                      A                      A
 Frequencies --    782.9116               882.0820               931.0064
 Red. masses --      2.9565                 3.2356                 2.2936
 Frc consts  --      1.0677                 1.4833                 1.1713
 IR Inten    --      7.0103                 7.2085                41.7311

                     22                     23                     24
                      A                      A                      A
 Frequencies --    980.6894              1007.1400              1057.9342
 Red. masses --      2.1603                 1.3916                 4.0116
 Frc consts  --      1.2242                 0.8317                 2.6454
 IR Inten    --     16.7258                 8.4013                88.6487

                     25                     26                     27
                      A                      A                      A
 Frequencies --   1066.1889              1115.1449              1131.0762
 Red. masses --      2.0034                 2.0542                 2.3323
 Frc consts  --      1.3418                 1.5051                 1.7580
 IR Inten    --     32.1491                 4.9096                10.3006

                     28                     29                     30
                      A                      A                      A
 Frequencies --   1167.3829              1250.7625              1262.4332
 Red. masses --      1.8625                 1.2976                 2.2227
 Frc consts  --      1.4954                 1.1960                 2.0871
 IR Inten    --     13.6061                12.8751                 3.6456

                     31                     32                     33
                      A                      A                      A
 Frequencies --   1297.6176              1370.8559              1396.6504
 Red. masses --      1.4085                 1.3767                 1.2512
 Frc consts  --      1.3974                 1.5243                 1.4379
 IR Inten    --      2.7748                 8.2204                57.4258

                     34                     35                     36
                      A                      A                      A
 Frequencies --   1407.1439              1411.5108              1463.4290
 Red. masses --      1.2927                 1.2419                 1.4003
 Frc consts  --      1.5081                 1.4579                 1.7669
 IR Inten    --     20.9555                 0.4176                 8.9925

                     37                     38                     39
                      A                      A                      A
 Frequencies --   1481.4159              1489.5546              1497.3294
 Red. masses --      1.0576                 1.0958                 1.0491
 Frc consts  --      1.3675                 1.4325                 1.3858
 IR Inten    --      1.6731                 9.5694                 5.9630

                     40                     41                     42
                      A                      A                      A
 Frequencies --   1518.5241              2232.3065              3041.6938
 Red. masses --      1.7341                 5.9082                 1.0379
 Frc consts  --      2.3559                17.3467                 5.6578
 IR Inten    --      7.3709                 1.6962                18.8665

                     43                     44                     45
                      A                      A                      A
 Frequencies --   3042.8589              3075.4750              3077.3921
 Red. masses --      1.0357                 1.0859                 1.0827
 Frc consts  --      5.6500                 6.0516                 6.0412
 IR Inten    --     10.4599                27.1678                13.1704

                     46                     47                     48
                      A                      A                      A
 Frequencies --   3102.8152              3111.1408              3129.0169
 Red. masses --      1.1007                 1.1007                 1.1013
 Frc consts  --      6.2435                 6.2770                 6.3529
 IR Inten    --     14.9253                13.2935                13.6214

                     49                     50                     51
                      A                      A                      A
 Frequencies --   3136.3070              3501.1383              3825.2383
 Red. masses --      1.0987                 1.1625                 1.0666
 Frc consts  --      6.3677                 8.3960                 9.1954
 IR Inten    --     30.6941                66.8977                30.2366

 - Thermochemistry -
 -------------------
 Temperature   298.150 Kelvin.  Pressure   1.00000 Atm.
 Atom     1 has atomic number  6 and mass  12.00000

 Molecular mass:   126.06808 amu.
 Principal axes and moments of inertia in atomic units:
                           1         2         3
     Eigenvalues --   733.429761528.863901650.40477
           X            0.99934   0.03489   0.00971
           Y           -0.03619   0.97228   0.23101
           Z           -0.00138  -0.23121   0.97290
 This molecule is an asymmetric top.
 Rotational symmetry number  1.
 Warning -- assumption of classical behavior for rotation
           may cause significant error
 Rotational temperatures (Kelvin)      0.11809     0.05665     0.05248
 Rotational constants (GHZ):           2.46069     1.18045     1.09351
 Zero-point vibrational energy     405352.3 (Joules/Mol)
                                   96.88153 (Kcal/Mol)
 Warning -- explicit consideration of  15 degrees of freedom as
           vibrations may cause significant error
 Vibrational temperatures:     60.51   169.76   206.43   229.21   249.17
          (Kelvin)            285.05   326.22   363.39   387.13   500.69
                              591.09   680.02   710.93   793.54   865.00
                              912.83   973.49  1084.19  1126.43  1269.12
                             1339.51  1410.99  1449.05  1522.13  1534.01
                             1604.44  1627.36  1679.60  1799.57  1816.36
                             1866.98  1972.35  2009.47  2024.56  2030.85
                             2105.55  2131.42  2143.13  2154.32  2184.81
                             3211.79  4376.31  4377.99  4424.92  4427.68
                             4464.25  4476.23  4501.95  4512.44  5037.35
                             5503.66

 Zero-point correction=                           0.154391 (Hartree/Particle)
 Thermal correction to Energy=                    0.165011
 Thermal correction to Enthalpy=                  0.165955
 Thermal correction to Gibbs Free Energy=         0.118688
 Sum of electronic and zero-point Energies=           -422.971673
 Sum of electronic and thermal Energies=              -422.961052
 Sum of electronic and thermal Enthalpies=            -422.960108
 Sum of electronic and thermal Free Energies=         -423.007375

                     E (Thermal)             CV                S
                      KCal/Mol        Cal/Mol-Kelvin    Cal/Mol-Kelvin
 Total                  103.546             38.138             99.482
 Electronic               0.000              0.000              0.000
 Translational            0.889              2.981             40.409
 Rotational               0.889              2.981             29.005
 Vibrational            101.769             32.176             30.068
 Vibration     1          0.595              1.980              5.160
 Vibration     2          0.608              1.934              3.133
 Vibration     3          0.616              1.910              2.757
 Vibration     4          0.621              1.892              2.558
 Vibration     5          0.627              1.875              2.401
 Vibration     6          0.637              1.843              2.151
 Vibration     7          0.650              1.800              1.905
 Vibration     8          0.664              1.758              1.713
 Vibration     9          0.673              1.730              1.602
 Vibration    10          0.726              1.579              1.175
 Vibration    11          0.775              1.447              0.924
 Vibration    12          0.829              1.311              0.730
 Vibration    13          0.850              1.263              0.673
 Vibration    14          0.907              1.136              0.541
 Vibration    15          0.959              1.029              0.448

 Optimization completed.
    -- Stationary point found.
 Normal termination of Gaussian 09 at Mon Jan 27 15:02:26 2020.
