 Gaussian 09, Revision D.01,
 Gaussian 09:  ES64L-G09RevD.01 24-Apr-2013

 -----------------------------
 # b3lyp 6-31G(2df,p) opt Freq
 -----------------------------

 -----
 titel
 -----
 Symbolic Z-matrix:
 Charge =  0 Multiplicity = 1

 SCF Done:  E(RB3LYP) =  -423.229583457     A.U. after   14 cycles
 Optimization completed.
    -- Stationary point found.
 Normal termination of Gaussian 09 at Mon Jan 27 18:37:45 2020.

 ----------------------------------------------------------------------
 #N Geom=AllCheck Guess=TCheck SCRF=Check GenChk RB3LYP/6-31G(2df,p) Fr
 eq
 ----------------------------------------------------------------------

 Structure from the checkpoint file:  "/scratch/puck/g09_63a152d3-c35e-4367-84bf-80269a3a28fb/Gau-76443.chk"
 -----
 titel
 -----
 Charge =  0 Multiplicity = 1

                         Standard orientation:
 ---------------------------------------------------------------------
 Center     Atomic      Atomic             Coordinates (Angstroms)
 Number     Number       Type             X           Y           Z
 ---------------------------------------------------------------------
      1          6           0       -2.220253   -0.516878   -0.824612
      2          6           0       -0.956704   -0.243845   -0.024275
      3          6           0       -1.094322    0.879671    1.057770
      4          6           0       -0.219317    1.820263    0.182783
      5          6           0        0.166649    0.596098   -0.692071
      6          6           0        1.454273   -0.069729   -0.227872
      7          8           0        2.578598    0.307924   -0.387877
      8          8           0        1.167379   -1.209122    0.466851
      9          6           0       -0.236037   -1.514491    0.441144
     10          1           0       -2.677579    0.415074   -1.172208
     11          1           0       -2.010401   -1.136562   -1.703400
     12          1           0       -2.965573   -1.040411   -0.214273
     13          1           0       -2.113982    1.213737    1.262501
     14          1           0       -0.620271    0.615146    2.007010
     15          1           0       -0.810785    2.547056   -0.378157
     16          1           0        0.605569    2.343634    0.669812
     17          1           0        0.181840    0.730105   -1.775733
     18          1           0       -0.393443   -2.351489   -0.250633
     19          1           0       -0.528924   -1.833233    1.446088
 ---------------------------------------------------------------------

 SCF Done:  E(RB3LYP) =  -423.229583457     A.U. after    1 cycles

 The electronic state is 1-A.
 Alpha  occ. eigenvalues --  -19.17734 -19.11795 -10.29846 -10.24505 -10.21162
 Alpha  occ. eigenvalues --  -10.20260 -10.19757 -10.19438 -10.19349  -1.09436
 Alpha  occ. eigenvalues --   -1.01605  -0.86965  -0.76087  -0.70786  -0.69736
 Alpha  occ. eigenvalues --   -0.63999  -0.55737  -0.55657  -0.51212  -0.48778
 Alpha  occ. eigenvalues --   -0.46574  -0.45288  -0.43869  -0.42625  -0.41307
 Alpha  occ. eigenvalues --   -0.41182  -0.38562  -0.35552  -0.34632  -0.34045
 Alpha  occ. eigenvalues --   -0.31836  -0.31142  -0.28929  -0.25846
 Alpha virt. eigenvalues --    0.01148   0.07042   0.09325   0.10175   0.10803
 Alpha virt. eigenvalues --    0.11880   0.13683   0.14437   0.15129   0.16365
 Alpha virt. eigenvalues --    0.16689   0.18258   0.18703   0.20696   0.21432

 Mulliken charges:
               1
     1  C   -0.482092
     2  C    0.324109
     3  C   -0.278369
     4  C   -0.221871
     5  C   -0.217455
     6  C    0.435812
     7  O   -0.344949
     8  O   -0.225981
     9  C   -0.140344
    10  H    0.123487
    11  H    0.121412
    12  H    0.122863
    13  H    0.104639
    14  H    0.113503
    15  H    0.111355
    16  H    0.124372
    17  H    0.099727
    18  H    0.109853
    19  H    0.119927
 Sum of Mulliken charges =   0.00000

 Dipole moment (field-independent basis, Debye):
    X=             -4.4637    Y=             -0.0867    Z=             -0.0472  Tot=              4.4648
 Quadrupole moment (field-independent basis, Debye-Ang):
   XX=            -63.2665   YY=            -51.5934   ZZ=            -51.4775
   XY=              0.4299   XZ=              0.5864   YZ=              0.5236

  Exact polarizability:  81.642   4.123  75.702  -1.741  -1.141  65.439
 Approx polarizability: 117.557   7.716 108.937  -4.826  -4.497  99.434

                      1                      2                      3
                      A                      A                      A
 Frequencies --     86.1952               155.2392               215.3802
 Red. masses --      3.3045                 4.0924                 2.3910
 Frc consts  --      0.0145                 0.0581                 0.0654
 IR Inten    --      2.3185                 0.5801                 1.7668

                      4                      5                      6
                      A                      A                      A
 Frequencies --    239.1984               277.7814               324.1597
 Red. masses --      1.0963                 2.9300                 2.1057
 Frc consts  --      0.0370                 0.1332                 0.1304
 IR Inten    --      0.1141                 1.9688                 0.4508

                      7                      8                      9
                      A                      A                      A
 Frequencies --    364.2706               498.5234               550.6875
 Red. masses --      2.1907                 4.6952                 3.9898
 Frc consts  --      0.1713                 0.6875                 0.7129
 IR Inten    --      0.8952                 3.4142                 3.3004

                     10                     11                     12
                      A                      A                      A
 Frequencies --    614.4131               692.7601               729.4029
 Red. masses --      3.8888                 7.3797                 2.2143
 Frc consts  --      0.8649                 2.0867                 0.6941
 IR Inten    --      1.5113                 5.1799                 1.7083

                     13                     14                     15
                      A                      A                      A
 Frequencies --    746.0303               813.0201               869.8862
 Red. masses --      2.2463                 2.3445                 2.4378
 Frc consts  --      0.7366                 0.9131                 1.0869
 IR Inten    --      1.3536                 2.1623                 0.3840

                     16                     17                     18
                      A                      A                      A
 Frequencies --    899.5221               947.5954               955.4989
 Red. masses --      2.1266                 2.0433                 2.0837
 Frc consts  --      1.0138                 1.0810                 1.1208
 IR Inten    --      1.4300                 2.1527                 2.0196

                     19                     20                     21
                      A                      A                      A
 Frequencies --    964.2150               992.7400              1017.1025
 Red. masses --      2.0131                 1.5770                 1.8551
 Frc consts  --      1.1027                 0.9157                 1.1307
 IR Inten    --      9.4441                 1.0611                 4.6950

                     22                     23                     24
                      A                      A                      A
 Frequencies --   1064.8210              1081.4241              1153.0153
 Red. masses --      8.6294                 1.8026                 1.8619
 Frc consts  --      5.7648                 1.2421                 1.4584
 IR Inten    --     98.5019                52.9201                36.5507

                     25                     26                     27
                      A                      A                      A
 Frequencies --   1165.8876              1182.8112              1211.2365
 Red. masses --      2.0402                 2.0352                 1.4249
 Frc consts  --      1.6339                 1.6776                 1.2317
 IR Inten    --     65.3458                11.4937                 2.6417

                     28                     29                     30
                      A                      A                      A
 Frequencies --   1233.0009              1246.3486              1262.7438
 Red. masses --      1.7087                 1.5224                 1.3778
 Frc consts  --      1.5305                 1.3933                 1.2944
 IR Inten    --      6.5667                 0.7400                 0.4511

                     31                     32                     33
                      A                      A                      A
 Frequencies --   1280.3153              1288.9339              1320.1838
 Red. masses --      1.6336                 1.8266                 2.1184
 Frc consts  --      1.5778                 1.7880                 2.1753
 IR Inten    --      1.0840                 1.0840                30.0937

                     34                     35                     36
                      A                      A                      A
 Frequencies --   1402.4472              1418.3413              1479.8782
 Red. masses --      1.5564                 1.2413                 1.0817
 Frc consts  --      1.8036                 1.4712                 1.3958
 IR Inten    --      9.4033                 5.3210                 2.8432

                     37                     38                     39
                      A                      A                      A
 Frequencies --   1494.7279              1496.5342              1498.3186
 Red. masses --      1.0680                 1.0523                 1.0966
 Frc consts  --      1.4059                 1.3885                 1.4504
 IR Inten    --      2.0932                 3.2843                 4.0671

                     40                     41                     42
                      A                      A                      A
 Frequencies --   1517.7427              1875.7253              3022.3758
 Red. masses --      1.0853                12.8090                 1.0476
 Frc consts  --      1.4730                26.5524                 5.6384
 IR Inten    --      3.0739               361.2593                12.3054

                     43                     44                     45
                      A                      A                      A
 Frequencies --   3027.3386              3059.4218              3072.1368
 Red. masses --      1.0503                 1.0587                 1.0602
 Frc consts  --      5.6712                 5.8386                 5.8955
 IR Inten    --     61.0128                26.3635                26.0415

                     46                     47                     48
                      A                      A                      A
 Frequencies --   3083.4227              3089.6336              3093.0462
 Red. masses --      1.1029                 1.1001                 1.0868
 Frc consts  --      6.1782                 6.1875                 6.1260
 IR Inten    --     16.7300                19.2940                19.4856

                     49                     50                     51
                      A                      A                      A
 Frequencies --   3099.7070              3109.3187              3129.5908
 Red. masses --      1.1015                 1.1077                 1.1081
 Frc consts  --      6.2357                 6.3094                 6.3942
 IR Inten    --     20.7207                12.5661                26.1758

 - Thermochemistry -
 -------------------
 Temperature   298.150 Kelvin.  Pressure   1.00000 Atm.
 Atom     1 has atomic number  6 and mass  12.00000

 Molecular mass:   126.06808 amu.
 Principal axes and moments of inertia in atomic units:
                           1         2         3
     Eigenvalues --   671.956661134.695181431.81842
           X            0.99972   0.01910   0.01431
           Y           -0.01939   0.99960   0.02050
           Z           -0.01391  -0.02077   0.99969
 This molecule is an asymmetric top.
 Rotational symmetry number  1.
 Warning -- assumption of classical behavior for rotation
           may cause significant error
 Rotational temperatures (Kelvin)      0.12890     0.07633     0.06049
 Rotational constants (GHZ):           2.68580     1.59051     1.26045
 Zero-point vibrational energy     421169.6 (Joules/Mol)
                                  100.66194 (Kcal/Mol)
 Warning -- explicit consideration of  10 degrees of freedom as
           vibrations may cause significant error
 Vibrational temperatures:    124.02   223.35   309.88   344.15   399.66
          (Kelvin)            466.39   524.10   717.26   792.32   884.00
                              996.73  1049.45  1073.37  1169.75  1251.57
                             1294.21  1363.38  1374.75  1387.29  1428.33
                             1463.38  1532.04  1555.93  1658.93  1677.45
                             1701.80  1742.70  1774.01  1793.22  1816.80
                             1842.09  1854.49  1899.45  2017.81  2040.67
                             2129.21  2150.58  2153.18  2155.74  2183.69
                             2698.75  4348.52  4355.66  4401.82  4420.11
                             4436.35  4445.29  4450.20  4459.78  4473.61
                             4502.78

 Zero-point correction=                           0.160415 (Hartree/Particle)
 Thermal correction to Energy=                    0.168384
 Thermal correction to Enthalpy=                  0.169328
 Thermal correction to Gibbs Free Energy=         0.127955
 Sum of electronic and zero-point Energies=           -423.069168
 Sum of electronic and thermal Energies=              -423.061200
 Sum of electronic and thermal Enthalpies=            -423.060255
 Sum of electronic and thermal Free Energies=         -423.101629

                     E (Thermal)             CV                S
                      KCal/Mol        Cal/Mol-Kelvin    Cal/Mol-Kelvin
 Total                  105.663             30.827             87.078
 Electronic               0.000              0.000              0.000
 Translational            0.889              2.981             40.409
 Rotational               0.889              2.981             28.481
 Vibrational            103.885             24.865             18.188
 Vibration     1          0.601              1.959              3.745
 Vibration     2          0.620              1.897              2.607
 Vibration     3          0.645              1.818              1.998
 Vibration     4          0.657              1.781              1.809
 Vibration     5          0.679              1.715              1.547
 Vibration     6          0.709              1.627              1.289
 Vibration     7          0.738              1.546              1.104
 Vibration     8          0.854              1.253              0.662
 Vibration     9          0.906              1.138              0.543
 Vibration    10          0.974              1.001              0.426

 Optimization completed.
    -- Stationary point found.
 Normal termination of Gaussian 09 at Mon Jan 27 19:34:28 2020.
