 Gaussian 09, Revision D.01,
 Gaussian 09:  ES64L-G09RevD.01 24-Apr-2013

 -----------------------------
 # b3lyp 6-31G(2df,p) opt Freq
 -----------------------------

 -----
 titel
 -----
 Symbolic Z-matrix:
 Charge =  0 Multiplicity = 1

 SCF Done:  E(RB3LYP) =  -423.157350377     A.U. after   14 cycles
 Optimization completed.
    -- Stationary point found.
 Normal termination of Gaussian 09 at Mon Jan 27 13:22:18 2020.

 ----------------------------------------------------------------------
 #N Geom=AllCheck Guess=TCheck SCRF=Check GenChk RB3LYP/6-31G(2df,p) Fr
 eq
 ----------------------------------------------------------------------

 Structure from the checkpoint file:  "/scratch/puck/g09_f88e9685-d1de-4dc6-bf20-6ca158314204/Gau-28400.chk"
 -----
 titel
 -----
 Charge =  0 Multiplicity = 1

                         Standard orientation:
 ---------------------------------------------------------------------
 Center     Atomic      Atomic             Coordinates (Angstroms)
 Number     Number       Type             X           Y           Z
 ---------------------------------------------------------------------
      1          8           0       -3.437902   -1.073775    0.027436
      2          6           0       -2.607989   -0.299352   -0.378610
      3          6           0       -1.486978    0.241048    0.419550
      4          6           0       -0.999003    1.653056    0.121268
      5          6           0       -0.154801    0.492903   -0.286981
      6          6           0        1.128437    0.162014    0.422417
      7          6           0        2.451469    0.667947   -0.205560
      8          8           0        2.988074   -0.667230   -0.263557
      9          6           0        1.746240   -1.238980    0.193345
     10          1           0       -2.631987    0.073990   -1.431718
     11          1           0       -1.454984   -0.100279    1.448648
     12          1           0       -1.520380    2.210689   -0.649849
     13          1           0       -0.694079    2.245705    0.976644
     14          1           0       -0.151154    0.262697   -1.351031
     15          1           0        1.046819    0.415817    1.482830
     16          1           0        2.341030    1.112804   -1.204318
     17          1           0        3.064354    1.333562    0.413282
     18          1           0        1.252148   -1.831485   -0.588949
     19          1           0        1.882616   -1.867282    1.080850
 ---------------------------------------------------------------------

 SCF Done:  E(RB3LYP) =  -423.157350377     A.U. after    1 cycles

 The electronic state is 1-A.
 Alpha  occ. eigenvalues --  -19.13608 -19.13490 -10.27199 -10.23702 -10.23600
 Alpha  occ. eigenvalues --  -10.22086 -10.21397 -10.21206 -10.20992  -1.04316
 Alpha  occ. eigenvalues --   -1.04222  -0.89074  -0.76277  -0.69743  -0.67144
 Alpha  occ. eigenvalues --   -0.61946  -0.58671  -0.56365  -0.51728  -0.50426
 Alpha  occ. eigenvalues --   -0.48437  -0.45235  -0.44200  -0.43081  -0.40984
 Alpha  occ. eigenvalues --   -0.40660  -0.39879  -0.36824  -0.36080  -0.33373
 Alpha  occ. eigenvalues --   -0.30284  -0.29299  -0.25282  -0.25204
 Alpha virt. eigenvalues --   -0.02104   0.07060   0.07827   0.08381   0.09922
 Alpha virt. eigenvalues --    0.11200   0.13612   0.14040   0.14425   0.15805
 Alpha virt. eigenvalues --    0.16943   0.17475   0.18610   0.19095   0.20928

 Mulliken charges:
               1
     1  O   -0.265962
     2  C    0.164556
     3  C   -0.109113
     4  C   -0.308840
     5  C   -0.019603
     6  C   -0.042890
     7  C   -0.086136
     8  O   -0.268802
     9  C   -0.085436
    10  H    0.062753
    11  H    0.107946
    12  H    0.127567
    13  H    0.129494
    14  H    0.098493
    15  H    0.082485
    16  H    0.098641
    17  H    0.105391
    18  H    0.101792
    19  H    0.107665
 Sum of Mulliken charges =   0.00000

 Dipole moment (field-independent basis, Debye):
    X=              0.9825    Y=              2.5526    Z=              0.1767  Tot=              2.7409
 Quadrupole moment (field-independent basis, Debye-Ang):
   XX=            -72.5675   YY=            -53.0817   ZZ=            -50.5543
   XY=             -3.1793   XZ=              3.4418   YZ=             -0.2699

  Exact polarizability:  91.787   7.554  76.249   1.198  -2.698  66.200
 Approx polarizability: 121.767  15.922 114.510  -3.101  -5.555 102.069

                      1                      2                      3
                      A                      A                      A
 Frequencies --     50.3258                62.6707                97.2746
 Red. masses --      5.2609                 3.5277                 3.4553
 Frc consts  --      0.0079                 0.0082                 0.0193
 IR Inten    --      4.4905                 4.4682                 1.6194

                      4                      5                      6
                      A                      A                      A
 Frequencies --    151.3221               210.2617               305.9975
 Red. masses --      3.6209                 2.1472                 2.7551
 Frc consts  --      0.0489                 0.0559                 0.1520
 IR Inten    --      1.6848                 1.6045                 5.7570

                      7                      8                      9
                      A                      A                      A
 Frequencies --    318.7756               370.4486               437.2821
 Red. masses --      4.1622                 2.2517                 2.7925
 Frc consts  --      0.2492                 0.1821                 0.3146
 IR Inten    --      1.4094                 0.5666                 2.7215

                     10                     11                     12
                      A                      A                      A
 Frequencies --    528.4537               726.1691               835.8296
 Red. masses --      4.4749                 2.1165                 5.0314
 Frc consts  --      0.7363                 0.6576                 2.0710
 IR Inten    --     11.7798                 0.5246                 5.3749

                     13                     14                     15
                      A                      A                      A
 Frequencies --    862.1216               869.3630               892.8478
 Red. masses --      1.5615                 1.9214                 1.2567
 Frc consts  --      0.6838                 0.8556                 0.5903
 IR Inten    --      6.3228                16.3994                 0.4577

                     16                     17                     18
                      A                      A                      A
 Frequencies --    924.0732               940.7799               998.4199
 Red. masses --      1.7506                 3.5788                 2.9247
 Frc consts  --      0.8807                 1.8662                 1.7177
 IR Inten    --      4.7524                39.7250                 6.7200

                     19                     20                     21
                      A                      A                      A
 Frequencies --   1033.6928              1041.1431              1045.7782
 Red. masses --      2.3619                 4.0012                 2.4442
 Frc consts  --      1.4869                 2.5554                 1.5749
 IR Inten    --     55.6807                47.9862                17.2314

                     22                     23                     24
                      A                      A                      A
 Frequencies --   1063.0633              1078.1701              1102.3076
 Red. masses --      1.5893                 1.5585                 2.4685
 Frc consts  --      1.0582                 1.0674                 1.7672
 IR Inten    --      5.2102                 3.5631                21.2606

                     25                     26                     27
                      A                      A                      A
 Frequencies --   1129.1274              1158.8917              1161.3109
 Red. masses --      1.1340                 1.2414                 1.0779
 Frc consts  --      0.8518                 0.9823                 0.8565
 IR Inten    --      0.9098                 0.8506                 0.3741

                     28                     29                     30
                      A                      A                      A
 Frequencies --   1181.5061              1218.8074              1230.1142
 Red. masses --      1.7161                 2.1039                 1.8942
 Frc consts  --      1.4115                 1.8414                 1.6888
 IR Inten    --     39.9388                 4.4732                 0.5167

                     31                     32                     33
                      A                      A                      A
 Frequencies --   1257.4897              1286.1532              1309.4040
 Red. masses --      1.3180                 1.3325                 1.2749
 Frc consts  --      1.2279                 1.2987                 1.2878
 IR Inten    --      1.1581                 4.5740                 0.4292

                     34                     35                     36
                      A                      A                      A
 Frequencies --   1335.9407              1383.0720              1432.8610
 Red. masses --      1.4219                 1.4580                 1.3366
 Frc consts  --      1.4952                 1.6432                 1.6169
 IR Inten    --     16.3671                 1.5586                 1.5360

                     37                     38                     39
                      A                      A                      A
 Frequencies --   1450.7217              1487.6093              1511.7626
 Red. masses --      1.4597                 1.4974                 1.0790
 Frc consts  --      1.8100                 1.9523                 1.4529
 IR Inten    --      4.0560                 3.0745                 1.3553

                     40                     41                     42
                      A                      A                      A
 Frequencies --   1537.6261              1823.4601              2833.7114
 Red. masses --      1.1103                10.1914                 1.0808
 Frc consts  --      1.5466                19.9654                 5.1133
 IR Inten    --      1.3679               279.4523                97.7400

                     43                     44                     45
                      A                      A                      A
 Frequencies --   2999.1412              3010.5114              3050.5439
 Red. masses --      1.0566                 1.0630                 1.1011
 Frc consts  --      5.5995                 5.6761                 6.0374
 IR Inten    --    107.0178                14.2779                33.2606

                     46                     47                     48
                      A                      A                      A
 Frequencies --   3056.6370              3075.3382              3124.0331
 Red. masses --      1.1040                 1.0921                 1.0869
 Frc consts  --      6.0775                 6.0857                 6.2500
 IR Inten    --     15.1862                49.4158                14.4325

                     49                     50                     51
                      A                      A                      A
 Frequencies --   3133.4677              3177.7557              3220.8410
 Red. masses --      1.0549                 1.0900                 1.1164
 Frc consts  --      6.1023                 6.4848                 6.8236
 IR Inten    --      9.2132                 3.4483                 4.7036

 - Thermochemistry -
 -------------------
 Temperature   298.150 Kelvin.  Pressure   1.00000 Atm.
 Atom     1 has atomic number  8 and mass  15.99491

 Molecular mass:   126.06808 amu.
 Principal axes and moments of inertia in atomic units:
                           1         2         3
     Eigenvalues --   461.289782254.767842559.14615
           X            0.99996  -0.00701   0.00593
           Y            0.00707   0.99991  -0.01137
           Z           -0.00585   0.01141   0.99992
 This molecule is an asymmetric top.
 Rotational symmetry number  1.
 Warning -- assumption of classical behavior for rotation
           may cause significant error
 Rotational temperatures (Kelvin)      0.18776     0.03841     0.03384
 Rotational constants (GHZ):           3.91238     0.80041     0.70521
 Zero-point vibrational energy     415848.3 (Joules/Mol)
                                   99.39013 (Kcal/Mol)
 Warning -- explicit consideration of  10 degrees of freedom as
           vibrations may cause significant error
 Vibrational temperatures:     72.41    90.17   139.96   217.72   302.52
          (Kelvin)            440.26   458.65   532.99   629.15   760.33
                             1044.79  1202.57  1240.40  1250.82  1284.61
                             1329.53  1353.57  1436.50  1487.25  1497.97
                             1504.64  1529.51  1551.24  1585.97  1624.56
                             1667.38  1670.87  1699.92  1753.59  1769.86
                             1809.25  1850.49  1883.94  1922.12  1989.93
                             2061.56  2087.26  2140.34  2175.09  2212.30
                             2623.55  4077.07  4315.09  4331.45  4389.05
                             4397.81  4424.72  4494.78  4508.36  4572.08
                             4634.07

 Zero-point correction=                           0.158388 (Hartree/Particle)
 Thermal correction to Energy=                    0.167266
 Thermal correction to Enthalpy=                  0.168210
 Thermal correction to Gibbs Free Energy=         0.123296
 Sum of electronic and zero-point Energies=           -422.998962
 Sum of electronic and thermal Energies=              -422.990084
 Sum of electronic and thermal Enthalpies=            -422.989140
 Sum of electronic and thermal Free Energies=         -423.034055

                     E (Thermal)             CV                S
                      KCal/Mol        Cal/Mol-Kelvin    Cal/Mol-Kelvin
 Total                  104.961             31.621             94.530
 Electronic               0.000              0.000              0.000
 Translational            0.889              2.981             40.409
 Rotational               0.889              2.981             29.366
 Vibrational            103.184             25.659             24.756
 Vibration     1          0.595              1.977              4.805
 Vibration     2          0.597              1.972              4.371
 Vibration     3          0.603              1.951              3.508
 Vibration     4          0.619              1.901              2.656
 Vibration     5          0.642              1.825              2.041
 Vibration     6          0.696              1.662              1.384
 Vibration     7          0.705              1.638              1.316
 Vibration     8          0.742              1.533              1.078
 Vibration     9          0.798              1.389              0.835
 Vibration    10          0.883              1.187              0.591

 Optimization completed.
    -- Stationary point found.
 Normal termination of Gaussian 09 at Mon Jan 27 14:30:55 2020.
