 Gaussian 09, Revision D.01,
 Gaussian 09:  ES64L-G09RevD.01 24-Apr-2013

 -----------------------------
 # b3lyp 6-31G(2df,p) opt Freq
 -----------------------------

 -----
 titel
 -----
 Symbolic Z-matrix:
 Charge =  0 Multiplicity = 1

 SCF Done:  E(RB3LYP) =  -423.122423128     A.U. after   14 cycles
 Optimization completed.
    -- Stationary point found.
 Normal termination of Gaussian 09 at Tue Jan 28 14:26:42 2020.

 ----------------------------------------------------------------------
 #N Geom=AllCheck Guess=TCheck SCRF=Check GenChk RB3LYP/6-31G(2df,p) Fr
 eq
 ----------------------------------------------------------------------

 Structure from the checkpoint file:  "/scratch/puck/g09_0d0aecaa-cb0c-4c0a-95dd-d6b68304442e/Gau-34885.chk"
 -----
 titel
 -----
 Charge =  0 Multiplicity = 1

                         Standard orientation:
 ---------------------------------------------------------------------
 Center     Atomic      Atomic             Coordinates (Angstroms)
 Number     Number       Type             X           Y           Z
 ---------------------------------------------------------------------
      1          8           0       -3.479463    0.943970    0.174312
      2          6           0       -2.434933    0.186195   -0.416524
      3          6           0       -1.350469   -0.208525    0.590086
      4          6           0       -0.239978   -1.027875   -0.040700
      5          6           0        1.039525   -1.275163    0.785346
      6          6           0        1.767027   -0.541576   -0.373967
      7          8           0        0.505170   -0.272593   -1.035584
      8          6           0        2.518864    0.657808   -0.045386
      9          6           0        3.145488    1.643407    0.239308
     10          1           0       -3.112135    1.794936    0.433267
     11          1           0       -2.913820   -0.713072   -0.820435
     12          1           0       -1.974606    0.718275   -1.261062
     13          1           0       -0.910993    0.696537    1.030700
     14          1           0       -1.806127   -0.782902    1.406751
     15          1           0       -0.650784   -1.941185   -0.494486
     16          1           0        1.072742   -0.741761    1.736105
     17          1           0        1.330140   -2.315126    0.935236
     18          1           0        2.386694   -1.208097   -0.988376
     19          1           0        3.700080    2.515752    0.483496
 ---------------------------------------------------------------------

 SCF Done:  E(RB3LYP) =  -423.122423128     A.U. after    1 cycles

 The electronic state is 1-A.
 Alpha  occ. eigenvalues --  -19.13915 -19.13091 -10.26152 -10.24118 -10.22344
 Alpha  occ. eigenvalues --  -10.19826 -10.18645 -10.18297 -10.18272  -1.04421
 Alpha  occ. eigenvalues --   -1.01160  -0.78394  -0.77465  -0.73414  -0.68282
 Alpha  occ. eigenvalues --   -0.62370  -0.56852  -0.53693  -0.50558  -0.50494
 Alpha  occ. eigenvalues --   -0.49067  -0.46072  -0.44070  -0.42913  -0.39086
 Alpha  occ. eigenvalues --   -0.38358  -0.36360  -0.35776  -0.31946  -0.31678
 Alpha  occ. eigenvalues --   -0.28130  -0.27214  -0.26498  -0.25366
 Alpha virt. eigenvalues --    0.01896   0.04341   0.07995   0.10036   0.10760
 Alpha virt. eigenvalues --    0.11247   0.12450   0.13252   0.14749   0.15825
 Alpha virt. eigenvalues --    0.15976   0.18239   0.18792   0.19893   0.23081

 Mulliken charges:
               1
     1  O   -0.419564
     2  C   -0.064640
     3  C   -0.216518
     4  C    0.152414
     5  C   -0.327374
     6  C   -0.026259
     7  O   -0.302573
     8  C    0.330523
     9  C   -0.454122
    10  H    0.281638
    11  H    0.108672
    12  H    0.112386
    13  H    0.094609
    14  H    0.105865
    15  H    0.077148
    16  H    0.122623
    17  H    0.116530
    18  H    0.105409
    19  H    0.203233
 Sum of Mulliken charges =   0.00000

 Dipole moment (field-independent basis, Debye):
    X=              1.5608    Y=             -0.4360    Z=              1.3492  Tot=              2.1087
 Quadrupole moment (field-independent basis, Debye-Ang):
   XX=            -59.8076   YY=            -45.2587   ZZ=            -54.9944
   XY=              1.0209   XZ=              1.2287   YZ=              1.8274

  Exact polarizability:  90.926  12.165  82.166   1.655   4.015  60.807
 Approx polarizability: 114.797  23.177 126.893   4.208   9.510  92.861

                      1                      2                      3
                      A                      A                      A
 Frequencies --     26.6716                92.1962               100.4536
 Red. masses --      5.5654                 2.9863                 2.1816
 Frc consts  --      0.0023                 0.0150                 0.0130
 IR Inten    --      0.0702                 2.1069                 5.1420

                      4                      5                      6
                      A                      A                      A
 Frequencies --    156.3796               189.6658               232.0433
 Red. masses --      3.8372                 3.3989                 3.7182
 Frc consts  --      0.0553                 0.0720                 0.1180
 IR Inten    --      0.9539                 3.1442                 1.1185

                      7                      8                      9
                      A                      A                      A
 Frequencies --    306.5375               340.2610               381.9487
 Red. masses --      1.1076                 4.6583                 3.2486
 Frc consts  --      0.0613                 0.3178                 0.2792
 IR Inten    --     97.6407                11.5519                 6.9927

                     10                     11                     12
                      A                      A                      A
 Frequencies --    483.0541               510.3959               527.8982
 Red. masses --      3.0192                 3.5533                 7.2132
 Frc consts  --      0.4151                 0.5454                 1.1843
 IR Inten    --      1.9758                 3.2396                 3.5554

                     13                     14                     15
                      A                      A                      A
 Frequencies --    618.4667               671.4368               717.7706
 Red. masses --      1.2222                 1.2567                 2.3531
 Frc consts  --      0.2754                 0.3338                 0.7143
 IR Inten    --     42.0034                35.2938                 3.7555

                     16                     17                     18
                      A                      A                      A
 Frequencies --    780.0895               842.9070               903.9657
 Red. masses --      1.2522                 2.3741                 3.2905
 Frc consts  --      0.4490                 0.9938                 1.5842
 IR Inten    --      0.3410                14.6022                 8.2189

                     19                     20                     21
                      A                      A                      A
 Frequencies --    931.2127               987.1661               993.5340
 Red. masses --      2.0459                 3.5005                 4.9633
 Frc consts  --      1.0453                 2.0098                 2.8866
 IR Inten    --     18.8928                58.1745                37.3946

                     22                     23                     24
                      A                      A                      A
 Frequencies --   1039.2084              1073.8557              1083.2503
 Red. masses --      2.9788                 3.2427                 2.6363
 Frc consts  --      1.8954                 2.2032                 1.8226
 IR Inten    --     89.7271               111.5265                29.7817

                     25                     26                     27
                      A                      A                      A
 Frequencies --   1091.3979              1120.2650              1130.2699
 Red. masses --      2.3589                 1.7494                 1.4139
 Frc consts  --      1.6555                 1.2935                 1.0642
 IR Inten    --      5.5477                 1.6861                 6.3654

                     28                     29                     30
                      A                      A                      A
 Frequencies --   1209.3773              1252.8737              1259.5536
 Red. masses --      1.5242                 1.3678                 1.2281
 Frc consts  --      1.3134                 1.2650                 1.1479
 IR Inten    --      1.1304                 3.6915                 0.3895

                     31                     32                     33
                      A                      A                      A
 Frequencies --   1270.9775              1318.1927              1327.6645
 Red. masses --      1.3298                 1.2109                 1.3621
 Frc consts  --      1.2657                 1.2397                 1.4146
 IR Inten    --      2.1293                 7.1987                 2.2442

                     34                     35                     36
                      A                      A                      A
 Frequencies --   1362.0979              1391.1003              1417.7438
 Red. masses --      1.3018                 1.2882                 1.4803
 Frc consts  --      1.4230                 1.4688                 1.7531
 IR Inten    --     45.4860                17.4070                 0.7534

                     37                     38                     39
                      A                      A                      A
 Frequencies --   1421.9740              1471.8368              1490.6729
 Red. masses --      1.2856                 1.0913                 1.1237
 Frc consts  --      1.5315                 1.3929                 1.4712
 IR Inten    --     41.6351                 2.0373                 3.7089

                     40                     41                     42
                      A                      A                      A
 Frequencies --   1513.9571              2234.6603              2997.6406
 Red. masses --      1.0919                 5.9214                 1.0826
 Frc consts  --      1.4746                17.4219                 5.7314
 IR Inten    --      0.8412                 2.4259                37.1080

                     43                     44                     45
                      A                      A                      A
 Frequencies --   3007.3239              3013.1947              3017.5490
 Red. masses --      1.0631                 1.0837                 1.0630
 Frc consts  --      5.6647                 5.7973                 5.7026
 IR Inten    --     18.1478                36.4701                43.6239

                     46                     47                     48
                      A                      A                      A
 Frequencies --   3054.8455              3077.8841              3087.6333
 Red. masses --      1.0964                 1.1043                 1.0590
 Frc consts  --      6.0286                 6.1637                 5.9484
 IR Inten    --      4.2568                61.0694                19.0669

                     49                     50                     51
                      A                      A                      A
 Frequencies --   3147.6435              3501.7188              3818.6850
 Red. masses --      1.1098                 1.1625                 1.0662
 Frc consts  --      6.4782                 8.3986                 9.1602
 IR Inten    --     16.8819                62.9549                15.5632

 - Thermochemistry -
 -------------------
 Temperature   298.150 Kelvin.  Pressure   1.00000 Atm.
 Atom     1 has atomic number  8 and mass  15.99491

 Molecular mass:   126.06808 amu.
 Principal axes and moments of inertia in atomic units:
                           1         2         3
     Eigenvalues --   561.445372251.737782494.85662
           X            0.99999  -0.00064   0.00522
           Y            0.00064   1.00000  -0.00068
           Z           -0.00522   0.00068   0.99999
 This molecule is an asymmetric top.
 Rotational symmetry number  1.
 Warning -- assumption of classical behavior for rotation
           may cause significant error
 Rotational temperatures (Kelvin)      0.15427     0.03847     0.03472
 Rotational constants (GHZ):           3.21446     0.80149     0.72338
 Zero-point vibrational energy     412706.3 (Joules/Mol)
                                   98.63917 (Kcal/Mol)
 Warning -- explicit consideration of  13 degrees of freedom as
           vibrations may cause significant error
 Vibrational temperatures:     38.37   132.65   144.53   225.00   272.89
          (Kelvin)            333.86   441.04   489.56   549.54   695.01
                              734.35   759.53   889.83   966.05  1032.71
                             1122.37  1212.75  1300.60  1339.81  1420.31
                             1429.47  1495.19  1545.04  1558.55  1570.28
                             1611.81  1626.20  1740.02  1802.60  1812.21
                             1828.65  1896.58  1910.21  1959.75  2001.48
                             2039.81  2045.90  2117.64  2144.74  2178.24
                             3215.17  4312.93  4326.86  4335.31  4341.57
                             4395.24  4428.38  4442.41  4528.75  5038.19
                             5494.23

 Zero-point correction=                           0.157192 (Hartree/Particle)
 Thermal correction to Energy=                    0.166871
 Thermal correction to Enthalpy=                  0.167815
 Thermal correction to Gibbs Free Energy=         0.121304
 Sum of electronic and zero-point Energies=           -422.965232
 Sum of electronic and thermal Energies=              -422.955552
 Sum of electronic and thermal Enthalpies=            -422.954608
 Sum of electronic and thermal Free Energies=         -423.001119

                     E (Thermal)             CV                S
                      KCal/Mol        Cal/Mol-Kelvin    Cal/Mol-Kelvin
 Total                  104.713             34.911             97.891
 Electronic               0.000              0.000              0.000
 Translational            0.889              2.981             40.409
 Rotational               0.889              2.981             29.535
 Vibrational            102.936             28.949             27.948
 Vibration     1          0.593              1.984              6.063
 Vibration     2          0.602              1.955              3.613
 Vibration     3          0.604              1.949              3.446
 Vibration     4          0.620              1.896              2.593
 Vibration     5          0.633              1.854              2.231
 Vibration     6          0.653              1.792              1.863
 Vibration     7          0.697              1.661              1.381
 Vibration     8          0.720              1.595              1.211
 Vibration     9          0.751              1.509              1.031
 Vibration    10          0.839              1.288              0.702
 Vibration    11          0.866              1.227              0.633
 Vibration    12          0.883              1.188              0.592
 Vibration    13          0.978              0.993              0.419

 Normal termination of Gaussian 09 at Tue Jan 28 15:01:29 2020.
