 Gaussian 09, Revision D.01,
 Gaussian 09:  ES64L-G09RevD.01 24-Apr-2013

 -----------------------------
 # b3lyp 6-31G(2df,p) opt Freq
 -----------------------------

 -----
 titel
 -----
 Symbolic Z-matrix:
 Charge =  0 Multiplicity = 1

 SCF Done:  E(RB3LYP) =  -423.192469016     A.U. after   14 cycles
 Optimization completed.
    -- Stationary point found.
 Normal termination of Gaussian 09 at Tue Jan 28 09:15:55 2020.

 ----------------------------------------------------------------------
 #N Geom=AllCheck Guess=TCheck SCRF=Check GenChk RB3LYP/6-31G(2df,p) Fr
 eq
 ----------------------------------------------------------------------

 Structure from the checkpoint file:  "/scratch/puck/g09_d5f679ea-ae19-4279-b125-ad24afa734df/Gau-57774.chk"
 -----
 titel
 -----
 Charge =  0 Multiplicity = 1

                         Standard orientation:
 ---------------------------------------------------------------------
 Center     Atomic      Atomic             Coordinates (Angstroms)
 Number     Number       Type             X           Y           Z
 ---------------------------------------------------------------------
      1          8           0       -2.768875   -0.154575    0.062835
      2          6           0       -1.672654    0.750813    0.035094
      3          6           0       -0.333004    0.056190    0.014907
      4          6           0        0.109846   -1.007803    1.080298
      5          6           0        1.169768   -1.377121    0.005306
      6          6           0        0.082986   -1.024602   -1.049275
      7          6           0        2.056178   -0.116520   -0.016449
      8          6           0        0.918172    0.927288   -0.012289
      9          8           0        0.990677    2.127759   -0.026404
     10          1           0       -2.836140   -0.562099   -0.805913
     11          1           0       -1.742127    1.447803   -0.813135
     12          1           0       -1.755098    1.354507    0.944945
     13          1           0        0.458271   -0.648133    2.053083
     14          1           0       -0.662170   -1.768441    1.209579
     15          1           0        1.670093   -2.344351    0.003598
     16          1           0        0.404492   -0.684287   -2.038512
     17          1           0       -0.677729   -1.803819   -1.142579
     18          1           0        2.698527   -0.006013    0.862837
     19          1           0        2.679709   -0.020119   -0.910899
 ---------------------------------------------------------------------

 SCF Done:  E(RB3LYP) =  -423.192469016     A.U. after    1 cycles

 The electronic state is 1-A.
 Alpha  occ. eigenvalues --  -19.13951 -19.13122 -10.26681 -10.22903 -10.20725
 Alpha  occ. eigenvalues --  -10.20434 -10.20215 -10.19684 -10.19284  -1.04215
 Alpha  occ. eigenvalues --   -1.01937  -0.90165  -0.74277  -0.70839  -0.67581
 Alpha  occ. eigenvalues --   -0.64123  -0.56591  -0.52480  -0.50496  -0.47964
 Alpha  occ. eigenvalues --   -0.47172  -0.46135  -0.43799  -0.41616  -0.39757
 Alpha  occ. eigenvalues --   -0.38649  -0.37797  -0.36293  -0.34131  -0.33110
 Alpha  occ. eigenvalues --   -0.32608  -0.31374  -0.27452  -0.23481
 Alpha virt. eigenvalues --   -0.00844   0.06432   0.09280   0.10652   0.12566
 Alpha virt. eigenvalues --    0.12808   0.14542   0.14929   0.15268   0.15811
 Alpha virt. eigenvalues --    0.17115   0.19347   0.20064   0.20478   0.21617

 Mulliken charges:
               1
     1  O   -0.418169
     2  C   -0.193283
     3  C    0.197561
     4  C   -0.265091
     5  C   -0.028196
     6  C   -0.283529
     7  C   -0.333518
     8  C    0.410068
     9  O   -0.345415
    10  H    0.283821
    11  H    0.103499
    12  H    0.124383
    13  H    0.101607
    14  H    0.119153
    15  H    0.073624
    16  H    0.101622
    17  H    0.103485
    18  H    0.125023
    19  H    0.123356
 Sum of Mulliken charges =   0.00000

 Dipole moment (field-independent basis, Debye):
    X=              0.5332    Y=             -2.7850    Z=             -1.0948  Tot=              3.0396
 Quadrupole moment (field-independent basis, Debye-Ang):
   XX=            -55.7504   YY=            -58.8259   ZZ=            -50.1126
   XY=             -2.6238   XZ=              3.8334   YZ=              1.1210

  Exact polarizability:  80.072   0.371  77.623   0.664   0.698  66.831
 Approx polarizability: 108.279   3.560 121.920   0.196   1.138 103.760

                      1                      2                      3
                      A                      A                      A
 Frequencies --     84.3689               138.6733               155.5407
 Red. masses --      2.7693                 3.5727                 5.9329
 Frc consts  --      0.0116                 0.0405                 0.0846
 IR Inten    --      3.2708                 2.9039                 5.3866

                      4                      5                      6
                      A                      A                      A
 Frequencies --    255.3183               317.3762               327.8694
 Red. masses --      1.2420                 1.9266                 5.6012
 Frc consts  --      0.0477                 0.1143                 0.3548
 IR Inten    --     98.5617                25.3272                 6.9894

                      7                      8                      9
                      A                      A                      A
 Frequencies --    394.6315               455.0218               568.0494
 Red. masses --      1.7842                 2.2261                 3.6039
 Frc consts  --      0.1637                 0.2716                 0.6852
 IR Inten    --      0.6032                 1.0085                 6.6120

                     10                     11                     12
                      A                      A                      A
 Frequencies --    585.5102               624.3187               663.9690
 Red. masses --      4.8491                 2.3089                 3.7665
 Frc consts  --      0.9794                 0.5302                 0.9783
 IR Inten    --      3.4150                 1.3171                 9.7807

                     13                     14                     15
                      A                      A                      A
 Frequencies --    784.1826               800.7333               869.4163
 Red. masses --      2.9043                 2.7284                 2.1815
 Frc consts  --      1.0522                 1.0307                 0.9715
 IR Inten    --     11.7406                 0.2705                 0.4785

                     16                     17                     18
                      A                      A                      A
 Frequencies --    874.9958               909.1405               925.1741
 Red. masses --      3.3236                 2.7805                 1.4036
 Frc consts  --      1.4992                 1.3540                 0.7078
 IR Inten    --     14.0532                 7.4619                 2.9192

                     19                     20                     21
                      A                      A                      A
 Frequencies --    977.1984               980.6770              1020.1751
 Red. masses --      1.3759                 1.9405                 2.6218
 Frc consts  --      0.7741                 1.0995                 1.6077
 IR Inten    --      1.4203                 3.4992                73.6830

                     22                     23                     24
                      A                      A                      A
 Frequencies --   1033.2991              1066.2252              1076.1526
 Red. masses --      1.6962                 1.4183                 2.8241
 Frc consts  --      1.0670                 0.9500                 1.9270
 IR Inten    --     12.1470                 6.8051                32.7252

                     25                     26                     27
                      A                      A                      A
 Frequencies --   1100.0073              1126.3403              1178.7867
 Red. masses --      1.8260                 1.2052                 1.2990
 Frc consts  --      1.3018                 0.9009                 1.0635
 IR Inten    --      7.6184                 1.2994                 4.3456

                     28                     29                     30
                      A                      A                      A
 Frequencies --   1188.2039              1217.9742              1232.9350
 Red. masses --      2.4331                 1.6211                 1.3320
 Frc consts  --      2.0239                 1.4169                 1.1930
 IR Inten    --      2.6473                10.2356                 6.2180

                     31                     32                     33
                      A                      A                      A
 Frequencies --   1262.9380              1274.8626              1302.3516
 Red. masses --      1.6065                 1.8777                 1.7913
 Frc consts  --      1.5097                 1.7981                 1.7901
 IR Inten    --      5.7986                 7.2355                 5.9245

                     34                     35                     36
                      A                      A                      A
 Frequencies --   1338.8368              1389.7524              1415.2787
 Red. masses --      2.3616                 1.2971                 1.4122
 Frc consts  --      2.4940                 1.4760                 1.6666
 IR Inten    --      3.7712                 5.5470                48.2178

                     37                     38                     39
                      A                      A                      A
 Frequencies --   1461.3734              1484.9640              1490.9749
 Red. masses --      1.0925                 1.0912                 1.0821
 Frc consts  --      1.3746                 1.4177                 1.4173
 IR Inten    --      4.7835                 1.3485                 1.2284

                     40                     41                     42
                      A                      A                      A
 Frequencies --   1521.9739              1858.1954              3000.2456
 Red. masses --      1.1349                12.7775                 1.0684
 Frc consts  --      1.5489                25.9944                 5.6663
 IR Inten    --      0.5133               242.9021                39.6454

                     43                     44                     45
                      A                      A                      A
 Frequencies --   3046.7977              3053.6402              3057.2216
 Red. masses --      1.0561                 1.0588                 1.0595
 Frc consts  --      5.7760                 5.8172                 5.8343
 IR Inten    --     43.7299                20.3231                13.4071

                     46                     47                     48
                      A                      A                      A
 Frequencies --   3077.2858              3100.2853              3109.9242
 Red. masses --      1.0942                 1.1046                 1.1092
 Frc consts  --      6.1051                 6.2556                 6.3204
 IR Inten    --     18.3089                10.6513                23.5816

                     49                     50                     51
                      A                      A                      A
 Frequencies --   3123.4918              3128.2630              3824.6539
 Red. masses --      1.0946                 1.1025                 1.0663
 Frc consts  --      6.2922                 6.3570                 9.1898
 IR Inten    --     33.3646                26.3823                16.9949

 - Thermochemistry -
 -------------------
 Temperature   298.150 Kelvin.  Pressure   1.00000 Atm.
 Atom     1 has atomic number  8 and mass  15.99491

 Molecular mass:   126.06808 amu.
 Principal axes and moments of inertia in atomic units:
                           1         2         3
     Eigenvalues --   702.328731165.009191565.04798
           X            0.99908  -0.04197   0.00822
           Y            0.04194   0.99911   0.00465
           Z           -0.00841  -0.00430   0.99996
 This molecule is an asymmetric top.
 Rotational symmetry number  1.
 Warning -- assumption of classical behavior for rotation
           may cause significant error
 Rotational temperatures (Kelvin)      0.12332     0.07435     0.05534
 Rotational constants (GHZ):           2.56965     1.54912     1.15315
 Zero-point vibrational energy     420221.7 (Joules/Mol)
                                  100.43539 (Kcal/Mol)
 Warning -- explicit consideration of  10 degrees of freedom as
           vibrations may cause significant error
 Vibrational temperatures:    121.39   199.52   223.79   367.35   456.63
          (Kelvin)            471.73   567.79   654.67   817.30   842.42
                              898.25   955.30  1128.26  1152.08  1250.89
                             1258.92  1308.05  1331.12  1405.97  1410.97
                             1467.80  1486.69  1534.06  1548.34  1582.66
                             1620.55  1696.01  1709.56  1752.39  1773.92
                             1817.08  1834.24  1873.79  1926.29  1999.54
                             2036.27  2102.59  2136.53  2145.18  2189.78
                             2673.53  4316.68  4383.66  4393.50  4398.65
                             4427.52  4460.61  4474.48  4494.00  4500.87
                             5502.82

 Zero-point correction=                           0.160054 (Hartree/Particle)
 Thermal correction to Energy=                    0.168189
 Thermal correction to Enthalpy=                  0.169134
 Thermal correction to Gibbs Free Energy=         0.127299
 Sum of electronic and zero-point Energies=           -423.032415
 Sum of electronic and thermal Energies=              -423.024280
 Sum of electronic and thermal Enthalpies=            -423.023335
 Sum of electronic and thermal Free Energies=         -423.065170

                     E (Thermal)             CV                S
                      KCal/Mol        Cal/Mol-Kelvin    Cal/Mol-Kelvin
 Total                  105.540             31.587             88.049
 Electronic               0.000              0.000              0.000
 Translational            0.889              2.981             40.409
 Rotational               0.889              2.981             28.639
 Vibrational            103.763             25.626             19.001
 Vibration     1          0.601              1.960              3.787
 Vibration     2          0.614              1.915              2.822
 Vibration     3          0.620              1.896              2.603
 Vibration     4          0.666              1.754              1.694
 Vibration     5          0.704              1.640              1.324
 Vibration     6          0.711              1.620              1.271
 Vibration     7          0.762              1.482              0.983
 Vibration     8          0.813              1.350              0.781
 Vibration     9          0.924              1.100              0.508
 Vibration    10          0.943              1.063              0.475

 Normal termination of Gaussian 09 at Tue Jan 28 10:04:19 2020.
