 Gaussian 09, Revision D.01,
 Gaussian 09:  ES64L-G09RevD.01 24-Apr-2013

 -----------------------------
 # b3lyp 6-31G(2df,p) opt Freq
 -----------------------------

 -----
 titel
 -----
 Symbolic Z-matrix:
 Charge =  0 Multiplicity = 1

 SCF Done:  E(RB3LYP) =  -423.204430553     A.U. after   13 cycles
 Optimization completed.
    -- Stationary point found.
 Normal termination of Gaussian 09 at Mon Jan 27 22:01:04 2020.

 ----------------------------------------------------------------------
 #N Geom=AllCheck Guess=TCheck SCRF=Check GenChk RB3LYP/6-31G(2df,p) Fr
 eq
 ----------------------------------------------------------------------

 Structure from the checkpoint file:  "/scratch/puck/g09_88b948ec-b750-4390-b9fb-67ae4d3edd24/Gau-45694.chk"
 -----
 titel
 -----
 Charge =  0 Multiplicity = 1

                         Standard orientation:
 ---------------------------------------------------------------------
 Center     Atomic      Atomic             Coordinates (Angstroms)
 Number     Number       Type             X           Y           Z
 ---------------------------------------------------------------------
      1          8           0       -0.063559    1.963657   -0.879986
      2          6           0        0.018787    0.794548   -0.070915
      3          6           0        1.418434    0.748807    0.562108
      4          6           0        1.698746   -0.749947    0.642934
      5          8           0        1.111752   -1.304120   -0.532420
      6          6           0       -0.060374   -0.562882   -0.859313
      7          6           0       -1.358649   -1.269496   -0.391904
      8          6           0       -1.868463   -0.396104    0.727166
      9          6           0       -1.127539    0.697404    0.905889
     10          1           0       -0.983708    2.069983   -1.144630
     11          1           0        2.116505    1.238423   -0.123291
     12          1           0        1.465570    1.253632    1.530124
     13          1           0        2.762890   -1.000673    0.634715
     14          1           0        1.250453   -1.188127    1.548696
     15          1           0       -0.049160   -0.389425   -1.939201
     16          1           0       -2.099374   -1.366865   -1.196257
     17          1           0       -1.123160   -2.287435   -0.062079
     18          1           0       -2.749770   -0.650032    1.307994
     19          1           0       -1.301445    1.470258    1.647390
 ---------------------------------------------------------------------

 SCF Done:  E(RB3LYP) =  -423.204430553     A.U. after    1 cycles

 The electronic state is 1-A.
 Alpha  occ. eigenvalues --  -19.13709 -19.13039 -10.23698 -10.22260 -10.22245
 Alpha  occ. eigenvalues --  -10.19256 -10.18410 -10.18207 -10.17852  -1.03333
 Alpha  occ. eigenvalues --   -1.01434  -0.83158  -0.76813  -0.70937  -0.68498
 Alpha  occ. eigenvalues --   -0.59770  -0.56806  -0.55188  -0.51801  -0.48524
 Alpha  occ. eigenvalues --   -0.46948  -0.44898  -0.42515  -0.40697  -0.39047
 Alpha  occ. eigenvalues --   -0.38100  -0.36877  -0.36201  -0.34872  -0.32586
 Alpha  occ. eigenvalues --   -0.31315  -0.26866  -0.25752  -0.23799
 Alpha virt. eigenvalues --    0.00799   0.08824   0.09787   0.12111   0.12449
 Alpha virt. eigenvalues --    0.13114   0.13948   0.15330   0.16298   0.17772
 Alpha virt. eigenvalues --    0.18985   0.19254   0.20163   0.20796   0.22285

 Mulliken charges:
               1
     1  O   -0.482683
     2  C    0.359472
     3  C   -0.264799
     4  C   -0.088200
     5  O   -0.264787
     6  C    0.057611
     7  C   -0.288213
     8  C   -0.070054
     9  C   -0.161173
    10  H    0.273277
    11  H    0.119350
    12  H    0.101229
    13  H    0.109361
    14  H    0.091442
    15  H    0.082043
    16  H    0.105216
    17  H    0.122994
    18  H    0.099732
    19  H    0.098183
 Sum of Mulliken charges =   0.00000

 Dipole moment (field-independent basis, Debye):
    X=             -1.6663    Y=              0.2022    Z=              0.9882  Tot=              1.9479
 Quadrupole moment (field-independent basis, Debye-Ang):
   XX=            -49.4742   YY=            -56.6861   ZZ=            -51.9943
   XY=             -0.0873   XZ=              2.9603   YZ=             -0.1920

  Exact polarizability:  81.703   6.410  76.270   0.906   2.178  67.928
 Approx polarizability: 114.073  13.234 119.057   1.003   3.627 102.617

                      1                      2                      3
                      A                      A                      A
 Frequencies --     56.5387               173.2671               242.1242
 Red. masses --      3.1428                 2.5646                 2.1520
 Frc consts  --      0.0059                 0.0454                 0.0743
 IR Inten    --      1.0369                 0.9510                 1.9957

                      4                      5                      6
                      A                      A                      A
 Frequencies --    301.2207               330.5206               392.5635
 Red. masses --      3.6160                 1.1651                 3.2821
 Frc consts  --      0.1933                 0.0750                 0.2980
 IR Inten    --      3.5338                72.3960                14.1791

                      7                      8                      9
                      A                      A                      A
 Frequencies --    445.9561               454.7858               593.1110
 Red. masses --      3.2086                 2.2802                 3.0026
 Frc consts  --      0.3760                 0.2779                 0.6223
 IR Inten    --      2.6856                 0.2258                 1.1815

                     10                     11                     12
                      A                      A                      A
 Frequencies --    615.2578               642.3766               744.3601
 Red. masses --      4.4939                 3.0575                 4.0723
 Frc consts  --      1.0023                 0.7433                 1.3294
 IR Inten    --     14.0119                 4.3527                 0.8332

                     13                     14                     15
                      A                      A                      A
 Frequencies --    762.7632               833.0561               852.4006
 Red. masses --      1.5800                 2.5506                 2.4836
 Frc consts  --      0.5416                 1.0429                 1.0632
 IR Inten    --     18.4284                10.3572                 8.8224

                     16                     17                     18
                      A                      A                      A
 Frequencies --    893.0723               945.0972               957.8153
 Red. masses --      1.9731                 2.6469                 2.3280
 Frc consts  --      0.9272                 1.3930                 1.2584
 IR Inten    --      8.3908                 4.5502                 6.1137

                     19                     20                     21
                      A                      A                      A
 Frequencies --    982.5528               996.2641              1009.9170
 Red. masses --      1.2664                 1.9713                 2.2261
 Frc consts  --      0.7204                 1.1528                 1.3377
 IR Inten    --      1.0184                11.2453                 3.4547

                     22                     23                     24
                      A                      A                      A
 Frequencies --   1026.5518              1067.7157              1084.5180
 Red. masses --      2.2550                 2.8202                 1.7901
 Frc consts  --      1.4001                 1.8943                 1.2405
 IR Inten    --     10.1162               110.0920                45.7976

                     25                     26                     27
                      A                      A                      A
 Frequencies --   1108.1365              1156.0620              1157.8404
 Red. masses --      2.3170                 2.1610                 1.7621
 Frc consts  --      1.6763                 1.7016                 1.3918
 IR Inten    --     43.5185                18.5510                 2.2973

                     28                     29                     30
                      A                      A                      A
 Frequencies --   1191.1641              1231.6175              1247.4096
 Red. masses --      1.3691                 1.6339                 1.3706
 Frc consts  --      1.1446                 1.4602                 1.2565
 IR Inten    --     27.6511                 0.8898                14.7482

                     31                     32                     33
                      A                      A                      A
 Frequencies --   1264.5049              1313.3892              1315.7569
 Red. masses --      1.5084                 1.3841                 1.5627
 Frc consts  --      1.4210                 1.4067                 1.5940
 IR Inten    --      0.5679                24.7939                 1.9641

                     34                     35                     36
                      A                      A                      A
 Frequencies --   1352.6685              1359.0599              1385.7981
 Red. masses --      1.4499                 1.2520                 1.6369
 Frc consts  --      1.5630                 1.3625                 1.8521
 IR Inten    --     23.0867                 8.3981                14.7491

                     37                     38                     39
                      A                      A                      A
 Frequencies --   1407.1886              1472.0449              1481.9398
 Red. masses --      1.5558                 1.0924                 1.1035
 Frc consts  --      1.8151                 1.3946                 1.4278
 IR Inten    --     22.8280                 5.0068                 3.3444

                     40                     41                     42
                      A                      A                      A
 Frequencies --   1518.1330              1679.1664              2978.2896
 Red. masses --      1.0935                 6.4625                 1.0716
 Frc consts  --      1.4849                10.7359                 5.6003
 IR Inten    --      0.6801                 3.4185                59.2856

                     43                     44                     45
                      A                      A                      A
 Frequencies --   3022.8963              3060.9574              3064.1879
 Red. masses --      1.0664                 1.0627                 1.0861
 Frc consts  --      5.7412                 5.8666                 6.0083
 IR Inten    --     27.7742                18.1983                10.6641

                     46                     47                     48
                      A                      A                      A
 Frequencies --   3070.9468              3089.4153              3115.6075
 Red. masses --      1.0940                 1.0913                 1.1060
 Frc consts  --      6.0785                 6.1367                 6.3255
 IR Inten    --     36.5358                38.3901                19.1051

                     49                     50                     51
                      A                      A                      A
 Frequencies --   3172.5098              3198.3958              3805.0970
 Red. masses --      1.0846                 1.1035                 1.0661
 Frc consts  --      6.4315                 6.6510                 9.0945
 IR Inten    --      7.9387                18.8926                15.2922

 - Thermochemistry -
 -------------------
 Temperature   298.150 Kelvin.  Pressure   1.00000 Atm.
 Atom     1 has atomic number  8 and mass  15.99491

 Molecular mass:   126.06808 amu.
 Principal axes and moments of inertia in atomic units:
                           1         2         3
     Eigenvalues --   817.33453 925.290901252.10250
           X            0.99299   0.11415   0.03076
           Y           -0.11456   0.99334   0.01201
           Z           -0.02918  -0.01545   0.99945
 This molecule is an asymmetric top.
 Rotational symmetry number  1.
 Warning -- assumption of classical behavior for rotation
           may cause significant error
 Rotational temperatures (Kelvin)      0.10597     0.09361     0.06917
 Rotational constants (GHZ):           2.20808     1.95046     1.44137
 Zero-point vibrational energy     422425.3 (Joules/Mol)
                                  100.96206 (Kcal/Mol)
 Warning -- explicit consideration of  10 degrees of freedom as
           vibrations may cause significant error
 Vibrational temperatures:     81.35   249.29   348.36   433.39   475.54
          (Kelvin)            564.81   641.63   654.33   853.35   885.22
                              924.24  1070.97  1097.44  1198.58  1226.41
                             1284.93  1359.78  1378.08  1413.67  1433.40
                             1453.04  1476.98  1536.20  1560.38  1594.36
                             1663.31  1665.87  1713.82  1772.02  1794.74
                             1819.34  1889.67  1893.08  1946.19  1955.38
                             1993.85  2024.63  2117.94  2132.18  2184.25
                             2415.94  4285.09  4349.27  4404.03  4408.68
                             4418.40  4444.97  4482.66  4564.53  4601.77
                             5474.68

 Zero-point correction=                           0.160893 (Hartree/Particle)
 Thermal correction to Energy=                    0.168607
 Thermal correction to Enthalpy=                  0.169551
 Thermal correction to Gibbs Free Energy=         0.128581
 Sum of electronic and zero-point Energies=           -423.043537
 Sum of electronic and thermal Energies=              -423.035824
 Sum of electronic and thermal Enthalpies=            -423.034879
 Sum of electronic and thermal Free Energies=         -423.075849

                     E (Thermal)             CV                S
                      KCal/Mol        Cal/Mol-Kelvin    Cal/Mol-Kelvin
 Total                  105.802             30.665             86.228
 Electronic               0.000              0.000              0.000
 Translational            0.889              2.981             40.409
 Rotational               0.889              2.981             28.339
 Vibrational            104.025             24.703             17.480
 Vibration     1          0.596              1.975              4.574
 Vibration     2          0.627              1.875              2.400
 Vibration     3          0.658              1.776              1.787
 Vibration     4          0.693              1.671              1.410
 Vibration     5          0.713              1.615              1.258
 Vibration     6          0.760              1.486              0.990
 Vibration     7          0.805              1.370              0.808
 Vibration     8          0.813              1.350              0.781
 Vibration     9          0.951              1.046              0.462
 Vibration    10          0.975              1.000              0.424

 Optimization completed.
    -- Stationary point found.
 Normal termination of Gaussian 09 at Mon Jan 27 22:53:03 2020.
