 Gaussian 09, Revision D.01,
 Gaussian 09:  ES64L-G09RevD.01 24-Apr-2013

 -----------------------------
 # b3lyp 6-31G(2df,p) opt Freq
 -----------------------------

 -----
 titel
 -----
 Symbolic Z-matrix:
 Charge =  0 Multiplicity = 1

 SCF Done:  E(RB3LYP) =  -423.074877263     A.U. after   14 cycles
 Optimization completed.
    -- Stationary point found.
 Normal termination of Gaussian 09 at Tue Jan 28 08:24:17 2020.

 ----------------------------------------------------------------------
 #N Geom=AllCheck Guess=TCheck SCRF=Check GenChk RB3LYP/6-31G(2df,p) Fr
 eq
 ----------------------------------------------------------------------

 Structure from the checkpoint file:  "/scratch/puck/g09_a59da9ff-0232-4dda-8ce9-5382e4d4d258/Gau-81430.chk"
 -----
 titel
 -----
 Charge =  0 Multiplicity = 1

                         Standard orientation:
 ---------------------------------------------------------------------
 Center     Atomic      Atomic             Coordinates (Angstroms)
 Number     Number       Type             X           Y           Z
 ---------------------------------------------------------------------
      1          6           0       -2.502945   -0.934091   -0.309106
      2          8           0       -1.484080   -0.584336    0.603967
      3          6           0       -0.542980    0.366397    0.139625
      4          6           0       -1.156908    1.742988   -0.076216
      5          6           0        0.756982    0.270584    0.957348
      6          6           0        1.221195   -1.004226    0.184815
      7          8           0        2.542253   -0.473660   -0.138126
      8          6           0        1.639768    0.662730   -0.267826
      9          6           0        0.477859   -0.164360   -0.903106
     10          1           0       -2.094142   -1.264207   -1.275528
     11          1           0       -3.055962   -1.764366    0.137043
     12          1           0       -3.206097   -0.109948   -0.493964
     13          1           0       -0.386347    2.483372   -0.309896
     14          1           0       -1.873638    1.744358   -0.903292
     15          1           0       -1.682551    2.066874    0.827709
     16          1           0        0.935827    0.507743    2.005581
     17          1           0        1.125885   -2.054883    0.447335
     18          1           0        2.052778    1.627803   -0.557039
     19          1           0        0.361043   -0.412916   -1.957877
 ---------------------------------------------------------------------

 SCF Done:  E(RB3LYP) =  -423.074877263     A.U. after    1 cycles

 The electronic state is 1-A.
 Alpha  occ. eigenvalues --  -19.14070 -19.12647 -10.25024 -10.24740 -10.24542
 Alpha  occ. eigenvalues --  -10.22612 -10.19943 -10.19833 -10.18099  -1.06309
 Alpha  occ. eigenvalues --   -1.03227  -0.86502  -0.73577  -0.69414  -0.65121
 Alpha  occ. eigenvalues --   -0.64749  -0.58697  -0.52682  -0.51021  -0.49406
 Alpha  occ. eigenvalues --   -0.46813  -0.46642  -0.42877  -0.41132  -0.40661
 Alpha  occ. eigenvalues --   -0.39614  -0.38959  -0.34885  -0.31829  -0.31451
 Alpha  occ. eigenvalues --   -0.31239  -0.29391  -0.25629  -0.22972
 Alpha virt. eigenvalues --    0.07305   0.09877   0.10086   0.11228   0.12229
 Alpha virt. eigenvalues --    0.12575   0.13669   0.15372   0.15711   0.16268
 Alpha virt. eigenvalues --    0.16746   0.18346   0.18402   0.19477   0.20949

 Mulliken charges:
               1
     1  C   -0.251087
     2  O   -0.291651
     3  C    0.417371
     4  C   -0.468765
     5  C   -0.152865
     6  C    0.088813
     7  O   -0.332949
     8  C    0.073326
     9  C   -0.164374
    10  H    0.105697
    11  H    0.128731
    12  H    0.109297
    13  H    0.121267
    14  H    0.120562
    15  H    0.127762
    16  H    0.084411
    17  H    0.105806
    18  H    0.097420
    19  H    0.081229
 Sum of Mulliken charges =   0.00000

 Dipole moment (field-independent basis, Debye):
    X=             -2.0289    Y=              0.9205    Z=             -0.8204  Tot=              2.3742
 Quadrupole moment (field-independent basis, Debye-Ang):
   XX=            -58.5893   YY=            -50.2359   ZZ=            -52.7335
   XY=              2.7071   XZ=              2.4191   YZ=              0.3390

  Exact polarizability:  83.716   1.443  73.990   1.164   0.174  65.788
 Approx polarizability: 114.088   2.228 108.674   0.227  -0.772 105.030

                      1                      2                      3
                      A                      A                      A
 Frequencies --     77.8139               163.5720               196.4406
 Red. masses --      2.2694                 1.3730                 2.1710
 Frc consts  --      0.0081                 0.0216                 0.0494
 IR Inten    --      1.6918                 0.2172                 1.5510

                      4                      5                      6
                      A                      A                      A
 Frequencies --    205.2395               239.8227               296.6564
 Red. masses --      1.3442                 2.2822                 2.2523
 Frc consts  --      0.0334                 0.0773                 0.1168
 IR Inten    --      0.3975                 2.3673                 0.6720

                      7                      8                      9
                      A                      A                      A
 Frequencies --    369.6303               421.1260               547.7069
 Red. masses --      3.6734                 4.8284                 4.3412
 Frc consts  --      0.2957                 0.5045                 0.7673
 IR Inten    --      4.5124                 1.3060                 6.2589

                     10                     11                     12
                      A                      A                      A
 Frequencies --    593.1521               632.7929               768.6808
 Red. masses --      3.2070                 3.6070                 3.6283
 Frc consts  --      0.6648                 0.8510                 1.2631
 IR Inten    --      2.1983                 2.8903                 0.1561

                     13                     14                     15
                      A                      A                      A
 Frequencies --    800.6080               806.6436               836.3783
 Red. masses --      2.8793                 2.1336                 1.9439
 Frc consts  --      1.0874                 0.8180                 0.8012
 IR Inten    --      7.6921                 2.6538                 4.5357

                     16                     17                     18
                      A                      A                      A
 Frequencies --    879.6062               897.7168               901.0920
 Red. masses --      3.5008                 2.8440                 1.7082
 Frc consts  --      1.5959                 1.3504                 0.8172
 IR Inten    --      4.0087                50.6349                 1.8160

                     19                     20                     21
                      A                      A                      A
 Frequencies --    930.1129               970.4689              1028.2912
 Red. masses --      2.2835                 1.2624                 4.5372
 Frc consts  --      1.1639                 0.7005                 2.8266
 IR Inten    --     26.5370                 0.2543                 6.8608

                     22                     23                     24
                      A                      A                      A
 Frequencies --   1088.6508              1100.7713              1110.8405
 Red. masses --      3.0956                 2.3039                 1.5699
 Frc consts  --      2.1616                 1.6448                 1.1414
 IR Inten    --     43.2560                 6.5440                 2.4753

                     25                     26                     27
                      A                      A                      A
 Frequencies --   1117.9289              1144.3111              1157.2257
 Red. masses --      1.7035                 1.6644                 1.6553
 Frc consts  --      1.2544                 1.2841                 1.3061
 IR Inten    --      2.2668                39.3117                 2.5516

                     28                     29                     30
                      A                      A                      A
 Frequencies --   1177.2650              1180.3933              1185.7860
 Red. masses --      1.8596                 1.2918                 1.9815
 Frc consts  --      1.5185                 1.0605                 1.6415
 IR Inten    --     28.2720                 2.9410                60.0523

                     31                     32                     33
                      A                      A                      A
 Frequencies --   1191.4897              1215.5747              1246.2986
 Red. masses --      2.7281                 2.3119                 2.0298
 Frc consts  --      2.2819                 2.0127                 1.8576
 IR Inten    --     48.8834                53.4311                18.0312

                     34                     35                     36
                      A                      A                      A
 Frequencies --   1326.2971              1341.4037              1409.9517
 Red. masses --      1.8107                 2.8696                 1.2838
 Frc consts  --      1.8766                 3.0422                 1.5037
 IR Inten    --      3.5233                31.2281                13.0530

                     37                     38                     39
                      A                      A                      A
 Frequencies --   1474.7404              1483.6078              1489.8013
 Red. masses --      1.1115                 1.0618                 1.0541
 Frc consts  --      1.4242                 1.3770                 1.3784
 IR Inten    --      0.9001                 5.4021                 0.2420

                     40                     41                     42
                      A                      A                      A
 Frequencies --   1504.6368              1510.1371              2987.0164
 Red. masses --      1.0716                 1.0522                 1.0362
 Frc consts  --      1.4294                 1.4137                 5.4470
 IR Inten    --      3.1393                 8.0989                48.1815

                     43                     44                     45
                      A                      A                      A
 Frequencies --   3035.1706              3041.5038              3105.1641
 Red. masses --      1.0748                 1.0614                 1.1004
 Frc consts  --      5.8338                 5.7848                 6.2515
 IR Inten    --     12.1748                54.8982                21.8586

                     46                     47                     48
                      A                      A                      A
 Frequencies --   3112.2382              3113.1930              3117.4764
 Red. masses --      1.0972                 1.0997                 1.0897
 Frc consts  --      6.2616                 6.2799                 6.2398
 IR Inten    --     28.7028                14.5059                21.5258

                     49                     50                     51
                      A                      A                      A
 Frequencies --   3124.4402              3134.7444              3156.4857
 Red. masses --      1.0904                 1.0939                 1.0982
 Frc consts  --      6.2716                 6.3336                 6.4468
 IR Inten    --     50.7012                43.0045                16.0945

 - Thermochemistry -
 -------------------
 Temperature   298.150 Kelvin.  Pressure   1.00000 Atm.
 Atom     1 has atomic number  6 and mass  12.00000

 Molecular mass:   126.06808 amu.
 Principal axes and moments of inertia in atomic units:
                           1         2         3
     Eigenvalues --   511.613841326.706651542.16563
           X            0.99983   0.00784   0.01695
           Y           -0.00805   0.99989   0.01275
           Z           -0.01685  -0.01288   0.99977
 This molecule is an asymmetric top.
 Rotational symmetry number  1.
 Warning -- assumption of classical behavior for rotation
           may cause significant error
 Rotational temperatures (Kelvin)      0.16930     0.06528     0.05616
 Rotational constants (GHZ):           3.52755     1.36032     1.17026
 Zero-point vibrational energy     412401.2 (Joules/Mol)
                                   98.56625 (Kcal/Mol)
 Warning -- explicit consideration of  10 degrees of freedom as
           vibrations may cause significant error
 Vibrational temperatures:    111.96   235.34   282.63   295.29   345.05
          (Kelvin)            426.82   531.81   605.91   788.03   853.41
                              910.45  1105.96  1151.89  1160.58  1203.36
                             1265.56  1291.61  1296.47  1338.22  1396.29
                             1479.48  1566.32  1583.76  1598.25  1608.45
                             1646.41  1664.99  1693.82  1698.32  1706.08
                             1714.29  1748.94  1793.14  1908.24  1929.98
                             2028.60  2121.82  2134.58  2143.49  2164.83
                             2172.75  4297.64  4366.93  4376.04  4467.63
                             4477.81  4479.18  4485.35  4495.37  4510.19
                             4541.47

 Zero-point correction=                           0.157075 (Hartree/Particle)
 Thermal correction to Energy=                    0.165370
 Thermal correction to Enthalpy=                  0.166314
 Thermal correction to Gibbs Free Energy=         0.124285
 Sum of electronic and zero-point Energies=           -422.917802
 Sum of electronic and thermal Energies=              -422.909508
 Sum of electronic and thermal Enthalpies=            -422.908563
 Sum of electronic and thermal Free Energies=         -422.950593

                     E (Thermal)             CV                S
                      KCal/Mol        Cal/Mol-Kelvin    Cal/Mol-Kelvin
 Total                  103.771             31.968             88.458
 Electronic               0.000              0.000              0.000
 Translational            0.889              2.981             40.409
 Rotational               0.889              2.981             28.439
 Vibrational            101.994             26.007             19.610
 Vibration     1          0.599              1.964              3.945
 Vibration     2          0.623              1.887              2.508
 Vibration     3          0.636              1.845              2.166
 Vibration     4          0.640              1.832              2.086
 Vibration     5          0.657              1.780              1.804
 Vibration     6          0.690              1.680              1.436
 Vibration     7          0.742              1.535              1.081
 Vibration     8          0.784              1.424              0.888
 Vibration     9          0.903              1.145              0.549
 Vibration    10          0.951              1.046              0.462

 Normal termination of Gaussian 09 at Tue Jan 28 09:13:27 2020.
