 Gaussian 09, Revision D.01,
 Gaussian 09:  ES64L-G09RevD.01 24-Apr-2013

 -----------------------------
 # b3lyp 6-31G(2df,p) opt Freq
 -----------------------------

 -----
 titel
 -----
 Symbolic Z-matrix:
 Charge =  0 Multiplicity = 1

 SCF Done:  E(RB3LYP) =  -423.130266632     A.U. after   14 cycles
 Optimization completed.
    -- Stationary point found.
 Normal termination of Gaussian 09 at Mon Jan 27 18:50:04 2020.

 ----------------------------------------------------------------------
 #N Geom=AllCheck Guess=TCheck SCRF=Check GenChk RB3LYP/6-31G(2df,p) Fr
 eq
 ----------------------------------------------------------------------

 Structure from the checkpoint file:  "/scratch/puck/g09_90b1aba5-7dd1-4c39-ad93-706e6e6cf598/Gau-172610.chk"
 -----
 titel
 -----
 Charge =  0 Multiplicity = 1

                         Standard orientation:
 ---------------------------------------------------------------------
 Center     Atomic      Atomic             Coordinates (Angstroms)
 Number     Number       Type             X           Y           Z
 ---------------------------------------------------------------------
      1          6           0       -0.343052    2.025293   -0.504836
      2          6           0       -0.390872    0.576276   -0.100640
      3          8           0       -1.214677    0.353165    1.072446
      4          6           0       -2.013727   -0.641852    0.391661
      5          6           0       -1.102658   -0.612000   -0.840990
      6          6           0        0.179875   -1.480927   -0.688537
      7          6           0        0.888577   -0.273618   -0.053094
      8          6           0        2.284469    0.150498   -0.195762
      9          8           0        1.764302   -0.327871    1.051246
     10          1           0        0.143361    2.615323    0.280238
     11          1           0        0.219641    2.158016   -1.434107
     12          1           0       -1.353194    2.420818   -0.644968
     13          1           0       -2.060771   -1.588759    0.943236
     14          1           0       -3.035118   -0.278372    0.217914
     15          1           0       -1.551580   -0.533380   -1.829514
     16          1           0        0.071165   -2.344271   -0.026239
     17          1           0        0.620936   -1.813979   -1.631292
     18          1           0        2.995465   -0.509404   -0.692570
     19          1           0        2.537425    1.209643   -0.219043
 ---------------------------------------------------------------------

 SCF Done:  E(RB3LYP) =  -423.130266632     A.U. after    1 cycles

 The electronic state is 1-A.
 Alpha  occ. eigenvalues --  -19.15132 -19.13095 -10.23908 -10.23842 -10.23344
 Alpha  occ. eigenvalues --  -10.23026 -10.19544 -10.18969 -10.18129  -1.07443
 Alpha  occ. eigenvalues --   -1.03678  -0.82216  -0.74823  -0.69232  -0.66234
 Alpha  occ. eigenvalues --   -0.63066  -0.59438  -0.51889  -0.49771  -0.49343
 Alpha  occ. eigenvalues --   -0.47853  -0.45695  -0.43566  -0.41641  -0.40777
 Alpha  occ. eigenvalues --   -0.39479  -0.38621  -0.35018  -0.34248  -0.32649
 Alpha  occ. eigenvalues --   -0.29263  -0.28527  -0.26882  -0.23978
 Alpha virt. eigenvalues --    0.05764   0.09236   0.09441   0.11113   0.11378
 Alpha virt. eigenvalues --    0.12613   0.13451   0.14457   0.14953   0.16311
 Alpha virt. eigenvalues --    0.17331   0.18233   0.18712   0.20340   0.22333

 Mulliken charges:
               1
     1  C   -0.491967
     2  C    0.359092
     3  O   -0.321516
     4  C   -0.082004
     5  C   -0.134839
     6  C   -0.345520
     7  C    0.423847
     8  C   -0.263318
     9  O   -0.260218
    10  H    0.137675
    11  H    0.116968
    12  H    0.125246
    13  H    0.103505
    14  H    0.099428
    15  H    0.079441
    16  H    0.117067
    17  H    0.109044
    18  H    0.113009
    19  H    0.115061
 Sum of Mulliken charges =   0.00000

 Dipole moment (field-independent basis, Debye):
    X=             -0.3370    Y=             -0.1232    Z=             -3.1065  Tot=              3.1272
 Quadrupole moment (field-independent basis, Debye-Ang):
   XX=            -50.7601   YY=            -50.7818   ZZ=            -56.6691
   XY=              2.3695   XZ=             -1.7895   YZ=             -0.3737

  Exact polarizability:  87.037   3.864  75.961  -2.733  -0.050  62.587
 Approx polarizability: 116.163   5.795 104.579  -2.389   0.292 102.088

                      1                      2                      3
                      A                      A                      A
 Frequencies --     66.7671               191.6576               207.4517
 Red. masses --      3.0588                 3.5534                 1.5514
 Frc consts  --      0.0080                 0.0769                 0.0393
 IR Inten    --      0.3960                 0.4232                 0.5252

                      4                      5                      6
                      A                      A                      A
 Frequencies --    225.9788               256.2477               324.7687
 Red. masses --      1.8226                 2.3536                 2.6090
 Frc consts  --      0.0548                 0.0911                 0.1621
 IR Inten    --      1.6663                 1.2446                 2.5983

                      7                      8                      9
                      A                      A                      A
 Frequencies --    381.8929               410.5231               484.8094
 Red. masses --      2.1559                 2.8817                 3.1902
 Frc consts  --      0.1853                 0.2861                 0.4418
 IR Inten    --      2.0663                 1.5559                 4.6734

                     10                     11                     12
                      A                      A                      A
 Frequencies --    551.3120               642.2147               764.5508
 Red. masses --      4.9190                 3.3732                 2.9168
 Frc consts  --      0.8809                 0.8197                 1.0045
 IR Inten    --     11.0544                 2.7748                 3.9096

                     13                     14                     15
                      A                      A                      A
 Frequencies --    809.7132               844.6029               868.2830
 Red. masses --      2.4895                 1.9851                 2.3870
 Frc consts  --      0.9617                 0.8343                 1.0603
 IR Inten    --      2.3727                 2.2715                20.6262

                     16                     17                     18
                      A                      A                      A
 Frequencies --    883.2765               908.7665               920.8808
 Red. masses --      1.6165                 2.5957                 2.4421
 Frc consts  --      0.7430                 1.2630                 1.2202
 IR Inten    --      1.5216                12.6342                17.2296

                     19                     20                     21
                      A                      A                      A
 Frequencies --    961.4416              1009.7302              1029.3776
 Red. masses --      2.2285                 7.9876                 1.9305
 Frc consts  --      1.2137                 4.7982                 1.2052
 IR Inten    --     19.5184                91.4174                 0.0702

                     22                     23                     24
                      A                      A                      A
 Frequencies --   1089.3002              1104.9542              1123.4203
 Red. masses --      2.0739                 1.6526                 1.8013
 Frc consts  --      1.4499                 1.1888                 1.3395
 IR Inten    --     14.2517                 0.9779                12.4301

                     25                     26                     27
                      A                      A                      A
 Frequencies --   1130.6809              1147.5845              1152.4196
 Red. masses --      1.5587                 1.4039                 1.8196
 Frc consts  --      1.1740                 1.0893                 1.4238
 IR Inten    --      1.0011                 2.5436                 9.2485

                     28                     29                     30
                      A                      A                      A
 Frequencies --   1164.9612              1184.0064              1204.1801
 Red. masses --      1.4435                 1.4811                 2.2988
 Frc consts  --      1.1543                 1.2233                 1.9640
 IR Inten    --      2.0182                 6.3615                15.3682

                     31                     32                     33
                      A                      A                      A
 Frequencies --   1248.9264              1294.6056              1319.6697
 Red. masses --      1.5857                 2.0467                 2.2093
 Frc consts  --      1.4573                 2.0211                 2.2669
 IR Inten    --      4.1750                 6.4226                 3.7177

                     34                     35                     36
                      A                      A                      A
 Frequencies --   1352.4529              1406.0616              1423.1616
 Red. masses --      1.5076                 1.3859                 2.3953
 Frc consts  --      1.6247                 1.6143                 2.8584
 IR Inten    --      2.0987                 9.3745                15.4181

                     37                     38                     39
                      A                      A                      A
 Frequencies --   1473.7191              1480.8660              1489.1480
 Red. masses --      1.1177                 1.0589                 1.0793
 Frc consts  --      1.4302                 1.3681                 1.4102
 IR Inten    --      4.9811                 4.9188                 1.9186

                     40                     41                     42
                      A                      A                      A
 Frequencies --   1523.2388              1530.8494              3006.5642
 Red. masses --      1.1007                 1.4840                 1.0568
 Frc consts  --      1.5047                 2.0491                 5.6283
 IR Inten    --      0.8640                 6.4965                87.7160

                     43                     44                     45
                      A                      A                      A
 Frequencies --   3033.3306              3052.5786              3058.5212
 Red. masses --      1.0353                 1.1078                 1.0595
 Frc consts  --      5.6126                 6.0820                 5.8396
 IR Inten    --     13.0430                30.8514                30.1035

                     46                     47                     48
                      A                      A                      A
 Frequencies --   3077.1917              3102.5116              3109.4099
 Red. masses --      1.0499                 1.1001                 1.1067
 Frc consts  --      5.8574                 6.2390                 6.3043
 IR Inten    --     24.9083                12.6090                 8.1721

                     49                     50                     51
                      A                      A                      A
 Frequencies --   3114.5668              3128.6908              3164.2605
 Red. masses --      1.1019                 1.0912                 1.1192
 Frc consts  --      6.2979                 6.2932                 6.6026
 IR Inten    --     21.4463                33.1424                22.4112

 - Thermochemistry -
 -------------------
 Temperature   298.150 Kelvin.  Pressure   1.00000 Atm.
 Atom     1 has atomic number  6 and mass  12.00000

 Molecular mass:   126.06808 amu.
 Principal axes and moments of inertia in atomic units:
                           1         2         3
     Eigenvalues --   679.909591113.748521325.19939
           X            0.99964   0.02189  -0.01551
           Y           -0.02228   0.99944  -0.02501
           Z            0.01495   0.02534   0.99957
 This molecule is an asymmetric top.
 Rotational symmetry number  1.
 Warning -- assumption of classical behavior for rotation
           may cause significant error
 Rotational temperatures (Kelvin)      0.12739     0.07777     0.06536
 Rotational constants (GHZ):           2.65438     1.62042     1.36186
 Zero-point vibrational energy     415320.0 (Joules/Mol)
                                   99.26386 (Kcal/Mol)
 Warning -- explicit consideration of  10 degrees of freedom as
           vibrations may cause significant error
 Vibrational temperatures:     96.06   275.75   298.48   325.13   368.68
          (Kelvin)            467.27   549.46   590.65   697.53   793.21
                              924.00  1100.02  1165.00  1215.19  1249.26
                             1270.84  1307.51  1324.94  1383.30  1452.77
                             1481.04  1567.26  1589.78  1616.35  1626.80
                             1651.12  1658.07  1676.12  1703.52  1732.54
                             1796.92  1862.65  1898.71  1945.88  2023.01
                             2047.61  2120.35  2130.63  2142.55  2191.60
                             2202.55  4325.77  4364.28  4391.97  4400.52
                             4427.39  4463.82  4473.74  4481.16  4501.48
                             4552.66

 Zero-point correction=                           0.158187 (Hartree/Particle)
 Thermal correction to Energy=                    0.166357
 Thermal correction to Enthalpy=                  0.167301
 Thermal correction to Gibbs Free Energy=         0.125523
 Sum of electronic and zero-point Energies=           -422.972080
 Sum of electronic and thermal Energies=              -422.963909
 Sum of electronic and thermal Enthalpies=            -422.962965
 Sum of electronic and thermal Free Energies=         -423.004744

                     E (Thermal)             CV                S
                      KCal/Mol        Cal/Mol-Kelvin    Cal/Mol-Kelvin
 Total                  104.391             31.576             87.930
 Electronic               0.000              0.000              0.000
 Translational            0.889              2.981             40.409
 Rotational               0.889              2.981             28.397
 Vibrational            102.613             25.614             19.124
 Vibration     1          0.598              1.970              4.246
 Vibration     2          0.634              1.851              2.212
 Vibration     3          0.641              1.829              2.066
 Vibration     4          0.650              1.801              1.911
 Vibration     5          0.666              1.752              1.687
 Vibration     6          0.709              1.626              1.286
 Vibration     7          0.751              1.509              1.032
 Vibration     8          0.775              1.447              0.925
 Vibration     9          0.841              1.284              0.697
 Vibration    10          0.907              1.137              0.541

 Optimization completed.
    -- Stationary point found.
 Normal termination of Gaussian 09 at Mon Jan 27 19:33:06 2020.
