 Gaussian 09, Revision D.01,
 Gaussian 09:  ES64L-G09RevD.01 24-Apr-2013

 -----------------------------
 # b3lyp 6-31G(2df,p) opt Freq
 -----------------------------

 -----
 titel
 -----
 Symbolic Z-matrix:
 Charge =  0 Multiplicity = 1

 SCF Done:  E(RB3LYP) =  -423.120820896     A.U. after   14 cycles
 Optimization completed.
    -- Stationary point found.
 Normal termination of Gaussian 09 at Tue Jan 28 09:01:04 2020.

 ----------------------------------------------------------------------
 #N Geom=AllCheck Guess=TCheck SCRF=Check GenChk RB3LYP/6-31G(2df,p) Fr
 eq
 ----------------------------------------------------------------------

 Structure from the checkpoint file:  "/scratch/puck/g09_53d14a9b-85db-4678-b7e5-ce4b855993e9/Gau-15940.chk"
 -----
 titel
 -----
 Charge =  0 Multiplicity = 1

                         Standard orientation:
 ---------------------------------------------------------------------
 Center     Atomic      Atomic             Coordinates (Angstroms)
 Number     Number       Type             X           Y           Z
 ---------------------------------------------------------------------
      1          6           0       -0.998716    2.088305    0.130846
      2          8           0       -0.254268    1.114419   -0.583370
      3          6           0       -0.353502   -0.221615   -0.081916
      4          6           0        0.559133   -0.419606    1.176610
      5          6           0        1.734856   -0.754637    0.211350
      6          8           0        2.578282    0.335009   -0.078624
      7          6           0        0.679267   -1.059018   -0.890135
      8          6           0       -1.729000   -0.695980   -0.019940
      9          6           0       -2.857088   -1.108835    0.039824
     10          1           0       -0.687158    2.157246    1.182188
     11          1           0       -0.805469    3.044861   -0.359182
     12          1           0       -2.072856    1.871977    0.095916
     13          1           0        0.692998    0.447316    1.827179
     14          1           0        0.242695   -1.279593    1.771374
     15          1           0        2.387144   -1.578451    0.507067
     16          1           0        2.007309    1.047582   -0.394178
     17          1           0        0.888969   -0.689464   -1.895884
     18          1           0        0.397450   -2.113084   -0.926138
     19          1           0       -3.852896   -1.475499    0.087778
 ---------------------------------------------------------------------

 SCF Done:  E(RB3LYP) =  -423.120820896     A.U. after    1 cycles

 The electronic state is 1-A.
 Alpha  occ. eigenvalues --  -19.15865 -19.12755 -10.26528 -10.23309 -10.22933
 Alpha  occ. eigenvalues --  -10.18747 -10.18600 -10.18534 -10.18385  -1.04842
 Alpha  occ. eigenvalues --   -1.01249  -0.84059  -0.75498  -0.70557  -0.67239
 Alpha  occ. eigenvalues --   -0.64545  -0.58870  -0.53816  -0.51247  -0.50107
 Alpha  occ. eigenvalues --   -0.46285  -0.46189  -0.44291  -0.41974  -0.41277
 Alpha  occ. eigenvalues --   -0.38595  -0.36442  -0.35114  -0.34010  -0.31367
 Alpha  occ. eigenvalues --   -0.27992  -0.27454  -0.26246  -0.25261
 Alpha virt. eigenvalues --    0.02985   0.03889   0.08666   0.09513   0.11900
 Alpha virt. eigenvalues --    0.12659   0.13164   0.13936   0.15282   0.16513
 Alpha virt. eigenvalues --    0.16672   0.17722   0.19749   0.20227   0.21559

 Mulliken charges:
               1
     1  C   -0.259438
     2  O   -0.290593
     3  C    0.202300
     4  C   -0.295646
     5  C    0.141414
     6  O   -0.441978
     7  C   -0.282935
     8  C    0.276650
     9  C   -0.444143
    10  H    0.112294
    11  H    0.131370
    12  H    0.129622
    13  H    0.110347
    14  H    0.113664
    15  H    0.083489
    16  H    0.283995
    17  H    0.117994
    18  H    0.114969
    19  H    0.196624
 Sum of Mulliken charges =   0.00000

 Dipole moment (field-independent basis, Debye):
    X=             -2.0065    Y=             -0.0905    Z=              0.7254  Tot=              2.1355
 Quadrupole moment (field-independent basis, Debye-Ang):
   XX=            -56.0002   YY=            -48.1236   ZZ=            -53.9058
   XY=             -0.4961   XZ=             -0.6792   YZ=              0.2750

  Exact polarizability:  96.049   5.180  76.577  -0.702  -0.020  61.609
 Approx polarizability: 140.943  14.282 107.702  -2.787  -2.130  92.563

                      1                      2                      3
                      A                      A                      A
 Frequencies --    100.3777               127.9073               144.3437
 Red. masses --      4.1231                 2.2524                 3.8762
 Frc consts  --      0.0245                 0.0217                 0.0476
 IR Inten    --      0.8527                 1.6573                 0.1111

                      4                      5                      6
                      A                      A                      A
 Frequencies --    170.6628               208.8773               268.2433
 Red. masses --      1.8776                 1.8344                 3.1168
 Frc consts  --      0.0322                 0.0472                 0.1321
 IR Inten    --      0.6643                 3.9718                 5.4797

                      7                      8                      9
                      A                      A                      A
 Frequencies --    345.3006               382.4991               412.8709
 Red. masses --      4.9981                 3.2927                 1.9224
 Frc consts  --      0.3511                 0.2838                 0.1931
 IR Inten    --      1.3215                 1.0033                 2.7232

                     10                     11                     12
                      A                      A                      A
 Frequencies --    440.3847               506.1082               538.2663
 Red. masses --      2.1507                 1.1527                 4.6672
 Frc consts  --      0.2458                 0.1740                 0.7967
 IR Inten    --      3.0143                80.9180                 5.6330

                     13                     14                     15
                      A                      A                      A
 Frequencies --    547.4676               622.4562               624.1527
 Red. masses --      3.8410                 2.0323                 1.9482
 Frc consts  --      0.6783                 0.4639                 0.4472
 IR Inten    --      5.6358                19.5767                27.1407

                     16                     17                     18
                      A                      A                      A
 Frequencies --    671.5474               798.1824               827.9756
 Red. masses --      1.2612                 1.8485                 3.3090
 Frc consts  --      0.3351                 0.6939                 1.3365
 IR Inten    --     32.8171                 1.3067                 7.7369

                     19                     20                     21
                      A                      A                      A
 Frequencies --    842.3658               913.8463               944.6489
 Red. masses --      2.7123                 3.0554                 2.4565
 Frc consts  --      1.1340                 1.5034                 1.2915
 IR Inten    --     17.0101                 6.9748                 5.1395

                     22                     23                     24
                      A                      A                      A
 Frequencies --    973.3758              1042.1408              1076.9842
 Red. masses --      2.1497                 2.4077                 1.7190
 Frc consts  --      1.2000                 1.5407                 1.1747
 IR Inten    --      9.8370                12.6062                33.2553

                     25                     26                     27
                      A                      A                      A
 Frequencies --   1096.3612              1138.2994              1164.1541
 Red. masses --      2.8153                 1.8655                 4.3946
 Frc consts  --      1.9938                 1.4241                 3.5090
 IR Inten    --     49.1363               157.2944                84.9829

                     28                     29                     30
                      A                      A                      A
 Frequencies --   1185.1958              1204.7653              1217.4362
 Red. masses --      1.3130                 1.5500                 1.4820
 Frc consts  --      1.0867                 1.3255                 1.2942
 IR Inten    --      4.3341                 3.9759                 4.8194

                     31                     32                     33
                      A                      A                      A
 Frequencies --   1240.8740              1261.8585              1280.5219
 Red. masses --      1.7631                 1.4325                 2.0575
 Frc consts  --      1.5995                 1.3439                 1.9878
 IR Inten    --     15.0235                 2.8180                25.9999

                     34                     35                     36
                      A                      A                      A
 Frequencies --   1336.4297              1446.1497              1451.5475
 Red. masses --      1.4758                 1.0907                 1.1811
 Frc consts  --      1.5530                 1.3440                 1.4662
 IR Inten    --      2.2359                 5.9406                65.7098

                     37                     38                     39
                      A                      A                      A
 Frequencies --   1469.3360              1479.8720              1487.0059
 Red. masses --      1.1500                 1.1566                 1.0473
 Frc consts  --      1.4628                 1.4923                 1.3644
 IR Inten    --      9.7761                13.3669                 4.9783

                     40                     41                     42
                      A                      A                      A
 Frequencies --   1511.2538              2228.0424              3005.1961
 Red. masses --      1.0534                 5.9403                 1.0372
 Frc consts  --      1.4174                17.3742                 5.5190
 IR Inten    --     10.0689                 1.1988                41.2487

                     43                     44                     45
                      A                      A                      A
 Frequencies --   3067.8056              3071.2099              3075.2076
 Red. masses --      1.0656                 1.0903                 1.0596
 Frc consts  --      5.9088                 6.0590                 5.9039
 IR Inten    --     18.4631                39.8647                 5.2801

                     46                     47                     48
                      A                      A                      A
 Frequencies --   3096.5232              3126.8806              3131.6508
 Red. masses --      1.0881                 1.1007                 1.1084
 Frc consts  --      6.1473                 6.3407                 6.4047
 IR Inten    --     43.5957                21.8856                15.6647

                     49                     50                     51
                      A                      A                      A
 Frequencies --   3141.2166              3499.2741              3766.5546
 Red. masses --      1.1090                 1.1616                 1.0653
 Frc consts  --      6.4476                 8.3803                 8.9048
 IR Inten    --     12.3891                69.0171                39.6460

 - Thermochemistry -
 -------------------
 Temperature   298.150 Kelvin.  Pressure   1.00000 Atm.
 Atom     1 has atomic number  6 and mass  12.00000

 Molecular mass:   126.06808 amu.
 Principal axes and moments of inertia in atomic units:
                           1         2         3
     Eigenvalues --   689.430151347.548081712.59265
           X            0.99960  -0.02818  -0.00388
           Y            0.02826   0.99938   0.02081
           Z            0.00329  -0.02091   0.99978
 This molecule is an asymmetric top.
 Rotational symmetry number  1.
 Warning -- assumption of classical behavior for rotation
           may cause significant error
 Rotational temperatures (Kelvin)      0.12563     0.06428     0.05057
 Rotational constants (GHZ):           2.61773     1.33928     1.05381
 Zero-point vibrational energy     410986.7 (Joules/Mol)
                                   98.22817 (Kcal/Mol)
 Warning -- explicit consideration of  13 degrees of freedom as
           vibrations may cause significant error
 Vibrational temperatures:    144.42   184.03   207.68   245.55   300.53
          (Kelvin)            385.94   496.81   550.33   594.03   633.61
                              728.18   774.44   787.68   895.57   898.02
                              966.21  1148.40  1191.27  1211.98  1314.82
                             1359.14  1400.47  1499.41  1549.54  1577.42
                             1637.76  1674.96  1705.23  1733.39  1751.62
                             1785.34  1815.53  1842.38  1922.82  2080.68
                             2088.45  2114.04  2129.20  2139.47  2174.35
                             3205.65  4323.80  4413.88  4418.78  4424.53
                             4455.20  4498.88  4505.74  4519.50  5034.67
                             5419.23

 Zero-point correction=                           0.156537 (Hartree/Particle)
 Thermal correction to Energy=                    0.165957
 Thermal correction to Enthalpy=                  0.166901
 Thermal correction to Gibbs Free Energy=         0.122731
 Sum of electronic and zero-point Energies=           -422.964284
 Sum of electronic and thermal Energies=              -422.954864
 Sum of electronic and thermal Enthalpies=            -422.953920
 Sum of electronic and thermal Free Energies=         -422.998090

                     E (Thermal)             CV                S
                      KCal/Mol        Cal/Mol-Kelvin    Cal/Mol-Kelvin
 Total                  104.139             35.810             92.965
 Electronic               0.000              0.000              0.000
 Translational            0.889              2.981             40.409
 Rotational               0.889              2.981             28.855
 Vibrational            102.362             29.849             23.701
 Vibration     1          0.604              1.949              3.447
 Vibration     2          0.611              1.925              2.977
 Vibration     3          0.616              1.909              2.745
 Vibration     4          0.626              1.879              2.428
 Vibration     5          0.642              1.827              2.053
 Vibration     6          0.673              1.732              1.608
 Vibration     7          0.724              1.585              1.188
 Vibration     8          0.752              1.508              1.029
 Vibration     9          0.777              1.442              0.917
 Vibration    10          0.800              1.382              0.825
 Vibration    11          0.861              1.236              0.643
 Vibration    12          0.893              1.165              0.569
 Vibration    13          0.903              1.145              0.549

 Optimization completed.
    -- Stationary point found.
 Normal termination of Gaussian 09 at Tue Jan 28 09:43:03 2020.
