 Gaussian 09, Revision D.01,
 Gaussian 09:  ES64L-G09RevD.01 24-Apr-2013

 -----------------------------
 # b3lyp 6-31G(2df,p) opt Freq
 -----------------------------

 -----
 titel
 -----
 Symbolic Z-matrix:
 Charge =  0 Multiplicity = 1

 SCF Done:  E(RB3LYP) =  -423.146141291     A.U. after   13 cycles
 Optimization completed.
    -- Stationary point found.
 Normal termination of Gaussian 09 at Tue Jan 28 01:55:00 2020.

 ----------------------------------------------------------------------
 #N Geom=AllCheck Guess=TCheck SCRF=Check GenChk RB3LYP/6-31G(2df,p) Fr
 eq
 ----------------------------------------------------------------------

 Structure from the checkpoint file:  "/scratch/puck/g09_ba945694-3fee-469b-96e0-87697a201809/Gau-122262.chk"
 -----
 titel
 -----
 Charge =  0 Multiplicity = 1

                         Standard orientation:
 ---------------------------------------------------------------------
 Center     Atomic      Atomic             Coordinates (Angstroms)
 Number     Number       Type             X           Y           Z
 ---------------------------------------------------------------------
      1          6           0        2.772628    0.662691    0.250776
      2          6           0        1.692447   -0.370845    0.439807
      3          8           0        1.243841   -1.068739   -0.737290
      4          6           0        0.328385   -0.212025   -0.070061
      5          6           0       -0.289844    1.003524   -0.788969
      6          6           0       -1.745369    0.737011   -0.340578
      7          6           0       -1.621403    0.433586    1.170895
      8          6           0       -0.937803   -0.804430    0.544851
      9          8           0       -1.876484   -0.701782   -0.575059
     10          1           0        3.744426    0.178449    0.109502
     11          1           0        2.571139    1.285710   -0.623756
     12          1           0        2.845685    1.307983    1.133296
     13          1           0        1.832708   -1.027293    1.302182
     14          1           0        0.102616    1.967735   -0.453869
     15          1           0       -0.177813    0.922380   -1.871998
     16          1           0       -2.547431    1.334323   -0.772642
     17          1           0       -1.038714    1.104163    1.808580
     18          1           0       -2.582773    0.182144    1.619037
     19          1           0       -0.882943   -1.788501    1.008125
 ---------------------------------------------------------------------

 SCF Done:  E(RB3LYP) =  -423.146141291     A.U. after    1 cycles

 The electronic state is 1-A.
 Alpha  occ. eigenvalues --  -19.14449 -19.13424 -10.24272 -10.23921 -10.23822
 Alpha  occ. eigenvalues --  -10.23730 -10.19389 -10.18802 -10.18549  -1.07139
 Alpha  occ. eigenvalues --   -1.04559  -0.79164  -0.74669  -0.71825  -0.69395
 Alpha  occ. eigenvalues --   -0.61359  -0.56462  -0.54966  -0.52419  -0.49036
 Alpha  occ. eigenvalues --   -0.45514  -0.44475  -0.43128  -0.42096  -0.40704
 Alpha  occ. eigenvalues --   -0.39225  -0.37353  -0.35829  -0.35256  -0.32973
 Alpha  occ. eigenvalues --   -0.32197  -0.28812  -0.27162  -0.23990
 Alpha virt. eigenvalues --    0.08384   0.09607   0.10560   0.11393   0.11926
 Alpha virt. eigenvalues --    0.13154   0.13497   0.14562   0.15783   0.16021
 Alpha virt. eigenvalues --    0.17058   0.17298   0.17755   0.19127   0.20587

 Mulliken charges:
               1
     1  C   -0.419568
     2  C   -0.048101
     3  O   -0.306885
     4  C    0.494773
     5  C   -0.324091
     6  C    0.070604
     7  C   -0.236675
     8  C   -0.017689
     9  O   -0.295040
    10  H    0.131805
    11  H    0.129249
    12  H    0.120322
    13  H    0.085576
    14  H    0.103926
    15  H    0.127230
    16  H    0.084966
    17  H    0.096115
    18  H    0.116001
    19  H    0.087480
 Sum of Mulliken charges =   0.00000

 Dipole moment (field-independent basis, Debye):
    X=              0.5172    Y=              2.2790    Z=              2.2071  Tot=              3.2144
 Quadrupole moment (field-independent basis, Debye-Ang):
   XX=            -52.8788   YY=            -53.5369   ZZ=            -53.0525
   XY=             -1.1287   XZ=              0.3274   YZ=             -3.7777

  Exact polarizability:  88.078  -0.996  68.538   1.655  -3.271  67.483
 Approx polarizability: 114.329  -1.364 106.459   5.297   0.629 105.251

                      1                      2                      3
                      A                      A                      A
 Frequencies --    113.9151               163.8932               199.2770
 Red. masses --      3.1734                 2.3232                 1.2304
 Frc consts  --      0.0243                 0.0368                 0.0288
 IR Inten    --      0.0406                 0.0440                 0.0864

                      4                      5                      6
                      A                      A                      A
 Frequencies --    240.7560               366.5723               403.3029
 Red. masses --      2.8849                 3.8154                 2.1902
 Frc consts  --      0.0985                 0.3021                 0.2099
 IR Inten    --      0.8320                 1.8507                 0.1349

                      7                      8                      9
                      A                      A                      A
 Frequencies --    449.6909               490.7936               541.7334
 Red. masses --      3.0357                 3.0372                 3.0674
 Frc consts  --      0.3617                 0.4310                 0.5304
 IR Inten    --      4.7378                 4.0335                 0.9787

                     10                     11                     12
                      A                      A                      A
 Frequencies --    597.2287               765.3662               794.2009
 Red. masses --      4.5689                 3.6261                 2.7450
 Frc consts  --      0.9602                 1.2515                 1.0201
 IR Inten    --     22.3895                14.2512                 1.5294

                     13                     14                     15
                      A                      A                      A
 Frequencies --    827.1404               843.9486               873.5621
 Red. masses --      2.9239                 3.1401                 2.7776
 Frc consts  --      1.1786                 1.3177                 1.2488
 IR Inten    --      0.4817                16.9673                24.7818

                     16                     17                     18
                      A                      A                      A
 Frequencies --    897.8205               908.4148               947.0299
 Red. masses --      2.7345                 2.8070                 2.7800
 Frc consts  --      1.2987                 1.3648                 1.4690
 IR Inten    --      9.9504                14.8988                22.7796

                     19                     20                     21
                      A                      A                      A
 Frequencies --    977.5567               999.3445              1018.9808
 Red. masses --      1.7082                 1.5324                 1.9334
 Frc consts  --      0.9618                 0.9017                 1.1828
 IR Inten    --     12.3204                24.8732                 4.4744

                     22                     23                     24
                      A                      A                      A
 Frequencies --   1027.7375              1058.4809              1092.3795
 Red. masses --      2.0867                 2.4794                 1.3002
 Frc consts  --      1.2986                 1.6367                 0.9141
 IR Inten    --     11.2234                12.4789                 1.3646

                     25                     26                     27
                      A                      A                      A
 Frequencies --   1122.6722              1150.9373              1170.1943
 Red. masses --      2.0556                 1.4697                 1.9478
 Frc consts  --      1.5265                 1.1470                 1.5715
 IR Inten    --      4.5744                 5.4761                 5.4108

                     28                     29                     30
                      A                      A                      A
 Frequencies --   1196.4847              1206.4245              1223.8340
 Red. masses --      1.5033                 1.9176                 1.4757
 Frc consts  --      1.2680                 1.6444                 1.3023
 IR Inten    --      6.1208                 7.8654                 3.2578

                     31                     32                     33
                      A                      A                      A
 Frequencies --   1249.3280              1275.6795              1302.2523
 Red. masses --      1.5562                 1.6695                 1.4164
 Frc consts  --      1.4311                 1.6007                 1.4153
 IR Inten    --     12.2150                 0.9876                 7.9515

                     34                     35                     36
                      A                      A                      A
 Frequencies --   1311.3302              1363.9939              1409.2940
 Red. masses --      1.6239                 1.3761                 1.2694
 Frc consts  --      1.6453                 1.5084                 1.4855
 IR Inten    --      5.1462                 8.0880                 4.7296

                     37                     38                     39
                      A                      A                      A
 Frequencies --   1469.1278              1476.3475              1487.0067
 Red. masses --      1.1607                 1.1598                 1.1139
 Frc consts  --      1.4760                 1.4895                 1.4511
 IR Inten    --      3.7654                 1.3521                 0.6344

                     40                     41                     42
                      A                      A                      A
 Frequencies --   1492.5034              1527.0403              3036.6050
 Red. masses --      1.0842                 2.8872                 1.0367
 Frc consts  --      1.4229                 3.9667                 5.6325
 IR Inten    --      7.2954                11.3020                17.8300

                     43                     44                     45
                      A                      A                      A
 Frequencies --   3061.7597              3065.9992              3075.8430
 Red. masses --      1.0608                 1.0598                 1.0862
 Frc consts  --      5.8590                 5.8699                 6.0547
 IR Inten    --     19.8140                25.4996                24.7758

                     46                     47                     48
                      A                      A                      A
 Frequencies --   3099.2595              3122.9246              3129.1924
 Red. masses --      1.1004                 1.1044                 1.0976
 Frc consts  --      6.2276                 6.3459                 6.3322
 IR Inten    --     17.5941                12.6110                57.3831

                     49                     50                     51
                      A                      A                      A
 Frequencies --   3129.2567              3138.0041              3146.6526
 Red. masses --      1.0951                 1.0944                 1.1041
 Frc consts  --      6.3183                 6.3497                 6.4412
 IR Inten    --     10.1467                21.1873                25.2889

 - Thermochemistry -
 -------------------
 Temperature   298.150 Kelvin.  Pressure   1.00000 Atm.
 Atom     1 has atomic number  6 and mass  12.00000

 Molecular mass:   126.06808 amu.
 Principal axes and moments of inertia in atomic units:
                           1         2         3
     Eigenvalues --   493.242891413.971281479.56572
           X            0.99995   0.00959  -0.00250
           Y           -0.00989   0.97942  -0.20158
           Z            0.00051   0.20159   0.97947
 This molecule is an asymmetric top.
 Rotational symmetry number  1.
 Warning -- assumption of classical behavior for rotation
           may cause significant error
 Rotational temperatures (Kelvin)      0.17560     0.06126     0.05854
 Rotational constants (GHZ):           3.65893     1.27636     1.21978
 Zero-point vibrational energy     418926.7 (Joules/Mol)
                                  100.12588 (Kcal/Mol)
 Warning -- explicit consideration of  10 degrees of freedom as
           vibrations may cause significant error
 Vibrational temperatures:    163.90   235.81   286.71   346.39   527.42
          (Kelvin)            580.26   647.00   706.14   779.43   859.28
                             1101.19  1142.68  1190.07  1214.25  1256.86
                             1291.76  1307.00  1362.56  1406.48  1437.83
                             1466.08  1478.68  1522.92  1571.69  1615.27
                             1655.94  1683.65  1721.47  1735.77  1760.82
                             1797.50  1835.42  1873.65  1886.71  1962.48
                             2027.66  2113.74  2124.13  2139.47  2147.38
                             2197.07  4368.99  4405.18  4411.28  4425.45
                             4459.14  4493.19  4502.20  4502.30  4514.88
                             4527.33

 Zero-point correction=                           0.159561 (Hartree/Particle)
 Thermal correction to Energy=                    0.167201
 Thermal correction to Enthalpy=                  0.168146
 Thermal correction to Gibbs Free Energy=         0.127585
 Sum of electronic and zero-point Energies=           -422.986581
 Sum of electronic and thermal Energies=              -422.978940
 Sum of electronic and thermal Enthalpies=            -422.977996
 Sum of electronic and thermal Free Energies=         -423.018556

                     E (Thermal)             CV                S
                      KCal/Mol        Cal/Mol-Kelvin    Cal/Mol-Kelvin
 Total                  104.920             30.411             85.367
 Electronic               0.000              0.000              0.000
 Translational            0.889              2.981             40.409
 Rotational               0.889              2.981             28.425
 Vibrational            103.143             24.449             16.534
 Vibration     1          0.607              1.938              3.201
 Vibration     2          0.623              1.887              2.504
 Vibration     3          0.637              1.841              2.140
 Vibration     4          0.658              1.778              1.797
 Vibration     5          0.739              1.541              1.094
 Vibration     6          0.769              1.463              0.951
 Vibration     7          0.809              1.362              0.797
 Vibration     8          0.847              1.270              0.682
 Vibration     9          0.897              1.158              0.562
 Vibration    10          0.955              1.038              0.454

 Optimization completed.
    -- Stationary point found.
 Normal termination of Gaussian 09 at Tue Jan 28 02:43:02 2020.
