 Gaussian 09, Revision D.01,
 Gaussian 09:  ES64L-G09RevD.01 24-Apr-2013

 -----------------------------
 # b3lyp 6-31G(2df,p) opt Freq
 -----------------------------

 -----
 titel
 -----
 Symbolic Z-matrix:
 Charge =  0 Multiplicity = 1

 SCF Done:  E(RB3LYP) =  -423.174148244     A.U. after   14 cycles
 Optimization completed.
    -- Stationary point found.
 Normal termination of Gaussian 09 at Tue Jan 28 13:29:57 2020.

 ----------------------------------------------------------------------
 #N Geom=AllCheck Guess=TCheck SCRF=Check GenChk RB3LYP/6-31G(2df,p) Fr
 eq
 ----------------------------------------------------------------------

 Structure from the checkpoint file:  "/scratch/puck/g09_4ac4d66f-d2c8-4465-bc75-e0a0deb9e500/Gau-118581.chk"
 -----
 titel
 -----
 Charge =  0 Multiplicity = 1

                         Standard orientation:
 ---------------------------------------------------------------------
 Center     Atomic      Atomic             Coordinates (Angstroms)
 Number     Number       Type             X           Y           Z
 ---------------------------------------------------------------------
      1          6           0       -3.109762   -0.736431    0.082959
      2          6           0       -2.051392    0.319144    0.416826
      3          6           0       -0.857833    0.260763   -0.522893
      4          8           0       -0.090669   -0.977675   -0.415149
      5          6           0        1.103686   -0.285305   -0.048013
      6          6           0        2.108127   -0.800100    0.942123
      7          6           0        2.478816   -0.669232   -0.515276
      8          6           0        0.408121    1.038743   -0.116895
      9          8           0        0.698530    2.182670    0.075037
     10          1           0       -3.943542   -0.691154    0.789543
     11          1           0       -3.513644   -0.587667   -0.924396
     12          1           0       -2.677669   -1.739988    0.127631
     13          1           0       -2.475824    1.328594    0.352652
     14          1           0       -1.698470    0.186718    1.446224
     15          1           0       -1.160719    0.435768   -1.564413
     16          1           0        2.515326   -0.091208    1.655287
     17          1           0        1.925359   -1.797322    1.327189
     18          1           0        3.145968    0.130087   -0.820031
     19          1           0        2.541743   -1.579273   -1.101776
 ---------------------------------------------------------------------

 SCF Done:  E(RB3LYP) =  -423.174148244     A.U. after    1 cycles

 The electronic state is 1-A.
 Alpha  occ. eigenvalues --  -19.14925 -19.14623 -10.27531 -10.24980 -10.24204
 Alpha  occ. eigenvalues --  -10.20296 -10.20269 -10.19392 -10.17956  -1.06706
 Alpha  occ. eigenvalues --   -1.04182  -0.86411  -0.78626  -0.70873  -0.65499
 Alpha  occ. eigenvalues --   -0.61976  -0.59858  -0.52755  -0.51513  -0.47933
 Alpha  occ. eigenvalues --   -0.46739  -0.44919  -0.44521  -0.42125  -0.39522
 Alpha  occ. eigenvalues --   -0.38453  -0.37539  -0.36569  -0.35233  -0.34249
 Alpha  occ. eigenvalues --   -0.33984  -0.32719  -0.24877  -0.24574
 Alpha virt. eigenvalues --   -0.02780   0.06659   0.10392   0.10496   0.12479
 Alpha virt. eigenvalues --    0.12824   0.13643   0.14615   0.16008   0.17276
 Alpha virt. eigenvalues --    0.17692   0.18628   0.19544   0.21693   0.22392

 Mulliken charges:
               1
     1  C   -0.384251
     2  C   -0.192757
     3  C    0.020340
     4  O   -0.336181
     5  C    0.335738
     6  C   -0.323869
     7  C   -0.328007
     8  C    0.265237
     9  O   -0.305040
    10  H    0.116989
    11  H    0.116836
    12  H    0.137921
    13  H    0.115915
    14  H    0.107336
    15  H    0.106196
    16  H    0.136949
    17  H    0.136686
    18  H    0.136772
    19  H    0.137190
 Sum of Mulliken charges =   0.00000

 Dipole moment (field-independent basis, Debye):
    X=             -0.2224    Y=             -1.3124    Z=              0.0356  Tot=              1.3316
 Quadrupole moment (field-independent basis, Debye-Ang):
   XX=            -48.3208   YY=            -60.1730   ZZ=            -51.1945
   XY=             -3.3915   XZ=             -0.0215   YZ=             -1.4082

  Exact polarizability:  95.220  -3.439  74.678   1.777  -0.552  65.201
 Approx polarizability: 116.564  -3.218 119.029   3.633   0.789  98.303

                      1                      2                      3
                      A                      A                      A
 Frequencies --     65.0433                94.7253               140.9422
 Red. masses --      3.9115                 2.2247                 3.4557
 Frc consts  --      0.0097                 0.0118                 0.0404
 IR Inten    --      1.0448                 1.0800                 2.0759

                      4                      5                      6
                      A                      A                      A
 Frequencies --    175.3868               207.7332               229.5562
 Red. masses --      2.4169                 4.3045                 1.1915
 Frc consts  --      0.0438                 0.1094                 0.0370
 IR Inten    --      1.3842                 1.9040                 0.8960

                      7                      8                      9
                      A                      A                      A
 Frequencies --    301.6810               359.2033               408.6271
 Red. masses --      3.0669                 2.8328                 3.7274
 Frc consts  --      0.1645                 0.2154                 0.3667
 IR Inten    --      0.6601                 0.2265                 6.9553

                     10                     11                     12
                      A                      A                      A
 Frequencies --    518.4561               591.5053               699.3541
 Red. masses --      3.2177                 3.3630                 2.9004
 Frc consts  --      0.5096                 0.6933                 0.8358
 IR Inten    --     10.5006                 0.8040                 1.3552

                     13                     14                     15
                      A                      A                      A
 Frequencies --    739.7654               767.8906               779.4488
 Red. masses --      5.0897                 1.1294                 1.5365
 Frc consts  --      1.6411                 0.3924                 0.5500
 IR Inten    --      2.8967                 1.1078                 0.5773

                     16                     17                     18
                      A                      A                      A
 Frequencies --    836.8375               882.2571               911.1736
 Red. masses --      2.4036                 2.6323                 1.5962
 Frc consts  --      0.9917                 1.2072                 0.7808
 IR Inten    --     10.7974                 6.4932                11.8389

                     19                     20                     21
                      A                      A                      A
 Frequencies --    930.9977               952.5158               994.7939
 Red. masses --      2.4279                 2.3954                 2.6261
 Frc consts  --      1.2399                 1.2805                 1.5312
 IR Inten    --     15.4988               109.7172                 5.7856

                     22                     23                     24
                      A                      A                      A
 Frequencies --   1031.6624              1056.8254              1065.3829
 Red. masses --      3.9722                 1.6057                 1.4361
 Frc consts  --      2.4909                 1.0566                 0.9604
 IR Inten    --     58.1449                41.4273                 4.3791

                     25                     26                     27
                      A                      A                      A
 Frequencies --   1069.6908              1100.9412              1144.6580
 Red. masses --      1.8385                 1.8985                 2.1726
 Frc consts  --      1.2395                 1.3557                 1.6772
 IR Inten    --      5.1390                17.0377                 3.4413

                     28                     29                     30
                      A                      A                      A
 Frequencies --   1194.0413              1224.5693              1253.0562
 Red. masses --      1.2737                 2.0901                 1.7804
 Frc consts  --      1.0699                 1.8466                 1.6471
 IR Inten    --      0.0902                69.8226                18.1292

                     31                     32                     33
                      A                      A                      A
 Frequencies --   1280.0791              1326.8602              1358.8631
 Red. masses --      1.3134                 1.5092                 2.0307
 Frc consts  --      1.2680                 1.5655                 2.2093
 IR Inten    --      5.1346                 1.6720                 7.7949

                     34                     35                     36
                      A                      A                      A
 Frequencies --   1394.5140              1408.3046              1444.1358
 Red. masses --      1.6273                 1.2297                 1.0895
 Frc consts  --      1.8645                 1.4369                 1.3387
 IR Inten    --      9.8072                 0.9173                 2.3971

                     37                     38                     39
                      A                      A                      A
 Frequencies --   1474.3328              1480.1891              1496.9202
 Red. masses --      1.0760                 1.5082                 1.0426
 Frc consts  --      1.3780                 1.9469                 1.3764
 IR Inten    --      1.8116                 4.9854                 4.5916

                     40                     41                     42
                      A                      A                      A
 Frequencies --   1507.9736              1909.5600              3017.8234
 Red. masses --      1.0571                12.8467                 1.0826
 Frc consts  --      1.4163                27.6000                 5.8092
 IR Inten    --      4.4134               261.9602                18.5164

                     43                     44                     45
                      A                      A                      A
 Frequencies --   3033.2407              3038.0624              3072.2342
 Red. masses --      1.0592                 1.0368                 1.1017
 Frc consts  --      5.7420                 5.6380                 6.1269
 IR Inten    --     13.4710                28.9773                13.6037

                     46                     47                     48
                      A                      A                      A
 Frequencies --   3106.6768              3120.8115              3133.5738
 Red. masses --      1.1013                 1.1020                 1.0498
 Frc consts  --      6.2623                 6.3235                 6.0736
 IR Inten    --     34.3522                23.7126                 7.7394

                     49                     50                     51
                      A                      A                      A
 Frequencies --   3134.4834              3220.4950              3234.6240
 Red. masses --      1.0569                 1.1190                 1.1162
 Frc consts  --      6.1181                 6.8380                 6.8808
 IR Inten    --      3.2396                 0.1435                 3.6330

 - Thermochemistry -
 -------------------
 Temperature   298.150 Kelvin.  Pressure   1.00000 Atm.
 Atom     1 has atomic number  6 and mass  12.00000

 Molecular mass:   126.06808 amu.
 Principal axes and moments of inertia in atomic units:
                           1         2         3
     Eigenvalues --   619.539071550.228211920.20375
           X            0.99998  -0.00673  -0.00114
           Y            0.00672   0.99992  -0.01063
           Z            0.00121   0.01062   0.99994
 This molecule is an asymmetric top.
 Rotational symmetry number  1.
 Warning -- assumption of classical behavior for rotation
           may cause significant error
 Rotational temperatures (Kelvin)      0.13980     0.05587     0.04511
 Rotational constants (GHZ):           2.91304     1.16418     0.93987
 Zero-point vibrational energy     412248.0 (Joules/Mol)
                                   98.52963 (Kcal/Mol)
 Warning -- explicit consideration of  11 degrees of freedom as
           vibrations may cause significant error
 Vibrational temperatures:     93.58   136.29   202.78   252.34   298.88
          (Kelvin)            330.28   434.05   516.81   587.92   745.94
                              851.04  1006.21  1064.36  1104.82  1121.45
                             1204.02  1269.37  1310.97  1339.50  1370.46
                             1431.28  1484.33  1520.53  1532.85  1539.04
                             1584.01  1646.91  1717.96  1761.88  1802.87
                             1841.75  1909.05  1955.10  2006.39  2026.23
                             2077.79  2121.23  2129.66  2153.73  2169.63
                             2747.43  4341.97  4364.15  4371.09  4420.25
                             4469.81  4490.15  4508.51  4509.82  4633.57
                             4653.90

 Zero-point correction=                           0.157017 (Hartree/Particle)
 Thermal correction to Energy=                    0.166143
 Thermal correction to Enthalpy=                  0.167087
 Thermal correction to Gibbs Free Energy=         0.122685
 Sum of electronic and zero-point Energies=           -423.017131
 Sum of electronic and thermal Energies=              -423.008005
 Sum of electronic and thermal Enthalpies=            -423.007061
 Sum of electronic and thermal Free Energies=         -423.051463

                     E (Thermal)             CV                S
                      KCal/Mol        Cal/Mol-Kelvin    Cal/Mol-Kelvin
 Total                  104.256             33.505             93.452
 Electronic               0.000              0.000              0.000
 Translational            0.889              2.981             40.409
 Rotational               0.889              2.981             29.002
 Vibrational            102.479             27.543             24.042
 Vibration     1          0.597              1.971              4.298
 Vibration     2          0.603              1.953              3.560
 Vibration     3          0.615              1.912              2.791
 Vibration     4          0.627              1.873              2.377
 Vibration     5          0.641              1.829              2.064
 Vibration     6          0.652              1.796              1.882
 Vibration     7          0.694              1.671              1.408
 Vibration     8          0.734              1.556              1.126
 Vibration     9          0.773              1.451              0.931
 Vibration    10          0.873              1.209              0.614
 Vibration    11          0.949              1.050              0.464

 Optimization completed.
    -- Stationary point found.
 Normal termination of Gaussian 09 at Tue Jan 28 14:08:42 2020.
