 Gaussian 09, Revision D.01,
 Gaussian 09:  ES64L-G09RevD.01 24-Apr-2013

 -----------------------------
 # b3lyp 6-31G(2df,p) opt Freq
 -----------------------------

 -----
 titel
 -----
 Symbolic Z-matrix:
 Charge =  0 Multiplicity = 1

 SCF Done:  E(RB3LYP) =  -423.129270128     A.U. after   14 cycles
 Optimization completed.
    -- Stationary point found.
 Normal termination of Gaussian 09 at Mon Jan 27 23:43:31 2020.

 ----------------------------------------------------------------------
 #N Geom=AllCheck Guess=TCheck SCRF=Check GenChk RB3LYP/6-31G(2df,p) Fr
 eq
 ----------------------------------------------------------------------

 Structure from the checkpoint file:  "/scratch/puck/g09_fa6ab1b2-d810-4fe9-b7ac-f3f2d25c90c7/Gau-88872.chk"
 -----
 titel
 -----
 Charge =  0 Multiplicity = 1

                         Standard orientation:
 ---------------------------------------------------------------------
 Center     Atomic      Atomic             Coordinates (Angstroms)
 Number     Number       Type             X           Y           Z
 ---------------------------------------------------------------------
      1          6           0        0.241792    2.264593    0.257984
      2          6           0        0.016424    0.792057    0.092963
      3          6           0        0.331989   -0.255330    1.171352
      4          8           0       -0.521455   -1.393183    0.967024
      5          6           0       -0.243120   -1.221206   -0.457272
      6          6           0       -1.023406    0.078218   -0.781618
      7          8           0       -2.377235    0.118529   -0.436177
      8          6           0        1.026006   -0.345875   -0.148389
      9          6           0        2.451716   -0.384657   -0.592791
     10          1           0        1.099523    2.471353    0.907763
     11          1           0        0.431199    2.752291   -0.704933
     12          1           0       -0.636064    2.742317    0.706541
     13          1           0        0.680515   -0.033363    2.172274
     14          1           0       -0.327819   -2.142053   -1.031200
     15          1           0       -0.926110    0.365838   -1.832315
     16          1           0       -2.434005   -0.354788    0.405932
     17          1           0        2.923022   -1.342378   -0.345785
     18          1           0        2.541117   -0.235389   -1.674692
     19          1           0        3.029734    0.406608   -0.103728
 ---------------------------------------------------------------------

 SCF Done:  E(RB3LYP) =  -423.129270128     A.U. after    1 cycles

 The electronic state is 1-A.
 Alpha  occ. eigenvalues --  -19.14419 -19.12815 -10.23854 -10.23838 -10.23131
 Alpha  occ. eigenvalues --  -10.20283 -10.19635 -10.19207 -10.18534  -1.06785
 Alpha  occ. eigenvalues --   -1.00925  -0.86489  -0.74027  -0.72912  -0.70171
 Alpha  occ. eigenvalues --   -0.62265  -0.56147  -0.52965  -0.50777  -0.49059
 Alpha  occ. eigenvalues --   -0.45879  -0.43719  -0.42435  -0.41165  -0.40365
 Alpha  occ. eigenvalues --   -0.39755  -0.38641  -0.37865  -0.35757  -0.34870
 Alpha  occ. eigenvalues --   -0.28924  -0.26616  -0.25446  -0.22939
 Alpha virt. eigenvalues --    0.07367   0.09370   0.10413   0.11856   0.12377
 Alpha virt. eigenvalues --    0.12707   0.13956   0.14692   0.15442   0.16397
 Alpha virt. eigenvalues --    0.16992   0.17598   0.19736   0.20695   0.21700

 Mulliken charges:
               1
     1  C   -0.519337
     2  C    0.179000
     3  C   -0.014178
     4  O   -0.311109
     5  C   -0.055845
     6  C    0.137862
     7  O   -0.453262
     8  C    0.245256
     9  C   -0.530441
    10  H    0.117168
    11  H    0.122523
    12  H    0.135366
    13  H    0.106512
    14  H    0.083956
    15  H    0.087295
    16  H    0.284314
    17  H    0.131431
    18  H    0.126067
    19  H    0.127422
 Sum of Mulliken charges =   0.00000

 Dipole moment (field-independent basis, Debye):
    X=              2.3825    Y=              0.6210    Z=             -0.1282  Tot=              2.4655
 Quadrupole moment (field-independent basis, Debye-Ang):
   XX=            -56.1898   YY=            -53.6276   ZZ=            -51.2350
   XY=              0.9036   XZ=             -1.6072   YZ=              2.8645

  Exact polarizability:  78.912  -0.523  75.947  -0.466   1.810  69.217
 Approx polarizability: 110.560  -0.653 109.624  -1.277  -0.460 109.352

                      1                      2                      3
                      A                      A                      A
 Frequencies --    154.9853               169.6395               177.0156
 Red. masses --      2.7800                 2.4060                 1.1851
 Frc consts  --      0.0393                 0.0408                 0.0219
 IR Inten    --      0.5518                 1.1964                 0.0501

                      4                      5                      6
                      A                      A                      A
 Frequencies --    188.1632               225.9602               287.0503
 Red. masses --      1.0371                 3.3850                 2.6351
 Frc consts  --      0.0216                 0.1018                 0.1279
 IR Inten    --      0.0390                 1.0864                 1.2434

                      7                      8                      9
                      A                      A                      A
 Frequencies --    298.9701               390.9915               516.0496
 Red. masses --      3.7663                 3.4156                 1.1215
 Frc consts  --      0.1983                 0.3076                 0.1760
 IR Inten    --      3.2980                 1.7197                63.5596

                     10                     11                     12
                      A                      A                      A
 Frequencies --    535.4978               601.1344               669.6758
 Red. masses --      4.1290                 3.9807                 3.8730
 Frc consts  --      0.6976                 0.8475                 1.0233
 IR Inten    --      1.2894                 1.5623                 1.6065

                     13                     14                     15
                      A                      A                      A
 Frequencies --    686.4371               749.7594               782.2319
 Red. masses --      3.0221                 3.8446                 3.5815
 Frc consts  --      0.8390                 1.2733                 1.2912
 IR Inten    --     13.4740                 8.3273                22.0277

                     16                     17                     18
                      A                      A                      A
 Frequencies --    821.2948               884.4278               934.0905
 Red. masses --      3.3771                 2.3317                 1.8632
 Frc consts  --      1.3421                 1.0746                 0.9578
 IR Inten    --     22.8342                 3.1700                 7.6339

                     19                     20                     21
                      A                      A                      A
 Frequencies --    951.0596               958.6773               980.3481
 Red. masses --      2.2212                 2.8576                 1.7681
 Frc consts  --      1.1837                 1.5474                 1.0012
 IR Inten    --     18.1146                26.9859                 5.2466

                     22                     23                     24
                      A                      A                      A
 Frequencies --   1015.3826              1081.1888              1098.1566
 Red. masses --      2.8648                 1.9411                 1.7133
 Frc consts  --      1.7402                 1.3369                 1.2173
 IR Inten    --     15.0097                83.5638                10.2500

                     25                     26                     27
                      A                      A                      A
 Frequencies --   1116.1413              1146.9295              1166.8123
 Red. masses --      2.1701                 1.7477                 2.1317
 Frc consts  --      1.5928                 1.3546                 1.7099
 IR Inten    --     59.0443                11.4243                 1.8154

                     28                     29                     30
                      A                      A                      A
 Frequencies --   1181.8160              1214.8213              1238.9249
 Red. masses --      2.0908                 1.3733                 2.1142
 Frc consts  --      1.7206                 1.1941                 1.9120
 IR Inten    --     17.8261                 2.6041                 9.7374

                     31                     32                     33
                      A                      A                      A
 Frequencies --   1284.9826              1292.6090              1352.6971
 Red. masses --      1.4364                 1.9061                 3.1368
 Frc consts  --      1.3974                 1.8764                 3.3817
 IR Inten    --     11.6249                 6.7032                 1.4470

                     34                     35                     36
                      A                      A                      A
 Frequencies --   1412.2100              1415.8139              1438.7995
 Red. masses --      1.3340                 1.2263                 1.2949
 Frc consts  --      1.5675                 1.4483                 1.5793
 IR Inten    --      1.5273                 2.7157               104.6913

                     37                     38                     39
                      A                      A                      A
 Frequencies --   1474.3613              1483.8722              1486.6425
 Red. masses --      2.8953                 1.0676                 1.0500
 Frc consts  --      3.7081                 1.3850                 1.3673
 IR Inten    --     12.0235                 2.5299                 5.1154

                     40                     41                     42
                      A                      A                      A
 Frequencies --   1495.6507              1504.4598              3023.4741
 Red. masses --      1.0509                 1.2192                 1.0351
 Frc consts  --      1.3851                 1.6258                 5.5749
 IR Inten    --      2.5770                 6.9149                34.5402

                     43                     44                     45
                      A                      A                      A
 Frequencies --   3025.8503              3082.4305              3085.6581
 Red. masses --      1.0351                 1.0869                 1.1010
 Frc consts  --      5.5837                 6.0843                 6.1763
 IR Inten    --     35.3882                16.6216                 2.1918

                     46                     47                     48
                      A                      A                      A
 Frequencies --   3086.8490              3091.8374              3095.8225
 Red. masses --      1.1008                 1.1005                 1.1002
 Frc consts  --      6.1798                 6.1983                 6.2126
 IR Inten    --     45.7624                18.3397                17.2581

                     49                     50                     51
                      A                      A                      A
 Frequencies --   3141.7509              3199.1589              3747.5226
 Red. masses --      1.0929                 1.0947                 1.0645
 Frc consts  --      6.3557                 6.6013                 8.8082
 IR Inten    --     33.9454                12.4232                29.2083

 - Thermochemistry -
 -------------------
 Temperature   298.150 Kelvin.  Pressure   1.00000 Atm.
 Atom     1 has atomic number  6 and mass  12.00000

 Molecular mass:   126.06808 amu.
 Principal axes and moments of inertia in atomic units:
                           1         2         3
     Eigenvalues --   764.989331041.742941352.63302
           X            0.99983   0.00575  -0.01727
           Y           -0.00490   0.99878   0.04919
           Z            0.01753  -0.04910   0.99864
 This molecule is an asymmetric top.
 Rotational symmetry number  1.
 Warning -- assumption of classical behavior for rotation
           may cause significant error
 Rotational temperatures (Kelvin)      0.11322     0.08314     0.06403
 Rotational constants (GHZ):           2.35917     1.73242     1.33424
 Zero-point vibrational energy     415379.8 (Joules/Mol)
                                   99.27816 (Kcal/Mol)
 Warning -- explicit consideration of  11 degrees of freedom as
           vibrations may cause significant error
 Vibrational temperatures:    222.99   244.07   254.69   270.72   325.11
          (Kelvin)            413.00   430.15   562.55   742.48   770.46
                              864.90   963.51   987.63  1078.74  1125.46
                             1181.66  1272.49  1343.95  1368.36  1379.32
                             1410.50  1460.91  1555.59  1580.00  1605.88
                             1650.17  1678.78  1700.37  1747.85  1782.53
                             1848.80  1859.77  1946.23  2031.85  2037.04
                             2070.11  2121.27  2134.96  2138.94  2151.91
                             2164.58  4350.10  4353.52  4434.92  4439.57
                             4441.28  4448.46  4454.19  4520.27  4602.87
                             5391.84

 Zero-point correction=                           0.158210 (Hartree/Particle)
 Thermal correction to Energy=                    0.166735
 Thermal correction to Enthalpy=                  0.167680
 Thermal correction to Gibbs Free Energy=         0.125580
 Sum of electronic and zero-point Energies=           -422.971060
 Sum of electronic and thermal Energies=              -422.962535
 Sum of electronic and thermal Enthalpies=            -422.961591
 Sum of electronic and thermal Free Energies=         -423.003691

                     E (Thermal)             CV                S
                      KCal/Mol        Cal/Mol-Kelvin    Cal/Mol-Kelvin
 Total                  104.628             32.942             88.607
 Electronic               0.000              0.000              0.000
 Translational            0.889              2.981             40.409
 Rotational               0.889              2.981             28.468
 Vibrational            102.851             26.980             19.730
 Vibration     1          0.620              1.897              2.610
 Vibration     2          0.625              1.880              2.439
 Vibration     3          0.628              1.871              2.360
 Vibration     4          0.633              1.856              2.246
 Vibration     5          0.650              1.801              1.911
 Vibration     6          0.684              1.698              1.491
 Vibration     7          0.692              1.676              1.423
 Vibration     8          0.759              1.489              0.996
 Vibration     9          0.871              1.214              0.619
 Vibration    10          0.890              1.172              0.575
 Vibration    11          0.959              1.029              0.448

 Optimization completed.
    -- Stationary point found.
 Normal termination of Gaussian 09 at Tue Jan 28 00:28:40 2020.
