 Gaussian 09, Revision D.01,
 Gaussian 09:  ES64L-G09RevD.01 24-Apr-2013

 -----------------------------
 # b3lyp 6-31G(2df,p) opt Freq
 -----------------------------

 -----
 titel
 -----
 Symbolic Z-matrix:
 Charge =  0 Multiplicity = 1

 SCF Done:  E(RB3LYP) =  -423.122826719     A.U. after   13 cycles
 Optimization completed.
    -- Stationary point found.
 Normal termination of Gaussian 09 at Mon Jan 27 12:07:01 2020.

 ----------------------------------------------------------------------
 #N Geom=AllCheck Guess=TCheck SCRF=Check GenChk RB3LYP/6-31G(2df,p) Fr
 eq
 ----------------------------------------------------------------------

 Structure from the checkpoint file:  "/scratch/puck/g09_cd14b258-7a04-41d2-b9bb-9651f43dbab6/Gau-18695.chk"
 -----
 titel
 -----
 Charge =  0 Multiplicity = 1

                         Standard orientation:
 ---------------------------------------------------------------------
 Center     Atomic      Atomic             Coordinates (Angstroms)
 Number     Number       Type             X           Y           Z
 ---------------------------------------------------------------------
      1          6           0       -3.020590    0.257589   -0.157738
      2          6           0       -2.555798   -0.956459    0.599350
      3          6           0       -1.596778   -0.223346   -0.311750
      4          6           0       -0.482695    0.560867    0.286724
      5          8           0        0.275609    1.415569   -0.601549
      6          6           0        0.922900    0.304861   -0.022678
      7          6           0        2.189644    0.368280    0.825272
      8          8           0        2.725303   -0.773568    0.118789
      9          6           0        1.605777   -0.821105   -0.794486
     10          1           0       -3.694363    0.120158   -0.995563
     11          1           0       -3.184254    1.173635    0.400042
     12          1           0       -2.407968   -0.862376    1.670254
     13          1           0       -2.906262   -1.932892    0.285467
     14          1           0       -1.346245   -0.706420   -1.251152
     15          1           0       -0.711587    1.027439    1.248106
     16          1           0        2.786497    1.276183    0.668903
     17          1           0        2.082437    0.178652    1.900032
     18          1           0        1.889869   -0.555129   -1.820746
     19          1           0        1.109810   -1.799376   -0.791434
 ---------------------------------------------------------------------

 SCF Done:  E(RB3LYP) =  -423.122826719     A.U. after    1 cycles

 The electronic state is 1-A.
 Alpha  occ. eigenvalues --  -19.15411 -19.13710 -10.24554 -10.24410 -10.23279
 Alpha  occ. eigenvalues --  -10.23247 -10.20270 -10.19663 -10.19442  -1.07925
 Alpha  occ. eigenvalues --   -1.03699  -0.86708  -0.71783  -0.70010  -0.68695
 Alpha  occ. eigenvalues --   -0.60901  -0.58848  -0.55319  -0.52184  -0.49679
 Alpha  occ. eigenvalues --   -0.48675  -0.47785  -0.44349  -0.42059  -0.40829
 Alpha  occ. eigenvalues --   -0.39650  -0.37388  -0.34462  -0.33961  -0.32823
 Alpha  occ. eigenvalues --   -0.30579  -0.27777  -0.26600  -0.25074
 Alpha virt. eigenvalues --    0.06984   0.07952   0.08914   0.09544   0.11318
 Alpha virt. eigenvalues --    0.12314   0.13203   0.13860   0.15002   0.16703
 Alpha virt. eigenvalues --    0.17664   0.18584   0.20458   0.21736   0.22014

 Mulliken charges:
               1
     1  C   -0.265210
     2  C   -0.270754
     3  C   -0.006287
     4  C   -0.037170
     5  O   -0.284011
     6  C    0.344203
     7  C   -0.154499
     8  O   -0.275904
     9  C   -0.153456
    10  H    0.119599
    11  H    0.119287
    12  H    0.116590
    13  H    0.119523
    14  H    0.090633
    15  H    0.091686
    16  H    0.114210
    17  H    0.108464
    18  H    0.113650
    19  H    0.109445
 Sum of Mulliken charges =   0.00000

 Dipole moment (field-independent basis, Debye):
    X=             -1.9391    Y=             -0.5939    Z=              0.7439  Tot=              2.1601
 Quadrupole moment (field-independent basis, Debye-Ang):
   XX=            -56.5947   YY=            -55.4030   ZZ=            -50.6227
   XY=              3.3855   XZ=              0.2898   YZ=              3.7390

  Exact polarizability:  92.345   1.957  68.208   0.000   3.236  69.099
 Approx polarizability: 115.345   0.256 104.050  -1.476   0.648 103.815

                      1                      2                      3
                      A                      A                      A
 Frequencies --     59.2465               102.9125               128.9782
 Red. masses --      3.5663                 3.4004                 2.9852
 Frc consts  --      0.0074                 0.0212                 0.0293
 IR Inten    --      0.4667                 2.7768                 1.8053

                      4                      5                      6
                      A                      A                      A
 Frequencies --    153.3661               288.8527               324.0300
 Red. masses --      2.4804                 2.9653                 2.7563
 Frc consts  --      0.0344                 0.1458                 0.1705
 IR Inten    --      2.3967                 0.7562                 2.9649

                      7                      8                      9
                      A                      A                      A
 Frequencies --    376.2398               414.4119               496.6031
 Red. masses --      2.8729                 3.4861                 4.3825
 Frc consts  --      0.2396                 0.3527                 0.6368
 IR Inten    --      4.8190                 1.8379                11.0319

                     10                     11                     12
                      A                      A                      A
 Frequencies --    599.7099               765.1830               820.1321
 Red. masses --      4.3583                 1.1301                 1.6076
 Frc consts  --      0.9235                 0.3898                 0.6371
 IR Inten    --      1.6469                 0.9134                 5.5537

                     13                     14                     15
                      A                      A                      A
 Frequencies --    835.5632               854.8276               891.5410
 Red. masses --      1.6774                 3.0371                 3.3048
 Frc consts  --      0.6900                 1.3076                 1.5477
 IR Inten    --      8.5495                19.3980                16.8749

                     16                     17                     18
                      A                      A                      A
 Frequencies --    908.1649               925.9743               947.2900
 Red. masses --      3.8637                 3.0565                 1.3881
 Frc consts  --      1.8775                 1.5441                 0.7339
 IR Inten    --     31.2456                 1.4261                 0.8826

                     19                     20                     21
                      A                      A                      A
 Frequencies --    977.2685              1018.3520              1021.6540
 Red. masses --      2.1913                 3.9425                 9.5213
 Frc consts  --      1.2331                 2.4089                 5.8554
 IR Inten    --     13.9597                28.1214                86.9859

                     22                     23                     24
                      A                      A                      A
 Frequencies --   1063.3206              1076.1966              1085.9532
 Red. masses --      1.3212                 1.8007                 1.7923
 Frc consts  --      0.8801                 1.2288                 1.2453
 IR Inten    --      3.3655                17.8229                 8.1345

                     25                     26                     27
                      A                      A                      A
 Frequencies --   1125.9613              1129.8578              1143.4484
 Red. masses --      1.1412                 1.8334                 1.0727
 Frc consts  --      0.8524                 1.3790                 0.8264
 IR Inten    --      0.5559                 2.8510                 0.0599

                     28                     29                     30
                      A                      A                      A
 Frequencies --   1167.3432              1182.7809              1197.3345
 Red. masses --      1.4954                 1.7397                 1.4066
 Frc consts  --      1.2006                 1.4339                 1.1881
 IR Inten    --      6.2122                 6.5276                 0.6905

                     31                     32                     33
                      A                      A                      A
 Frequencies --   1205.7906              1224.2482              1297.2714
 Red. masses --      2.2700                 1.8344                 1.3498
 Frc consts  --      1.9446                 1.6199                 1.3384
 IR Inten    --      3.8862                 2.6803                 2.4707

                     34                     35                     36
                      A                      A                      A
 Frequencies --   1315.2024              1343.9097              1407.9044
 Red. masses --      1.2989                 1.4910                 1.7871
 Frc consts  --      1.3238                 1.5866                 2.0871
 IR Inten    --     14.0285                 3.3552                 7.1792

                     37                     38                     39
                      A                      A                      A
 Frequencies --   1469.1391              1497.7262              1500.3924
 Red. masses --      1.0859                 1.0897                 1.3496
 Frc consts  --      1.3809                 1.4402                 1.7900
 IR Inten    --      1.5758                 0.5923                 1.8971

                     40                     41                     42
                      A                      A                      A
 Frequencies --   1523.6574              1541.9231              3008.2137
 Red. masses --      1.1415                 4.4836                 1.0525
 Frc consts  --      1.5614                 6.2806                 5.6117
 IR Inten    --      0.5906                15.7029                94.5926

                     43                     44                     45
                      A                      A                      A
 Frequencies --   3019.4846              3060.5704              3061.8656
 Red. masses --      1.0578                 1.1099                 1.1107
 Frc consts  --      5.6821                 6.1255                 6.1352
 IR Inten    --      5.0896                24.7131                40.4088

                     46                     47                     48
                      A                      A                      A
 Frequencies --   3079.4665              3133.7699              3137.9633
 Red. masses --      1.0870                 1.0509                 1.0585
 Frc consts  --      6.0731                 6.0808                 6.1411
 IR Inten    --     21.9694                16.9160                11.0111

                     49                     50                     51
                      A                      A                      A
 Frequencies --   3156.6335              3213.1395              3228.1933
 Red. masses --      1.0894                 1.1177                 1.1153
 Frc consts  --      6.3956                 6.7989                 6.8483
 IR Inten    --      7.2970                 0.2917                15.3839

 - Thermochemistry -
 -------------------
 Temperature   298.150 Kelvin.  Pressure   1.00000 Atm.
 Atom     1 has atomic number  6 and mass  12.00000

 Molecular mass:   126.06808 amu.
 Principal axes and moments of inertia in atomic units:
                           1         2         3
     Eigenvalues --   446.481901931.065932068.02684
           X            0.99994   0.01123   0.00064
           Y           -0.01124   0.99417   0.10728
           Z            0.00057  -0.10728   0.99423
 This molecule is an asymmetric top.
 Rotational symmetry number  1.
 Warning -- assumption of classical behavior for rotation
           may cause significant error
 Rotational temperatures (Kelvin)      0.19399     0.04485     0.04188
 Rotational constants (GHZ):           4.04214     0.93458     0.87269
 Zero-point vibrational energy     415755.9 (Joules/Mol)
                                   99.36805 (Kcal/Mol)
 Warning -- explicit consideration of  10 degrees of freedom as
           vibrations may cause significant error
 Vibrational temperatures:     85.24   148.07   185.57   220.66   415.59
          (Kelvin)            466.21   541.32   596.25   714.50   862.85
                             1100.93  1179.99  1202.19  1229.90  1282.73
                             1306.65  1332.27  1362.94  1406.07  1465.18
                             1469.93  1529.88  1548.40  1562.44  1620.01
                             1625.61  1645.17  1679.54  1701.76  1722.70
                             1734.86  1761.42  1866.48  1892.28  1933.58
                             2025.66  2113.76  2154.89  2158.73  2192.20
                             2218.48  4328.14  4344.36  4403.47  4405.34
                             4430.66  4508.79  4514.82  4541.69  4622.99
                             4644.64

 Zero-point correction=                           0.158353 (Hartree/Particle)
 Thermal correction to Energy=                    0.166791
 Thermal correction to Enthalpy=                  0.167735
 Thermal correction to Gibbs Free Energy=         0.124495
 Sum of electronic and zero-point Energies=           -422.964474
 Sum of electronic and thermal Energies=              -422.956036
 Sum of electronic and thermal Enthalpies=            -422.955092
 Sum of electronic and thermal Free Energies=         -422.998332

                     E (Thermal)             CV                S
                      KCal/Mol        Cal/Mol-Kelvin    Cal/Mol-Kelvin
 Total                  104.663             31.378             91.007
 Electronic               0.000              0.000              0.000
 Translational            0.889              2.981             40.409
 Rotational               0.889              2.981             28.968
 Vibrational            102.885             25.416             21.630
 Vibration     1          0.597              1.974              4.482
 Vibration     2          0.605              1.947              3.398
 Vibration     3          0.611              1.924              2.961
 Vibration     4          0.619              1.899              2.630
 Vibration     5          0.685              1.694              1.481
 Vibration     6          0.709              1.627              1.290
 Vibration     7          0.747              1.521              1.054
 Vibration     8          0.778              1.439              0.911
 Vibration     9          0.852              1.258              0.667
 Vibration    10          0.958              1.032              0.450

 Optimization completed.
    -- Stationary point found.
 Normal termination of Gaussian 09 at Mon Jan 27 12:51:26 2020.
