 Gaussian 09, Revision D.01,
 Gaussian 09:  ES64L-G09RevD.01 24-Apr-2013

 -----------------------------
 # b3lyp 6-31G(2df,p) opt Freq
 -----------------------------

 -----
 titel
 -----
 Symbolic Z-matrix:
 Charge =  0 Multiplicity = 1

 SCF Done:  E(RB3LYP) =  -423.163054651     A.U. after   12 cycles
 Optimization completed.
    -- Stationary point found.
 Normal termination of Gaussian 09 at Mon Jan 27 22:03:51 2020.

 ----------------------------------------------------------------------
 #N Geom=AllCheck Guess=TCheck SCRF=Check GenChk RB3LYP/6-31G(2df,p) Fr
 eq
 ----------------------------------------------------------------------

 Structure from the checkpoint file:  "/scratch/puck/g09_32b48477-04e1-403c-8a19-f3d308ea7fea/Gau-53105.chk"
 -----
 titel
 -----
 Charge =  0 Multiplicity = 1

                         Standard orientation:
 ---------------------------------------------------------------------
 Center     Atomic      Atomic             Coordinates (Angstroms)
 Number     Number       Type             X           Y           Z
 ---------------------------------------------------------------------
      1          8           0       -0.485496    1.963673   -0.572418
      2          6           0       -0.094083    0.744807    0.011406
      3          6           0        1.306755    0.910709    0.610143
      4          6           0        1.954924   -0.466970    0.442247
      5          8           0        1.406626   -1.000984   -0.762157
      6          6           0        0.064587   -0.581883   -0.851910
      7          6           0       -0.912436   -1.276845    0.106430
      8          6           0       -2.222727   -0.550346    0.077077
      9          6           0       -1.098926    0.017448    0.906721
     10          1           0       -1.428499    1.915842   -0.759339
     11          1           0        1.830749    1.660121    0.010507
     12          1           0        1.287523    1.250898    1.648807
     13          1           0        3.040495   -0.428410    0.323913
     14          1           0        1.725423   -1.121051    1.296618
     15          1           0       -0.217645   -0.562374   -1.908463
     16          1           0       -0.809193   -2.290920    0.471316
     17          1           0       -2.554766   -0.061750   -0.838739
     18          1           0       -3.032069   -1.001221    0.641618
     19          1           0       -1.199621    0.155841    1.977676
 ---------------------------------------------------------------------

 SCF Done:  E(RB3LYP) =  -423.163054651     A.U. after    1 cycles

 The electronic state is 1-A.
 Alpha  occ. eigenvalues --  -19.13793 -19.13574 -10.23855 -10.22561 -10.22441
 Alpha  occ. eigenvalues --  -10.19833 -10.19597 -10.19444 -10.18010  -1.03989
 Alpha  occ. eigenvalues --   -1.01905  -0.89041  -0.76820  -0.71819  -0.62961
 Alpha  occ. eigenvalues --   -0.62131  -0.57850  -0.55416  -0.51377  -0.50078
 Alpha  occ. eigenvalues --   -0.48440  -0.45610  -0.42162  -0.41198  -0.40053
 Alpha  occ. eigenvalues --   -0.38925  -0.36674  -0.36068  -0.32758  -0.32288
 Alpha  occ. eigenvalues --   -0.30298  -0.27626  -0.26353  -0.23545
 Alpha virt. eigenvalues --    0.07032   0.09702   0.10368   0.11016   0.12769
 Alpha virt. eigenvalues --    0.13446   0.14740   0.15442   0.16025   0.17359
 Alpha virt. eigenvalues --    0.17925   0.19092   0.20122   0.20968   0.23048

 Mulliken charges:
               1
     1  O   -0.488916
     2  C    0.385758
     3  C   -0.272871
     4  C   -0.094046
     5  O   -0.262014
     6  C    0.046734
     7  C   -0.067025
     8  C   -0.320694
     9  C   -0.115175
    10  H    0.278997
    11  H    0.121430
    12  H    0.102324
    13  H    0.111760
    14  H    0.094320
    15  H    0.078579
    16  H    0.095667
    17  H    0.099670
    18  H    0.119994
    19  H    0.085508
 Sum of Mulliken charges =   0.00000

 Dipole moment (field-independent basis, Debye):
    X=             -1.4915    Y=             -0.2635    Z=              1.3712  Tot=              2.0431
 Quadrupole moment (field-independent basis, Debye-Ang):
   XX=            -49.1282   YY=            -57.1359   ZZ=            -52.3939
   XY=              0.7771   XZ=              2.9833   YZ=             -1.3763

  Exact polarizability:  84.596   2.010  69.820   2.598  -0.706  66.381
 Approx polarizability: 114.130  -0.003 106.339   2.432   1.134 103.813

                      1                      2                      3
                      A                      A                      A
 Frequencies --    155.2553               204.5374               265.1721
 Red. masses --      2.9286                 2.3893                 2.1378
 Frc consts  --      0.0416                 0.0589                 0.0886
 IR Inten    --      0.8442                 1.3688                 4.1884

                      4                      5                      6
                      A                      A                      A
 Frequencies --    296.3065               318.5120               383.6931
 Red. masses --      2.1244                 1.7038                 3.0993
 Frc consts  --      0.1099                 0.1018                 0.2688
 IR Inten    --     45.8114                26.2009                 7.1107

                      7                      8                      9
                      A                      A                      A
 Frequencies --    431.5913               484.6757               596.3543
 Red. masses --      3.5699                 3.5698                 2.9956
 Frc consts  --      0.3918                 0.4941                 0.6277
 IR Inten    --      8.2000                 1.2461                 3.8455

                     10                     11                     12
                      A                      A                      A
 Frequencies --    645.8592               665.1444               784.6337
 Red. masses --      4.7091                 2.9174                 2.1256
 Frc consts  --      1.1573                 0.7605                 0.7710
 IR Inten    --      7.9837                 4.8224                 8.0017

                     13                     14                     15
                      A                      A                      A
 Frequencies --    794.9498               858.9579               902.8196
 Red. masses --      1.8065                 1.8500                 2.1562
 Frc consts  --      0.6726                 0.8042                 1.0355
 IR Inten    --     13.2259                 4.1923                 1.9289

                     16                     17                     18
                      A                      A                      A
 Frequencies --    916.4943               945.6904               959.1747
 Red. masses --      2.7066                 2.2595                 1.9111
 Frc consts  --      1.3395                 1.1906                 1.0359
 IR Inten    --      8.8237                10.5478                 7.2911

                     19                     20                     21
                      A                      A                      A
 Frequencies --    991.4061              1006.0331              1013.3982
 Red. masses --      1.9042                 2.2005                 1.9071
 Frc consts  --      1.1027                 1.3122                 1.1540
 IR Inten    --     12.8759                17.7177                 2.2160

                     22                     23                     24
                      A                      A                      A
 Frequencies --   1039.4525              1069.0658              1085.7807
 Red. masses --      1.4782                 1.3247                 1.8665
 Frc consts  --      0.9410                 0.8920                 1.2964
 IR Inten    --      6.3904                 1.5574                86.4919

                     25                     26                     27
                      A                      A                      A
 Frequencies --   1094.9337              1115.6331              1137.4942
 Red. masses --      1.8097                 2.8112                 3.0937
 Frc consts  --      1.2783                 2.0615                 2.3585
 IR Inten    --     46.1049                12.1411                43.5954

                     28                     29                     30
                      A                      A                      A
 Frequencies --   1156.8481              1193.8168              1219.8399
 Red. masses --      2.0671                 1.7353                 1.5438
 Frc consts  --      1.6299                 1.4571                 1.3535
 IR Inten    --     29.5304                11.4564                19.1088

                     31                     32                     33
                      A                      A                      A
 Frequencies --   1243.7397              1253.7711              1278.0157
 Red. masses --      1.7485                 1.3171                 1.6292
 Frc consts  --      1.5935                 1.2198                 1.5679
 IR Inten    --     11.6968                19.5659                 3.4899

                     34                     35                     36
                      A                      A                      A
 Frequencies --   1320.5880              1336.8127              1359.0859
 Red. masses --      1.9056                 1.4332                 1.4754
 Frc consts  --      1.9581                 1.5090                 1.6056
 IR Inten    --     18.5875                13.7805                 5.5256

                     37                     38                     39
                      A                      A                      A
 Frequencies --   1370.6819              1409.2705              1482.9358
 Red. masses --      1.7962                 1.5632                 1.1013
 Frc consts  --      1.9883                 1.8292                 1.4269
 IR Inten    --     58.3019                19.8213                 2.3786

                     40                     41                     42
                      A                      A                      A
 Frequencies --   1499.0125              1520.8242              2994.0478
 Red. masses --      1.1923                 1.0937                 1.0709
 Frc consts  --      1.5786                 1.4905                 5.6563
 IR Inten    --      1.7909                 0.9242                53.7256

                     43                     44                     45
                      A                      A                      A
 Frequencies --   3063.2989              3070.5524              3090.6155
 Red. masses --      1.0602                 1.0870                 1.0618
 Frc consts  --      5.8613                 6.0385                 5.9759
 IR Inten    --     20.7614                35.4549                31.5661

                     46                     47                     48
                      A                      A                      A
 Frequencies --   3096.3782              3115.3048              3167.2749
 Red. masses --      1.0929                 1.1061                 1.0917
 Frc consts  --      6.1735                 6.3245                 6.4526
 IR Inten    --     29.9839                21.1083                15.6746

                     49                     50                     51
                      A                      A                      A
 Frequencies --   3190.1371              3201.0624              3819.3288
 Red. masses --      1.1011                 1.1003                 1.0656
 Frc consts  --      6.6021                 6.6430                 9.1584
 IR Inten    --      4.2268                16.4459                13.3771

 - Thermochemistry -
 -------------------
 Temperature   298.150 Kelvin.  Pressure   1.00000 Atm.
 Atom     1 has atomic number  8 and mass  15.99491

 Molecular mass:   126.06808 amu.
 Principal axes and moments of inertia in atomic units:
                           1         2         3
     Eigenvalues --   693.59095 990.600131298.33405
           X            0.99871   0.04429   0.02478
           Y           -0.04397   0.99894  -0.01354
           Z           -0.02535   0.01243   0.99960
 This molecule is an asymmetric top.
 Rotational symmetry number  1.
 Warning -- assumption of classical behavior for rotation
           may cause significant error
 Rotational temperatures (Kelvin)      0.12488     0.08744     0.06671
 Rotational constants (GHZ):           2.60203     1.82187     1.39004
 Zero-point vibrational energy     422379.0 (Joules/Mol)
                                  100.95101 (Kcal/Mol)
 Warning -- explicit consideration of   9 degrees of freedom as
           vibrations may cause significant error
 Vibrational temperatures:    223.38   294.28   381.52   426.32   458.27
          (Kelvin)            552.05   620.96   697.34   858.02   929.25
                              956.99  1128.91  1143.75  1235.85  1298.95
                             1318.63  1360.64  1380.04  1426.41  1447.46
                             1458.05  1495.54  1538.15  1562.19  1575.36
                             1605.15  1636.60  1664.44  1717.63  1755.08
                             1789.46  1803.89  1838.78  1900.03  1923.37
                             1955.42  1972.10  2027.62  2133.61  2156.74
                             2188.12  4307.76  4407.40  4417.83  4446.70
                             4454.99  4482.22  4557.00  4589.89  4605.61
                             5495.16

 Zero-point correction=                           0.160876 (Hartree/Particle)
 Thermal correction to Energy=                    0.168286
 Thermal correction to Enthalpy=                  0.169231
 Thermal correction to Gibbs Free Energy=         0.129481
 Sum of electronic and zero-point Energies=           -423.002179
 Sum of electronic and thermal Energies=              -422.994768
 Sum of electronic and thermal Enthalpies=            -422.993824
 Sum of electronic and thermal Free Energies=         -423.033573

                     E (Thermal)             CV                S
                      KCal/Mol        Cal/Mol-Kelvin    Cal/Mol-Kelvin
 Total                  105.601             30.382             83.660
 Electronic               0.000              0.000              0.000
 Translational            0.889              2.981             40.409
 Rotational               0.889              2.981             28.280
 Vibrational            103.824             24.420             14.971
 Vibration     1          0.620              1.897              2.607
 Vibration     2          0.640              1.833              2.092
 Vibration     3          0.671              1.737              1.627
 Vibration     4          0.690              1.681              1.438
 Vibration     5          0.705              1.638              1.318
 Vibration     6          0.753              1.505              1.025
 Vibration     7          0.793              1.401              0.853
 Vibration     8          0.841              1.284              0.698
 Vibration     9          0.954              1.040              0.456

 Optimization completed.
    -- Stationary point found.
 Normal termination of Gaussian 09 at Mon Jan 27 22:56:17 2020.
