 Gaussian 09, Revision D.01,
 Gaussian 09:  ES64L-G09RevD.01 24-Apr-2013

 -----------------------------
 # b3lyp 6-31G(2df,p) opt Freq
 -----------------------------

 -----
 titel
 -----
 Symbolic Z-matrix:
 Charge =  0 Multiplicity = 1

 SCF Done:  E(RB3LYP) =  -423.123264671     A.U. after   12 cycles
 Optimization completed.
    -- Stationary point found.
 Normal termination of Gaussian 09 at Tue Jan 28 10:05:28 2020.

 ----------------------------------------------------------------------
 #N Geom=AllCheck Guess=TCheck SCRF=Check GenChk RB3LYP/6-31G(2df,p) Fr
 eq
 ----------------------------------------------------------------------

 Structure from the checkpoint file:  "/scratch/puck/g09_f117a55a-e6d0-471f-a138-d08c0480e887/Gau-64657.chk"
 -----
 titel
 -----
 Charge =  0 Multiplicity = 1

                         Standard orientation:
 ---------------------------------------------------------------------
 Center     Atomic      Atomic             Coordinates (Angstroms)
 Number     Number       Type             X           Y           Z
 ---------------------------------------------------------------------
      1          8           0       -2.486548   -0.524831   -0.334859
      2          6           0       -1.504009   -0.757102    0.662854
      3          6           0       -0.113691   -0.451709    0.155197
      4          6           0        0.763478   -1.434296   -0.667603
      5          6           0        1.956243   -0.632191   -0.142391
      6          6           0        1.542579    0.845282   -0.095683
      7          6           0        1.173152   -0.103488    1.030866
      8          6           0        0.104210    0.905922   -0.586800
      9          8           0       -0.671275    1.972518   -0.064578
     10          1           0       -2.483532    0.427806   -0.489268
     11          1           0       -1.705655   -0.155237    1.563500
     12          1           0       -1.594146   -1.809286    0.954408
     13          1           0        0.748364   -2.444163   -0.246546
     14          1           0        0.586014   -1.483844   -1.747842
     15          1           0        3.004688   -0.902195   -0.160567
     16          1           0        2.281661    1.637292   -0.096612
     17          1           0        1.385230   -0.100140    2.090341
     18          1           0       -0.085256    0.911019   -1.664943
     19          1           0       -0.406555    2.102734    0.854378
 ---------------------------------------------------------------------

 SCF Done:  E(RB3LYP) =  -423.123264671     A.U. after    1 cycles

 The electronic state is 1-A.
 Alpha  occ. eigenvalues --  -19.14752 -19.12600 -10.23461 -10.22377 -10.20015
 Alpha  occ. eigenvalues --  -10.19717 -10.19695 -10.19675 -10.18578  -1.03118
 Alpha  occ. eigenvalues --   -1.00661  -0.92884  -0.73778  -0.70759  -0.67490
 Alpha  occ. eigenvalues --   -0.61555  -0.56942  -0.54167  -0.51547  -0.48077
 Alpha  occ. eigenvalues --   -0.47766  -0.45780  -0.45144  -0.41703  -0.39928
 Alpha  occ. eigenvalues --   -0.37347  -0.36523  -0.34518  -0.33890  -0.30699
 Alpha  occ. eigenvalues --   -0.29006  -0.26821  -0.25593  -0.24879
 Alpha virt. eigenvalues --    0.05853   0.09928   0.10639   0.11160   0.12351
 Alpha virt. eigenvalues --    0.12825   0.13555   0.14811   0.15420   0.16323
 Alpha virt. eigenvalues --    0.17521   0.18652   0.19150   0.21472   0.22581

 Mulliken charges:
               1
     1  O   -0.420944
     2  C   -0.199642
     3  C    0.280268
     4  C   -0.280457
     5  C   -0.063831
     6  C   -0.110516
     7  C   -0.175746
     8  C    0.106535
     9  O   -0.457416
    10  H    0.294421
    11  H    0.080209
    12  H    0.108495
    13  H    0.099137
    14  H    0.097330
    15  H    0.090776
    16  H    0.089282
    17  H    0.092467
    18  H    0.087331
    19  H    0.282302
 Sum of Mulliken charges =   0.00000

 Dipole moment (field-independent basis, Debye):
    X=              2.1493    Y=              0.3395    Z=              1.4978  Tot=              2.6416
 Quadrupole moment (field-independent basis, Debye-Ang):
   XX=            -56.6234   YY=            -54.0049   ZZ=            -50.8499
   XY=             -1.4698   XZ=             -1.1209   YZ=              1.1972

  Exact polarizability:  78.854  -0.692  74.671   0.237   1.001  68.136
 Approx polarizability: 108.780  -2.002 111.466   1.433   0.786 109.203

                      1                      2                      3
                      A                      A                      A
 Frequencies --     53.8091               164.5942               210.2038
 Red. masses --      3.7130                 4.5643                 3.3994
 Frc consts  --      0.0063                 0.0729                 0.0885
 IR Inten    --      3.5881                 0.2032                 1.5471

                      4                      5                      6
                      A                      A                      A
 Frequencies --    252.9445               359.3268               385.1104
 Red. masses --      2.8490                 1.3021                 3.3567
 Frc consts  --      0.1074                 0.0991                 0.2933
 IR Inten    --      2.9352                31.1309                 2.5425

                      7                      8                      9
                      A                      A                      A
 Frequencies --    417.3135               430.9907               513.5707
 Red. masses --      2.1418                 2.4807                 1.1021
 Frc consts  --      0.2198                 0.2715                 0.1713
 IR Inten    --     26.7043                 0.8164               143.3941

                     10                     11                     12
                      A                      A                      A
 Frequencies --    527.0988               703.2565               725.2305
 Red. masses --      4.3968                 3.5818                 3.7399
 Frc consts  --      0.7197                 1.0437                 1.1590
 IR Inten    --      1.5373                 8.4229                 0.6264

                     13                     14                     15
                      A                      A                      A
 Frequencies --    776.9339               812.2105               823.3040
 Red. masses --      1.5688                 1.8904                 2.1975
 Frc consts  --      0.5579                 0.7347                 0.8776
 IR Inten    --      4.3365                14.5059                10.4435

                     16                     17                     18
                      A                      A                      A
 Frequencies --    878.7420               899.3276               926.5837
 Red. masses --      1.9599                 2.3467                 1.8671
 Frc consts  --      0.8917                 1.1182                 0.9444
 IR Inten    --      6.5550                14.3352                 7.7949

                     19                     20                     21
                      A                      A                      A
 Frequencies --    952.5421               993.6135              1000.9566
 Red. masses --      1.7112                 2.2375                 2.0519
 Frc consts  --      0.9148                 1.3015                 1.2112
 IR Inten    --      3.7581                 5.2425                 5.8967

                     22                     23                     24
                      A                      A                      A
 Frequencies --   1023.3791              1034.5824              1043.1890
 Red. masses --      1.4701                 1.6908                 2.2337
 Frc consts  --      0.9072                 1.0663                 1.4322
 IR Inten    --     23.4205                13.7003                45.6378

                     25                     26                     27
                      A                      A                      A
 Frequencies --   1081.9436              1098.1777              1114.5496
 Red. masses --      3.6455                 1.9548                 3.2728
 Frc consts  --      2.5143                 1.3890                 2.3954
 IR Inten    --     34.2362                16.0564                82.4703

                     28                     29                     30
                      A                      A                      A
 Frequencies --   1147.3284              1171.5764              1232.2846
 Red. masses --      1.2942                 1.6359                 1.5582
 Frc consts  --      1.0037                 1.3229                 1.3941
 IR Inten    --      3.3063                 4.3690                 5.5950

                     31                     32                     33
                      A                      A                      A
 Frequencies --   1234.9625              1243.0914              1277.3258
 Red. masses --      1.4759                 1.4584                 1.5963
 Frc consts  --      1.3262                 1.3278                 1.5345
 IR Inten    --      8.9267                 9.3455                21.4500

                     34                     35                     36
                      A                      A                      A
 Frequencies --   1305.1967              1331.3676              1353.4622
 Red. masses --      1.7490                 2.8822                 2.7744
 Frc consts  --      1.7554                 3.0100                 2.9945
 IR Inten    --      0.9495                 2.8233                 2.1435

                     37                     38                     39
                      A                      A                      A
 Frequencies --   1394.1298              1426.3670              1433.1647
 Red. masses --      1.3993                 1.2662                 1.2967
 Frc consts  --      1.6024                 1.5178                 1.5692
 IR Inten    --      0.2560                68.1142                74.8243

                     40                     41                     42
                      A                      A                      A
 Frequencies --   1496.7789              1502.9850              2972.0653
 Red. masses --      1.0853                 1.1156                 1.0702
 Frc consts  --      1.4326                 1.4848                 5.5699
 IR Inten    --      0.7428                 1.4274                57.2080

                     43                     44                     45
                      A                      A                      A
 Frequencies --   3033.8689              3062.2840              3065.2911
 Red. masses --      1.0583                 1.0859                 1.0912
 Frc consts  --      5.7392                 6.0000                 6.0408
 IR Inten    --     41.2249                43.5200                29.8147

                     46                     47                     48
                      A                      A                      A
 Frequencies --   3090.9662              3186.3050              3193.4633
 Red. masses --      1.1066                 1.0915                 1.0908
 Frc consts  --      6.2293                 6.5288                 6.5544
 IR Inten    --     33.0481                 8.7269                26.4979

                     49                     50                     51
                      A                      A                      A
 Frequencies --   3220.1531              3780.8403              3787.5177
 Red. masses --      1.0998                 1.0652                 1.0657
 Frc consts  --      6.7189                 8.9712                 9.0075
 IR Inten    --      9.9394                13.9132                31.1835

 - Thermochemistry -
 -------------------
 Temperature   298.150 Kelvin.  Pressure   1.00000 Atm.
 Atom     1 has atomic number  8 and mass  15.99491

 Molecular mass:   126.06808 amu.
 Principal axes and moments of inertia in atomic units:
                           1         2         3
     Eigenvalues --   675.827721090.222471446.81448
           X            0.99993  -0.00564  -0.01003
           Y            0.00575   0.99993   0.01060
           Z            0.00997  -0.01065   0.99989
 This molecule is an asymmetric top.
 Rotational symmetry number  1.
 Warning -- assumption of classical behavior for rotation
           may cause significant error
 Rotational temperatures (Kelvin)      0.12816     0.07945     0.05987
 Rotational constants (GHZ):           2.67042     1.65539     1.24739
 Zero-point vibrational energy     419567.8 (Joules/Mol)
                                  100.27911 (Kcal/Mol)
 Warning -- explicit consideration of  10 degrees of freedom as
           vibrations may cause significant error
 Vibrational temperatures:     77.42   236.81   302.44   363.93   516.99
          (Kelvin)            554.09   600.42   620.10   738.91   758.38
                             1011.83  1043.44  1117.83  1168.59  1184.55
                             1264.31  1293.93  1333.15  1370.49  1429.59
                             1440.15  1472.41  1488.53  1500.91  1556.67
                             1580.03  1603.59  1650.75  1685.63  1772.98
                             1776.83  1788.53  1837.78  1877.88  1915.54
                             1947.33  2005.84  2052.22  2062.00  2153.53
                             2162.46  4276.13  4365.06  4405.94  4410.26
                             4447.21  4584.38  4594.68  4633.08  5439.78
                             5449.39

 Zero-point correction=                           0.159805 (Hartree/Particle)
 Thermal correction to Energy=                    0.167832
 Thermal correction to Enthalpy=                  0.168776
 Thermal correction to Gibbs Free Energy=         0.127139
 Sum of electronic and zero-point Energies=           -422.963460
 Sum of electronic and thermal Energies=              -422.955432
 Sum of electronic and thermal Enthalpies=            -422.954488
 Sum of electronic and thermal Free Energies=         -422.996126

                     E (Thermal)             CV                S
                      KCal/Mol        Cal/Mol-Kelvin    Cal/Mol-Kelvin
 Total                  105.316             31.831             87.633
 Electronic               0.000              0.000              0.000
 Translational            0.889              2.981             40.409
 Rotational               0.889              2.981             28.457
 Vibrational            103.539             25.870             18.768
 Vibration     1          0.596              1.976              4.672
 Vibration     2          0.623              1.886              2.496
 Vibration     3          0.642              1.825              2.042
 Vibration     4          0.664              1.758              1.710
 Vibration     5          0.734              1.556              1.125
 Vibration     6          0.754              1.502              1.019
 Vibration     7          0.780              1.433              0.901
 Vibration     8          0.792              1.403              0.855
 Vibration     9          0.869              1.220              0.625
 Vibration    10          0.882              1.190              0.594

 Optimization completed.
    -- Stationary point found.
 Normal termination of Gaussian 09 at Tue Jan 28 12:03:32 2020.
