 Gaussian 09, Revision D.01,
 Gaussian 09:  ES64L-G09RevD.01 24-Apr-2013

 -----------------------------
 # b3lyp 6-31G(2df,p) opt Freq
 -----------------------------

 -----
 titel
 -----
 Symbolic Z-matrix:
 Charge =  0 Multiplicity = 1

 SCF Done:  E(RB3LYP) =  -423.156120232     A.U. after   13 cycles
 Optimization completed.
    -- Stationary point found.
 Normal termination of Gaussian 09 at Tue Jan 28 03:41:22 2020.

 ----------------------------------------------------------------------
 #N Geom=AllCheck Guess=TCheck SCRF=Check GenChk RB3LYP/6-31G(2df,p) Fr
 eq
 ----------------------------------------------------------------------

 Structure from the checkpoint file:  "/scratch/puck/g09_5f9f877d-4a70-4251-a834-50c666c18250/Gau-90409.chk"
 -----
 titel
 -----
 Charge =  0 Multiplicity = 1

                         Standard orientation:
 ---------------------------------------------------------------------
 Center     Atomic      Atomic             Coordinates (Angstroms)
 Number     Number       Type             X           Y           Z
 ---------------------------------------------------------------------
      1          8           0        2.195329    0.224175   -0.497918
      2          6           0        1.245341   -0.461628    0.313480
      3          6           0        0.592073    0.545029    1.288728
      4          6           0       -0.746408    1.022745    0.710582
      5          6           0       -0.557935    1.439649   -0.779681
      6          6           0       -0.856231   -0.025298   -1.145425
      7          6           0       -1.563743   -0.239363    0.204625
      8          8           0       -0.905074   -1.491499    0.459566
      9          6           0        0.110673   -1.083881   -0.507733
     10          1           0        2.598094   -0.416365   -1.093670
     11          1           0        1.741239   -1.259929    0.884601
     12          1           0        0.432503    0.061394    2.255707
     13          1           0        1.275808    1.385704    1.439274
     14          1           0       -1.259413    1.720809    1.374600
     15          1           0       -1.367573    2.086436   -1.130802
     16          1           0        0.404664    1.866417   -1.062895
     17          1           0       -1.280305   -0.303836   -2.110450
     18          1           0       -2.639897   -0.266457    0.382907
     19          1           0        0.430220   -1.919093   -1.139923
 ---------------------------------------------------------------------

 SCF Done:  E(RB3LYP) =  -423.156120232     A.U. after    1 cycles

 The electronic state is 1-A.
 Alpha  occ. eigenvalues --  -19.13991 -19.13101 -10.23328 -10.23080 -10.22895
 Alpha  occ. eigenvalues --  -10.18695 -10.18511 -10.17765 -10.17570  -1.04429
 Alpha  occ. eigenvalues --   -1.01811  -0.83826  -0.75361  -0.71702  -0.63810
 Alpha  occ. eigenvalues --   -0.60186  -0.59555  -0.53052  -0.51653  -0.49236
 Alpha  occ. eigenvalues --   -0.46605  -0.44169  -0.42210  -0.40846  -0.39694
 Alpha  occ. eigenvalues --   -0.37553  -0.36446  -0.35281  -0.32875  -0.31406
 Alpha  occ. eigenvalues --   -0.29788  -0.28553  -0.26439  -0.23195
 Alpha virt. eigenvalues --    0.06093   0.08331   0.11023   0.12600   0.13432
 Alpha virt. eigenvalues --    0.14343   0.14413   0.16162   0.16387   0.16923
 Alpha virt. eigenvalues --    0.17525   0.18928   0.19961   0.21404   0.22028

 Mulliken charges:
               1
     1  O   -0.429189
     2  C    0.104409
     3  C   -0.212438
     4  C   -0.080096
     5  C   -0.245042
     6  C   -0.070952
     7  C    0.129876
     8  O   -0.302437
     9  C    0.045270
    10  H    0.282743
    11  H    0.072018
    12  H    0.109630
    13  H    0.110109
    14  H    0.063645
    15  H    0.094039
    16  H    0.118459
    17  H    0.069053
    18  H    0.075452
    19  H    0.065452
 Sum of Mulliken charges =   0.00000

 Dipole moment (field-independent basis, Debye):
    X=              0.2246    Y=              0.0653    Z=             -0.9669  Tot=              0.9948
 Quadrupole moment (field-independent basis, Debye-Ang):
   XX=            -51.3492   YY=            -55.2223   ZZ=            -51.1865
   XY=             -5.7662   XZ=             -0.9953   YZ=              3.2113

  Exact polarizability:  75.692  -3.607  71.860  -0.629   1.974  70.790
 Approx polarizability: 107.306  -2.030 108.603  -4.773   0.358 105.310

                      1                      2                      3
                      A                      A                      A
 Frequencies --    173.5182               262.4406               293.3622
 Red. masses --      3.8389                 3.4846                 1.0974
 Frc consts  --      0.0681                 0.1414                 0.0556
 IR Inten    --      1.9112                 4.1040               102.6561

                      4                      5                      6
                      A                      A                      A
 Frequencies --    367.2210               389.9010               428.0050
 Red. masses --      2.5751                 2.6123                 2.9385
 Frc consts  --      0.2046                 0.2340                 0.3172
 IR Inten    --      4.2600                 9.0891                 5.7857

                      7                      8                      9
                      A                      A                      A
 Frequencies --    480.7350               582.7496               668.4837
 Red. masses --      4.7669                 4.9304                 3.9074
 Frc consts  --      0.6491                 0.9865                 1.0288
 IR Inten    --      2.5851                 1.9543                 8.4706

                     10                     11                     12
                      A                      A                      A
 Frequencies --    733.2944               767.3536               811.5480
 Red. masses --      4.1940                 2.7643                 3.1365
 Frc consts  --      1.3287                 0.9590                 1.2171
 IR Inten    --      0.4665                 4.3090                 2.7961

                     13                     14                     15
                      A                      A                      A
 Frequencies --    826.5481               839.0270               885.1186
 Red. masses --      2.4806                 1.9341                 1.7495
 Frc consts  --      0.9985                 0.8022                 0.8075
 IR Inten    --      4.2725                 3.0303                 4.6989

                     16                     17                     18
                      A                      A                      A
 Frequencies --    919.7165               961.3856               977.7813
 Red. masses --      2.6094                 2.0240                 2.6606
 Frc consts  --      1.3005                 1.1022                 1.4987
 IR Inten    --     28.8695                 3.4430                 7.0593

                     19                     20                     21
                      A                      A                      A
 Frequencies --    999.2723              1013.1971              1046.5962
 Red. masses --      4.7289                 3.3508                 1.7837
 Frc consts  --      2.7822                 2.0267                 1.1512
 IR Inten    --     40.1787                25.2173                12.0783

                     22                     23                     24
                      A                      A                      A
 Frequencies --   1054.4130              1075.1675              1092.2795
 Red. masses --      1.9021                 2.2278                 1.2696
 Frc consts  --      1.2460                 1.5173                 0.8925
 IR Inten    --     45.6784                 2.4659                 0.4705

                     25                     26                     27
                      A                      A                      A
 Frequencies --   1097.1329              1142.9122              1200.5885
 Red. masses --      1.8517                 2.0212                 1.3174
 Frc consts  --      1.3133                 1.5556                 1.1188
 IR Inten    --     10.8638                12.0040                 0.9060

                     28                     29                     30
                      A                      A                      A
 Frequencies --   1217.5012              1222.6306              1246.4736
 Red. masses --      1.5719                 1.3722                 1.2933
 Frc consts  --      1.3728                 1.2086                 1.1839
 IR Inten    --      5.1375                 8.0873                 6.2479

                     31                     32                     33
                      A                      A                      A
 Frequencies --   1251.2215              1282.6180              1305.2185
 Red. masses --      1.3009                 1.4540                 1.4884
 Frc consts  --      1.2000                 1.4094                 1.4940
 IR Inten    --     12.0272                 6.0887                18.1832

                     34                     35                     36
                      A                      A                      A
 Frequencies --   1309.7946              1327.9882              1333.9593
 Red. masses --      1.5661                 1.6934                 1.5742
 Frc consts  --      1.5830                 1.7595                 1.6505
 IR Inten    --      6.2149                 8.9039                 5.6770

                     37                     38                     39
                      A                      A                      A
 Frequencies --   1362.2958              1375.2684              1425.1333
 Red. masses --      1.3742                 1.5152                 1.5113
 Frc consts  --      1.5026                 1.6885                 1.8084
 IR Inten    --      4.5289                 7.3621                 6.5410

                     40                     41                     42
                      A                      A                      A
 Frequencies --   1471.3027              1492.1832              2989.9248
 Red. masses --      1.0970                 1.1081                 1.0844
 Frc consts  --      1.3991                 1.4537                 5.7114
 IR Inten    --      3.7914                 4.9209                47.4207

                     43                     44                     45
                      A                      A                      A
 Frequencies --   3049.4751              3057.6606              3060.3275
 Red. masses --      1.0882                 1.0633                 1.0610
 Frc consts  --      5.9622                 5.8573                 5.8546
 IR Inten    --     63.4175                22.4319                30.3225

                     46                     47                     48
                      A                      A                      A
 Frequencies --   3087.1471              3098.2699              3107.8251
 Red. masses --      1.0871                 1.0874                 1.1049
 Frc consts  --      6.1044                 6.1500                 6.2878
 IR Inten    --     27.9205                72.1601                14.2824

                     49                     50                     51
                      A                      A                      A
 Frequencies --   3110.2407              3130.9530              3809.0747
 Red. masses --      1.0931                 1.1030                 1.0661
 Frc consts  --      6.2304                 6.3704                 9.1135
 IR Inten    --     50.2916                14.8463                17.1567

 - Thermochemistry -
 -------------------
 Temperature   298.150 Kelvin.  Pressure   1.00000 Atm.
 Atom     1 has atomic number  8 and mass  15.99491

 Molecular mass:   126.06808 amu.
 Principal axes and moments of inertia in atomic units:
                           1         2         3
     Eigenvalues --   690.33521 952.829531068.52036
           X            0.99700  -0.07561   0.01630
           Y            0.07441   0.99515   0.06439
           Z           -0.02108  -0.06298   0.99779
 This molecule is an asymmetric top.
 Rotational symmetry number  1.
 Warning -- assumption of classical behavior for rotation
           may cause significant error
 Rotational temperatures (Kelvin)      0.12547     0.09090     0.08106
 Rotational constants (GHZ):           2.61430     1.89409     1.68901
 Zero-point vibrational energy     425955.7 (Joules/Mol)
                                  101.80586 (Kcal/Mol)
 Warning -- explicit consideration of   8 degrees of freedom as
           vibrations may cause significant error
 Vibrational temperatures:    249.65   377.59   422.08   528.35   560.98
          (Kelvin)            615.80   691.67   838.45   961.80  1055.05
                             1104.05  1167.64  1189.22  1207.17  1273.49
                             1323.27  1383.22  1406.81  1437.73  1457.76
                             1505.82  1517.06  1546.92  1571.54  1578.53
                             1644.39  1727.38  1751.71  1759.09  1793.40
                             1800.23  1845.40  1877.92  1884.50  1910.68
                             1919.27  1960.04  1978.70  2050.45  2116.87
                             2146.92  4301.83  4387.51  4399.29  4403.12
                             4441.71  4457.71  4471.46  4474.94  4504.74
                             5480.40

 Zero-point correction=                           0.162238 (Hartree/Particle)
 Thermal correction to Energy=                    0.169039
 Thermal correction to Enthalpy=                  0.169983
 Thermal correction to Gibbs Free Energy=         0.131508
 Sum of electronic and zero-point Energies=           -422.993882
 Sum of electronic and thermal Energies=              -422.987082
 Sum of electronic and thermal Enthalpies=            -422.986137
 Sum of electronic and thermal Free Energies=         -423.024613

                     E (Thermal)             CV                S
                      KCal/Mol        Cal/Mol-Kelvin    Cal/Mol-Kelvin
 Total                  106.073             28.729             80.978
 Electronic               0.000              0.000              0.000
 Translational            0.889              2.981             40.409
 Rotational               0.889              2.981             28.043
 Vibrational            104.296             22.768             12.526
 Vibration     1          0.627              1.875              2.397
 Vibration     2          0.670              1.742              1.645
 Vibration     3          0.688              1.686              1.454
 Vibration     4          0.740              1.540              1.091
 Vibration     5          0.758              1.492              1.001
 Vibration     6          0.790              1.409              0.865
 Vibration     7          0.837              1.293              0.708
 Vibration     8          0.940              1.069              0.480

 Optimization completed.
    -- Stationary point found.
 Normal termination of Gaussian 09 at Tue Jan 28 04:28:33 2020.
