 Gaussian 09, Revision D.01,
 Gaussian 09:  ES64L-G09RevD.01 24-Apr-2013

 -----------------------------
 # b3lyp 6-31G(2df,p) opt Freq
 -----------------------------

 -----
 titel
 -----
 Symbolic Z-matrix:
 Charge =  0 Multiplicity = 1

 SCF Done:  E(RB3LYP) =  -423.190939562     A.U. after   12 cycles
 Optimization completed.
    -- Stationary point found.
 Normal termination of Gaussian 09 at Mon Jan 27 18:03:03 2020.

 ----------------------------------------------------------------------
 #N Geom=AllCheck Guess=TCheck SCRF=Check GenChk RB3LYP/6-31G(2df,p) Fr
 eq
 ----------------------------------------------------------------------

 Structure from the checkpoint file:  "/scratch/puck/g09_f9f09aad-fef7-44e7-b96d-081c59263c6a/Gau-148991.chk"
 -----
 titel
 -----
 Charge =  0 Multiplicity = 1

                         Standard orientation:
 ---------------------------------------------------------------------
 Center     Atomic      Atomic             Coordinates (Angstroms)
 Number     Number       Type             X           Y           Z
 ---------------------------------------------------------------------
      1          6           0        2.646321    0.612151    0.000017
      2          6           0        1.190151    0.243057   -0.000001
      3          6           0        0.044012    1.245582   -0.000052
      4          6           0       -1.075890    0.175936   -0.000008
      5          6           0       -2.526947    0.555221    0.000012
      6          8           0       -0.725123   -0.636391   -1.127165
      7          6           0        0.601688   -0.947851   -0.755506
      8          6           0        0.601677   -0.947856    0.755494
      9          8           0       -0.725097   -0.636328    1.127203
     10          1           0        2.908689    1.202009   -0.885624
     11          1           0        2.908619    1.202212    0.885543
     12          1           0        3.281777   -0.280139    0.000145
     13          1           0        0.013140    1.869082    0.896960
     14          1           0        0.013129    1.868999   -0.897122
     15          1           0       -2.759161    1.146610   -0.888511
     16          1           0       -3.144786   -0.345411   -0.000958
     17          1           0       -2.759486    1.144929    0.889564
     18          1           0        1.126889   -1.621980   -1.416955
     19          1           0        1.126882   -1.621994    1.416931
 ---------------------------------------------------------------------

 SCF Done:  E(RB3LYP) =  -423.190939562     A.U. after    1 cycles

 The electronic state is 1-A.
 Alpha  occ. eigenvalues --  -19.14446 -19.14446 -10.27974 -10.22932 -10.22906
 Alpha  occ. eigenvalues --  -10.19637 -10.18661 -10.18331 -10.18111  -1.10259
 Alpha  occ. eigenvalues --   -0.99271  -0.84555  -0.77674  -0.70973  -0.70280
 Alpha  occ. eigenvalues --   -0.60121  -0.59330  -0.53599  -0.50819  -0.48127
 Alpha  occ. eigenvalues --   -0.46877  -0.43199  -0.42816  -0.40619  -0.40360
 Alpha  occ. eigenvalues --   -0.39731  -0.38581  -0.37745  -0.36331  -0.34731
 Alpha  occ. eigenvalues --   -0.30985  -0.30440  -0.24783  -0.23275
 Alpha virt. eigenvalues --    0.08796   0.10339   0.11819   0.12381   0.13603
 Alpha virt. eigenvalues --    0.13625   0.16036   0.16094   0.16592   0.17021
 Alpha virt. eigenvalues --    0.18015   0.20045   0.20049   0.20268   0.21823

 Mulliken charges:
               1
     1  C   -0.501551
     2  C    0.223621
     3  C   -0.310028
     4  C    0.443374
     5  C   -0.487815
     6  O   -0.280453
     7  C   -0.002453
     8  C   -0.002439
     9  O   -0.280462
    10  H    0.123155
    11  H    0.123157
    12  H    0.117994
    13  H    0.106221
    14  H    0.106222
    15  H    0.132663
    16  H    0.141882
    17  H    0.132693
    18  H    0.107111
    19  H    0.107110
 Sum of Mulliken charges =   0.00000

 Dipole moment (field-independent basis, Debye):
    X=              1.3252    Y=              0.9859    Z=             -0.0001  Tot=              1.6517
 Quadrupole moment (field-independent basis, Debye-Ang):
   XX=            -49.6170   YY=            -51.6400   ZZ=            -55.5460
   XY=             -3.6270   XZ=             -0.0001   YZ=              0.0000

  Exact polarizability:  85.743  -2.296  70.333   0.000   0.000  64.361
 Approx polarizability: 109.765  -1.446 105.201   0.000   0.000 105.738

                      1                      2                      3
                      A                      A                      A
 Frequencies --    171.0922               207.6782               211.9071
 Red. masses --      1.0229                 1.0635                 2.3909
 Frc consts  --      0.0176                 0.0270                 0.0633
 IR Inten    --      0.0007                 0.0267                 0.7335

                      4                      5                      6
                      A                      A                      A
 Frequencies --    228.3617               325.4543               333.9445
 Red. masses --      2.5480                 2.8175                 2.6481
 Frc consts  --      0.0783                 0.1758                 0.1740
 IR Inten    --      0.8568                 2.2250                 3.6337

                      7                      8                      9
                      A                      A                      A
 Frequencies --    450.1275               547.7098               562.2282
 Red. masses --      1.8511                 4.5153                 3.5715
 Frc consts  --      0.2210                 0.7981                 0.6652
 IR Inten    --      0.9790                 0.7332                 4.9972

                     10                     11                     12
                      A                      A                      A
 Frequencies --    611.2674               669.3990               717.9478
 Red. masses --      5.9176                 3.4754                 5.3521
 Frc consts  --      1.3027                 0.9175                 1.6254
 IR Inten    --     10.1230                 5.5282                 1.2581

                     13                     14                     15
                      A                      A                      A
 Frequencies --    744.7225               805.2810               824.4347
 Red. masses --      4.7473                 3.4776                 3.0289
 Frc consts  --      1.5513                 1.3287                 1.2130
 IR Inten    --     12.2348                43.3910                 4.6411

                     16                     17                     18
                      A                      A                      A
 Frequencies --    884.5857               890.1593               897.5720
 Red. masses --      2.0395                 2.3092                 1.8849
 Frc consts  --      0.9403                 1.0781                 0.8947
 IR Inten    --     19.2891                 4.1400                 8.7677

                     19                     20                     21
                      A                      A                      A
 Frequencies --    954.3167               974.8907              1030.1889
 Red. masses --      1.7980                 1.6456                 1.9284
 Frc consts  --      0.9648                 0.9215                 1.2058
 IR Inten    --      5.6529                 0.0783                 4.2523

                     22                     23                     24
                      A                      A                      A
 Frequencies --   1041.8979              1049.6908              1071.8635
 Red. masses --      1.9398                 1.7745                 4.4636
 Frc consts  --      1.2407                 1.1520                 3.0214
 IR Inten    --      1.1834                 0.0086               101.0198

                     25                     26                     27
                      A                      A                      A
 Frequencies --   1076.1361              1141.9676              1144.3901
 Red. masses --      1.7523                 2.2239                 1.8767
 Frc consts  --      1.1956                 1.7087                 1.4481
 IR Inten    --      5.3048                32.3304                 9.4133

                     28                     29                     30
                      A                      A                      A
 Frequencies --   1190.5290              1191.0399              1247.9840
 Red. masses --      1.6756                 1.3363                 2.0695
 Frc consts  --      1.3993                 1.1169                 1.8991
 IR Inten    --      4.1517                 0.5646                20.1934

                     31                     32                     33
                      A                      A                      A
 Frequencies --   1278.7350              1294.0706              1357.7978
 Red. masses --      3.6274                 1.7121                 2.0747
 Frc consts  --      3.4947                 1.6893                 2.2536
 IR Inten    --      0.5668                19.0963                32.4264

                     34                     35                     36
                      A                      A                      A
 Frequencies --   1408.1189              1421.1532              1436.5531
 Red. masses --      2.3143                 1.3088                 2.0675
 Frc consts  --      2.7037                 1.5574                 2.5139
 IR Inten    --      0.5274                 1.0270                45.8749

                     37                     38                     39
                      A                      A                      A
 Frequencies --   1478.9904              1480.6311              1488.2800
 Red. masses --      1.1981                 1.0789                 1.0466
 Frc consts  --      1.5441                 1.3935                 1.3658
 IR Inten    --      6.3005                 3.8812                 3.8760

                     40                     41                     42
                      A                      A                      A
 Frequencies --   1491.0011              1501.2901              3022.7377
 Red. masses --      1.0450                 1.0719                 1.0351
 Frc consts  --      1.3688                 1.4235                 5.5725
 IR Inten    --      3.0478                 4.3741                42.4073

                     43                     44                     45
                      A                      A                      A
 Frequencies --   3060.0730              3065.7491              3084.3543
 Red. masses --      1.0367                 1.0552                 1.1013
 Frc consts  --      5.7198                 5.8435                 6.1726
 IR Inten    --      7.6730                22.0777                22.4393

                     46                     47                     48
                      A                      A                      A
 Frequencies --   3089.7174              3122.0719              3140.0584
 Red. masses --      1.1004                 1.1083                 1.1020
 Frc consts  --      6.1894                 6.3651                 6.4021
 IR Inten    --     21.4660                12.3296                12.0386

                     49                     50                     51
                      A                      A                      A
 Frequencies --   3140.9350              3219.1417              3227.9230
 Red. masses --      1.1024                 1.0914                 1.0980
 Frc consts  --      6.4079                 6.6635                 6.7406
 IR Inten    --      9.1985                 4.6227                11.9651

 - Thermochemistry -
 -------------------
 Temperature   298.150 Kelvin.  Pressure   1.00000 Atm.
 Atom     1 has atomic number  6 and mass  12.00000

 Molecular mass:   126.06808 amu.
 Principal axes and moments of inertia in atomic units:
                           1         2         3
     Eigenvalues --   512.449281199.975981261.14280
           X            0.99991  -0.01375   0.00000
           Y            0.01375   0.99991  -0.00001
           Z            0.00000   0.00001   1.00000
 This molecule is an asymmetric top.
 Rotational symmetry number  1.
 Warning -- assumption of classical behavior for rotation
           may cause significant error
 Rotational temperatures (Kelvin)      0.16902     0.07218     0.06868
 Rotational constants (GHZ):           3.52179     1.50398     1.43104
 Zero-point vibrational energy     418741.7 (Joules/Mol)
                                  100.08168 (Kcal/Mol)
 Warning -- explicit consideration of  10 degrees of freedom as
           vibrations may cause significant error
 Vibrational temperatures:    246.16   298.80   304.89   328.56   468.26
          (Kelvin)            480.47   647.63   788.03   808.92   879.48
                              963.11  1032.97  1071.49  1158.62  1186.18
                             1272.72  1280.74  1291.40  1373.05  1402.65
                             1482.21  1499.06  1510.27  1542.17  1548.32
                             1643.03  1646.52  1712.90  1713.64  1795.57
                             1839.81  1861.88  1953.57  2025.97  2044.72
                             2066.88  2127.93  2130.30  2141.30  2145.22
                             2160.02  4349.04  4402.76  4410.92  4437.69
                             4445.41  4491.96  4517.84  4519.10  4631.62
                             4644.26

 Zero-point correction=                           0.159490 (Hartree/Particle)
 Thermal correction to Energy=                    0.167145
 Thermal correction to Enthalpy=                  0.168090
 Thermal correction to Gibbs Free Energy=         0.127943
 Sum of electronic and zero-point Energies=           -423.031449
 Sum of electronic and thermal Energies=              -423.023794
 Sum of electronic and thermal Enthalpies=            -423.022850
 Sum of electronic and thermal Free Energies=         -423.062996

                     E (Thermal)             CV                S
                      KCal/Mol        Cal/Mol-Kelvin    Cal/Mol-Kelvin
 Total                  104.885             31.022             84.495
 Electronic               0.000              0.000              0.000
 Translational            0.889              2.981             40.409
 Rotational               0.889              2.981             28.141
 Vibrational            103.108             25.061             15.945
 Vibration     1          0.626              1.878              2.423
 Vibration     2          0.641              1.829              2.064
 Vibration     3          0.643              1.823              2.027
 Vibration     4          0.651              1.798              1.892
 Vibration     5          0.710              1.625              1.283
 Vibration     6          0.715              1.608              1.241
 Vibration     7          0.809              1.361              0.795
 Vibration     8          0.903              1.145              0.549
 Vibration     9          0.918              1.113              0.519
 Vibration    10          0.970              1.008              0.431

 Optimization completed.
    -- Stationary point found.
 Normal termination of Gaussian 09 at Mon Jan 27 18:50:44 2020.
