 Gaussian 09, Revision D.01,
 Gaussian 09:  ES64L-G09RevD.01 24-Apr-2013

 -----------------------------
 # b3lyp 6-31G(2df,p) opt Freq
 -----------------------------

 -----
 titel
 -----
 Symbolic Z-matrix:
 Charge =  0 Multiplicity = 1

 SCF Done:  E(RB3LYP) =  -423.211720904     A.U. after   14 cycles
 Optimization completed.
    -- Stationary point found.
 Normal termination of Gaussian 09 at Mon Jan 27 22:03:07 2020.

 ----------------------------------------------------------------------
 #N Geom=AllCheck Guess=TCheck SCRF=Check GenChk RB3LYP/6-31G(2df,p) Fr
 eq
 ----------------------------------------------------------------------

 Structure from the checkpoint file:  "/scratch/puck/g09_7454c43f-588d-4044-b1f0-f8c0e2698060/Gau-78532.chk"
 -----
 titel
 -----
 Charge =  0 Multiplicity = 1

                         Standard orientation:
 ---------------------------------------------------------------------
 Center     Atomic      Atomic             Coordinates (Angstroms)
 Number     Number       Type             X           Y           Z
 ---------------------------------------------------------------------
      1          6           0        2.706033   -0.961035   -0.095075
      2          6           0        1.321964   -0.366458   -0.022194
      3          6           0        0.253565   -1.184828   -0.027747
      4          6           0       -1.201181   -0.931029    0.026439
      5          8           0       -1.961974   -1.868587    0.189405
      6          6           0       -1.836521    0.455536   -0.127280
      7          8           0       -1.011780    1.527849   -0.503337
      8          6           0        0.013680    1.820811    0.423831
      9          6           0        1.321648    1.139516    0.042204
     10          1           0        3.264452   -0.535917   -0.938638
     11          1           0        3.280657   -0.719380    0.808091
     12          1           0        2.681343   -2.046356   -0.208956
     13          1           0        0.439825   -2.256406   -0.052289
     14          1           0       -2.606190    0.362343   -0.898872
     15          1           0       -2.358082    0.666016    0.821516
     16          1           0        0.157733    2.907165    0.415093
     17          1           0       -0.289482    1.534535    1.442433
     18          1           0        1.638893    1.517984   -0.940541
     19          1           0        2.105751    1.460837    0.742563
 ---------------------------------------------------------------------

 SCF Done:  E(RB3LYP) =  -423.211720904     A.U. after    1 cycles

 The electronic state is 1-A.
 Alpha  occ. eigenvalues --  -19.14838 -19.11794 -10.26192 -10.23965 -10.23350
 Alpha  occ. eigenvalues --  -10.22204 -10.20203 -10.19544 -10.18699  -1.04680
 Alpha  occ. eigenvalues --   -1.02666  -0.83394  -0.76902  -0.71941  -0.69846
 Alpha  occ. eigenvalues --   -0.63866  -0.57739  -0.53388  -0.50843  -0.48200
 Alpha  occ. eigenvalues --   -0.46789  -0.44603  -0.43517  -0.42417  -0.41542
 Alpha  occ. eigenvalues --   -0.39937  -0.39042  -0.38619  -0.35903  -0.34355
 Alpha  occ. eigenvalues --   -0.32255  -0.27847  -0.26192  -0.23324
 Alpha virt. eigenvalues --   -0.05026   0.06491   0.08042   0.09820   0.11585
 Alpha virt. eigenvalues --    0.12767   0.13944   0.14488   0.16323   0.16591
 Alpha virt. eigenvalues --    0.17036   0.17514   0.18600   0.22468   0.22566

 Mulliken charges:
               1
     1  C   -0.462473
     2  C    0.291940
     3  C   -0.220487
     4  C    0.315886
     5  O   -0.326655
     6  C   -0.186802
     7  O   -0.235036
     8  C   -0.102975
     9  C   -0.280541
    10  H    0.134110
    11  H    0.133743
    12  H    0.133645
    13  H    0.098513
    14  H    0.141180
    15  H    0.118464
    16  H    0.110388
    17  H    0.097236
    18  H    0.131442
    19  H    0.108421
 Sum of Mulliken charges =   0.00000

 Dipole moment (field-independent basis, Debye):
    X=              3.2063    Y=              1.9753    Z=              0.5520  Tot=              3.8062
 Quadrupole moment (field-independent basis, Debye-Ang):
   XX=            -52.8461   YY=            -57.5637   ZZ=            -53.0704
   XY=             -4.1998   XZ=              0.0938   YZ=              2.7797

  Exact polarizability: 105.231   9.557  83.901  -0.940   1.025  55.118
 Approx polarizability: 155.280  31.342 125.506  -1.969  -1.950  88.211

                      1                      2                      3
                      A                      A                      A
 Frequencies --     57.4441               144.2900               153.1859
 Red. masses --      3.0681                 1.8436                 1.8128
 Frc consts  --      0.0060                 0.0226                 0.0251
 IR Inten    --      2.4616                 0.6741                 3.3826

                      4                      5                      6
                      A                      A                      A
 Frequencies --    206.9191               279.9232               302.1249
 Red. masses --      1.6980                 4.3808                 3.3259
 Frc consts  --      0.0428                 0.2022                 0.1789
 IR Inten    --      0.5525                 9.6992                 1.0198

                      7                      8                      9
                      A                      A                      A
 Frequencies --    350.0930               430.4644               455.8875
 Red. masses --      3.3674                 2.3928                 2.3653
 Frc consts  --      0.2432                 0.2612                 0.2896
 IR Inten    --      3.4305                 0.0837                 9.3829

                     10                     11                     12
                      A                      A                      A
 Frequencies --    484.0729               540.8508               588.9719
 Red. masses --      4.8003                 2.6108                 4.1864
 Frc consts  --      0.6627                 0.4500                 0.8556
 IR Inten    --      8.1198                 4.0379                 5.4999

                     13                     14                     15
                      A                      A                      A
 Frequencies --    617.6795               790.3948               838.5466
 Red. masses --      3.0302                 2.8675                 2.8525
 Frc consts  --      0.6811                 1.0555                 1.1818
 IR Inten    --      8.2045                10.2462                 0.7592

                     16                     17                     18
                      A                      A                      A
 Frequencies --    847.5115               913.9617               980.6295
 Red. masses --      2.4056                 1.4270                 2.1445
 Frc consts  --      1.0180                 0.7023                 1.2150
 IR Inten    --      2.4894                21.5016                 6.1939

                     19                     20                     21
                      A                      A                      A
 Frequencies --   1007.9587              1029.4468              1040.8269
 Red. masses --      2.1181                 1.7045                 2.2141
 Frc consts  --      1.2679                 1.0643                 1.4132
 IR Inten    --      1.0698                 1.4489                 3.2922

                     22                     23                     24
                      A                      A                      A
 Frequencies --   1056.7347              1106.2013              1139.9245
 Red. masses --      1.7132                 2.1705                 2.6358
 Frc consts  --      1.1272                 1.5649                 2.0180
 IR Inten    --     11.7308                 4.8212                 5.3132

                     25                     26                     27
                      A                      A                      A
 Frequencies --   1179.7755              1246.1345              1286.7190
 Red. masses --      4.6586                 1.2076                 1.1997
 Frc consts  --      3.8203                 1.1049                 1.1703
 IR Inten    --     74.5188                 3.3965                13.6304

                     28                     29                     30
                      A                      A                      A
 Frequencies --   1293.3652              1321.4509              1346.5496
 Red. masses --      3.8774                 1.2846                 1.2530
 Frc consts  --      3.8215                 1.3216                 1.3386
 IR Inten    --    135.6680                 4.1952                 8.5660

                     31                     32                     33
                      A                      A                      A
 Frequencies --   1377.2406              1405.0526              1410.6540
 Red. masses --      1.3033                 1.7250                 1.2392
 Frc consts  --      1.4565                 2.0065                 1.4529
 IR Inten    --     18.9461                12.0552                 2.1955

                     34                     35                     36
                      A                      A                      A
 Frequencies --   1420.8206              1449.6955              1456.2162
 Red. masses --      1.3277                 1.0920                 1.0933
 Frc consts  --      1.5792                 1.3521                 1.3659
 IR Inten    --      1.4366                 6.4997                 5.4295

                     37                     38                     39
                      A                      A                      A
 Frequencies --   1478.7443              1485.1447              1503.6308
 Red. masses --      1.0469                 1.0712                 1.0907
 Frc consts  --      1.3488                 1.3920                 1.4529
 IR Inten    --      8.0080                10.4759                 3.8423

                     40                     41                     42
                      A                      A                      A
 Frequencies --   1692.0104              1743.8519              2972.6505
 Red. masses --      7.0462                11.5864                 1.0704
 Frc consts  --     11.8853                20.7596                 5.5727
 IR Inten    --     86.4543               183.7060                25.9886

                     43                     44                     45
                      A                      A                      A
 Frequencies --   2991.8670              3004.5555              3021.7416
 Red. masses --      1.0664                 1.0593                 1.0400
 Frc consts  --      5.6239                 5.6342                 5.5951
 IR Inten    --     39.5599                11.2332                26.4279

                     46                     47                     48
                      A                      A                      A
 Frequencies --   3035.8059              3063.0417              3068.8309
 Red. masses --      1.0971                 1.0986                 1.0980
 Frc consts  --      5.9573                 6.0729                 6.0927
 IR Inten    --     24.7508                40.9580                16.9276

                     49                     50                     51
                      A                      A                      A
 Frequencies --   3094.0483              3129.0793              3153.2727
 Red. masses --      1.0901                 1.0991                 1.0876
 Frc consts  --      6.1483                 6.3402                 6.3713
 IR Inten    --     10.1781                12.7579                10.7432

 - Thermochemistry -
 -------------------
 Temperature   298.150 Kelvin.  Pressure   1.00000 Atm.
 Atom     1 has atomic number  6 and mass  12.00000

 Molecular mass:   126.06808 amu.
 Principal axes and moments of inertia in atomic units:
                           1         2         3
     Eigenvalues --   822.803001174.610141898.48836
           X            0.99727  -0.07381  -0.00323
           Y            0.07386   0.99710   0.01861
           Z            0.00185  -0.01879   0.99982
 This molecule is an asymmetric top.
 Rotational symmetry number  1.
 Warning -- assumption of classical behavior for rotation
           may cause significant error
 Rotational temperatures (Kelvin)      0.10527     0.07374     0.04562
 Rotational constants (GHZ):           2.19341     1.53646     0.95062
 Zero-point vibrational energy     418669.0 (Joules/Mol)
                                  100.06430 (Kcal/Mol)
 Warning -- explicit consideration of  13 degrees of freedom as
           vibrations may cause significant error
 Vibrational temperatures:     82.65   207.60   220.40   297.71   402.75
          (Kelvin)            434.69   503.71   619.34   655.92   696.47
                              778.16   847.40   888.70  1137.20  1206.48
                             1219.38  1314.99  1410.91  1450.23  1481.14
                             1497.52  1520.40  1591.57  1640.10  1697.43
                             1792.91  1851.30  1860.86  1901.27  1937.38
                             1981.54  2021.55  2029.61  2044.24  2085.79
                             2095.17  2127.58  2136.79  2163.39  2434.42
                             2509.01  4276.98  4304.62  4322.88  4347.61
                             4367.84  4407.03  4415.36  4451.64  4502.04
                             4536.85

 Zero-point correction=                           0.159463 (Hartree/Particle)
 Thermal correction to Energy=                    0.168085
 Thermal correction to Enthalpy=                  0.169029
 Thermal correction to Gibbs Free Energy=         0.125859
 Sum of electronic and zero-point Energies=           -423.052258
 Sum of electronic and thermal Energies=              -423.043636
 Sum of electronic and thermal Enthalpies=            -423.042692
 Sum of electronic and thermal Free Energies=         -423.085862

                     E (Thermal)             CV                S
                      KCal/Mol        Cal/Mol-Kelvin    Cal/Mol-Kelvin
 Total                  105.475             32.244             90.859
 Electronic               0.000              0.000              0.000
 Translational            0.889              2.981             40.409
 Rotational               0.889              2.981             28.997
 Vibrational            103.697             26.282             21.454
 Vibration     1          0.596              1.975              4.543
 Vibration     2          0.616              1.909              2.746
 Vibration     3          0.619              1.899              2.632
 Vibration     4          0.641              1.830              2.071
 Vibration     5          0.680              1.711              1.534
 Vibration     6          0.694              1.670              1.405
 Vibration     7          0.727              1.575              1.166
 Vibration     8          0.792              1.404              0.857
 Vibration     9          0.814              1.348              0.778
 Vibration    10          0.840              1.285              0.699
 Vibration    11          0.896              1.160              0.563
 Vibration    12          0.946              1.055              0.469
 Vibration    13          0.977              0.995              0.420

 Optimization completed.
    -- Stationary point found.
 Normal termination of Gaussian 09 at Mon Jan 27 22:47:24 2020.
