 Gaussian 09, Revision D.01,
 Gaussian 09:  ES64L-G09RevD.01 24-Apr-2013

 -----------------------------
 # b3lyp 6-31G(2df,p) opt Freq
 -----------------------------

 -----
 titel
 -----
 Symbolic Z-matrix:
 Charge =  0 Multiplicity = 1

 SCF Done:  E(RB3LYP) =  -423.131132142     A.U. after   13 cycles
 Optimization completed.
    -- Stationary point found.
 Normal termination of Gaussian 09 at Tue Jan 28 03:01:16 2020.

 ----------------------------------------------------------------------
 #N Geom=AllCheck Guess=TCheck SCRF=Check GenChk RB3LYP/6-31G(2df,p) Fr
 eq
 ----------------------------------------------------------------------

 Structure from the checkpoint file:  "/scratch/puck/g09_bcde62df-598a-418b-8444-a19b32d86bbf/Gau-6317.chk"
 -----
 titel
 -----
 Charge =  0 Multiplicity = 1

                         Standard orientation:
 ---------------------------------------------------------------------
 Center     Atomic      Atomic             Coordinates (Angstroms)
 Number     Number       Type             X           Y           Z
 ---------------------------------------------------------------------
      1          6           0       -2.931989   -0.542561   -0.271687
      2          6           0       -1.618521   -0.214704    0.411344
      3          8           0       -1.267361    1.189004    0.250980
      4          6           0       -0.086982    0.865611   -0.500886
      5          6           0        1.159704    0.778301    0.396459
      6          8           0        2.344286    0.504009   -0.373816
      7          6           0        2.230654   -0.918783   -0.137081
      8          6           0        0.900853   -0.750500    0.615835
      9          6           0       -0.331623   -0.668090   -0.310045
     10          1           0       -2.882958   -0.316202   -1.341390
     11          1           0       -3.172585   -1.604609   -0.149705
     12          1           0       -3.742783    0.047284    0.166722
     13          1           0       -1.664777   -0.482936    1.476022
     14          1           0       -0.001207    1.407098   -1.446213
     15          1           0        1.300566    1.538990    1.168289
     16          1           0        2.201481   -1.496960   -1.069341
     17          1           0        3.059105   -1.283430    0.483562
     18          1           0        0.790432   -1.245900    1.580625
     19          1           0       -0.435245   -1.403080   -1.109508
 ---------------------------------------------------------------------

 SCF Done:  E(RB3LYP) =  -423.131132142     A.U. after    1 cycles

 The electronic state is 1-A.
 Alpha  occ. eigenvalues --  -19.13642 -19.13476 -10.23895 -10.23472 -10.23252
 Alpha  occ. eigenvalues --  -10.23178 -10.19790 -10.19577 -10.17996  -1.05127
 Alpha  occ. eigenvalues --   -1.03336  -0.81216  -0.75993  -0.71238  -0.66215
 Alpha  occ. eigenvalues --   -0.63254  -0.56482  -0.52092  -0.51293  -0.50163
 Alpha  occ. eigenvalues --   -0.49185  -0.45699  -0.43111  -0.42316  -0.40043
 Alpha  occ. eigenvalues --   -0.38606  -0.38035  -0.36018  -0.34050  -0.31857
 Alpha  occ. eigenvalues --   -0.29477  -0.27896  -0.27133  -0.23296
 Alpha virt. eigenvalues --    0.06595   0.07608   0.10201   0.10624   0.11336
 Alpha virt. eigenvalues --    0.13277   0.14076   0.15749   0.15849   0.17010
 Alpha virt. eigenvalues --    0.17215   0.17394   0.18263   0.19134   0.20888

 Mulliken charges:
               1
     1  C   -0.405662
     2  C    0.144951
     3  O   -0.309744
     4  C    0.090524
     5  C    0.089184
     6  O   -0.290217
     7  C   -0.089932
     8  C   -0.100358
     9  C   -0.100024
    10  H    0.122155
    11  H    0.114657
    12  H    0.128930
    13  H    0.075820
    14  H    0.085271
    15  H    0.085084
    16  H    0.101350
    17  H    0.103885
    18  H    0.078896
    19  H    0.075231
 Sum of Mulliken charges =   0.00000

 Dipole moment (field-independent basis, Debye):
    X=             -0.6506    Y=             -2.3781    Z=              0.3294  Tot=              2.4874
 Quadrupole moment (field-independent basis, Debye-Ang):
   XX=            -56.0419   YY=            -53.6999   ZZ=            -51.8607
   XY=             -0.3018   XZ=              2.0437   YZ=             -0.2654

  Exact polarizability:  88.653  -0.684  70.095   0.182  -0.190  65.220
 Approx polarizability: 110.678  -0.450 109.407  -3.068  -0.784  99.982

                      1                      2                      3
                      A                      A                      A
 Frequencies --     96.4861               181.6693               202.6086
 Red. masses --      3.8451                 2.2348                 3.1663
 Frc consts  --      0.0211                 0.0435                 0.0766
 IR Inten    --      0.4203                 0.3659                 2.4798

                      4                      5                      6
                      A                      A                      A
 Frequencies --    240.5678               292.3147               341.5982
 Red. masses --      1.1803                 3.1135                 2.7887
 Frc consts  --      0.0402                 0.1567                 0.1917
 IR Inten    --      1.5068                 6.5808                 0.8978

                      7                      8                      9
                      A                      A                      A
 Frequencies --    404.9762               475.1309               678.4620
 Red. masses --      4.2814                 4.2181                 3.5403
 Frc consts  --      0.4137                 0.5610                 0.9601
 IR Inten    --      0.8448                 1.4327                 5.2014

                     10                     11                     12
                      A                      A                      A
 Frequencies --    787.8859               799.4161               840.2894
 Red. masses --      1.8305                 2.3462                 1.9948
 Frc consts  --      0.6695                 0.8834                 0.8298
 IR Inten    --      2.5869                 1.3620                 7.7156

                     13                     14                     15
                      A                      A                      A
 Frequencies --    872.6139               899.6554               921.9265
 Red. masses --      2.3120                 2.5320                 2.8940
 Frc consts  --      1.0372                 1.2074                 1.4492
 IR Inten    --     18.7224                 1.2255                12.8884

                     16                     17                     18
                      A                      A                      A
 Frequencies --    941.1693               981.7064               999.3376
 Red. masses --      4.0785                 2.1543                 1.8549
 Frc consts  --      2.1285                 1.2232                 1.0914
 IR Inten    --      2.5076                 7.1036                 4.5071

                     19                     20                     21
                      A                      A                      A
 Frequencies --   1018.7450              1025.9706              1051.6249
 Red. masses --      3.3330                 3.8023                 2.8600
 Frc consts  --      2.0380                 2.3581                 1.8635
 IR Inten    --    110.2330                22.4540                69.7449

                     22                     23                     24
                      A                      A                      A
 Frequencies --   1062.2590              1081.9890              1104.9493
 Red. masses --      2.3776                 2.1210                 1.8480
 Frc consts  --      1.5807                 1.4630                 1.3293
 IR Inten    --     16.9355                13.5089                 2.3279

                     25                     26                     27
                      A                      A                      A
 Frequencies --   1133.7758              1151.7440              1169.5350
 Red. masses --      2.2166                 1.7966                 1.3217
 Frc consts  --      1.6788                 1.4041                 1.0651
 IR Inten    --      0.7427                 1.6138                 3.6271

                     28                     29                     30
                      A                      A                      A
 Frequencies --   1200.9761              1221.2744              1231.0653
 Red. masses --      1.6448                 1.6574                 1.5178
 Frc consts  --      1.3977                 1.4565                 1.3553
 IR Inten    --      9.5105                 0.0902                 0.9542

                     31                     32                     33
                      A                      A                      A
 Frequencies --   1235.9495              1264.7502              1292.6471
 Red. masses --      1.3220                 1.3858                 1.4687
 Frc consts  --      1.1899                 1.3061                 1.4459
 IR Inten    --      2.6566                12.1162                 0.1293

                     34                     35                     36
                      A                      A                      A
 Frequencies --   1316.8232              1330.7858              1359.9822
 Red. masses --      1.8409                 1.5424                 1.4506
 Frc consts  --      1.8807                 1.6094                 1.5807
 IR Inten    --      0.4970                 5.2266                 0.6479

                     37                     38                     39
                      A                      A                      A
 Frequencies --   1387.7190              1405.6321              1483.1729
 Red. masses --      1.3964                 1.3518                 1.0550
 Frc consts  --      1.5844                 1.5737                 1.3674
 IR Inten    --     12.4676                13.9885                 3.4043

                     40                     41                     42
                      A                      A                      A
 Frequencies --   1492.4657              1522.3110              3004.7115
 Red. masses --      1.0497                 1.0979                 1.0845
 Frc consts  --      1.3776                 1.4990                 5.7690
 IR Inten    --      2.7358                 0.9196                46.0353

                     43                     44                     45
                      A                      A                      A
 Frequencies --   3008.0657              3032.5580              3051.2333
 Red. masses --      1.0550                 1.0351                 1.1108
 Frc consts  --      5.6246                 5.6087                 6.0930
 IR Inten    --     82.8724                15.7154                35.9163

                     46                     47                     48
                      A                      A                      A
 Frequencies --   3080.4385              3084.6358              3099.5373
 Red. masses --      1.0860                 1.0896                 1.0899
 Frc consts  --      6.0718                 6.1086                 6.1693
 IR Inten    --     26.8965                59.4523                32.3507

                     49                     50                     51
                      A                      A                      A
 Frequencies --   3105.3889              3109.3306              3114.1805
 Red. masses --      1.1007                 1.0919                 1.1021
 Frc consts  --      6.2538                 6.2199                 6.2975
 IR Inten    --     18.9486                26.8769                27.2463

 - Thermochemistry -
 -------------------
 Temperature   298.150 Kelvin.  Pressure   1.00000 Atm.
 Atom     1 has atomic number  6 and mass  12.00000

 Molecular mass:   126.06808 amu.
 Principal axes and moments of inertia in atomic units:
                           1         2         3
     Eigenvalues --   405.318671489.046311682.69498
           X            0.99994   0.00387   0.01012
           Y           -0.00393   0.99998   0.00571
           Z           -0.01010  -0.00575   0.99993
 This molecule is an asymmetric top.
 Rotational symmetry number  1.
 Rotational temperatures (Kelvin)      0.21369     0.05817     0.05147
 Rotational constants (GHZ):           4.45265     1.21201     1.07253
 Zero-point vibrational energy     419853.6 (Joules/Mol)
                                  100.34742 (Kcal/Mol)
 Warning -- explicit consideration of   8 degrees of freedom as
           vibrations may cause significant error
 Vibrational temperatures:    138.82   261.38   291.51   346.12   420.58
          (Kelvin)            491.48   582.67   683.61   976.15  1133.59
                             1150.18  1208.99  1255.50  1294.40  1326.44
                             1354.13  1412.45  1437.82  1465.74  1476.14
                             1513.05  1528.35  1556.74  1589.77  1631.25
                             1657.10  1682.70  1727.93  1757.14  1771.23
                             1778.25  1819.69  1859.83  1894.61  1914.70
                             1956.71  1996.62  2022.39  2133.95  2147.32
                             2190.26  4323.10  4327.93  4363.17  4390.04
                             4432.06  4438.10  4459.54  4467.96  4473.63
                             4480.61

 Zero-point correction=                           0.159914 (Hartree/Particle)
 Thermal correction to Energy=                    0.167502
 Thermal correction to Enthalpy=                  0.168446
 Thermal correction to Gibbs Free Energy=         0.127814
 Sum of electronic and zero-point Energies=           -422.971218
 Sum of electronic and thermal Energies=              -422.963630
 Sum of electronic and thermal Enthalpies=            -422.962686
 Sum of electronic and thermal Free Energies=         -423.003318

                     E (Thermal)             CV                S
                      KCal/Mol        Cal/Mol-Kelvin    Cal/Mol-Kelvin
 Total                  105.109             29.500             85.518
 Electronic               0.000              0.000              0.000
 Translational            0.889              2.981             40.409
 Rotational               0.889              2.981             28.409
 Vibrational            103.332             23.538             16.700
 Vibration     1          0.603              1.952              3.524
 Vibration     2          0.630              1.865              2.311
 Vibration     3          0.639              1.836              2.109
 Vibration     4          0.658              1.778              1.799
 Vibration     5          0.688              1.688              1.461
 Vibration     6          0.721              1.592              1.205
 Vibration     7          0.770              1.459              0.945
 Vibration     8          0.832              1.305              0.723

 Optimization completed.
    -- Stationary point found.
 Normal termination of Gaussian 09 at Tue Jan 28 03:44:19 2020.
