 Gaussian 09, Revision D.01,
 Gaussian 09:  ES64L-G09RevD.01 24-Apr-2013

 -----------------------------
 # b3lyp 6-31G(2df,p) opt Freq
 -----------------------------

 -----
 titel
 -----
 Symbolic Z-matrix:
 Charge =  0 Multiplicity = 1

 SCF Done:  E(RB3LYP) =  -423.160024733     A.U. after   14 cycles
 Optimization completed.
    -- Stationary point found.
 Normal termination of Gaussian 09 at Tue Jan 28 02:01:39 2020.

 ----------------------------------------------------------------------
 #N Geom=AllCheck Guess=TCheck SCRF=Check GenChk RB3LYP/6-31G(2df,p) Fr
 eq
 ----------------------------------------------------------------------

 Structure from the checkpoint file:  "/scratch/puck/g09_34a64c75-cf73-4240-afcb-476cd38e7699/Gau-170390.chk"
 -----
 titel
 -----
 Charge =  0 Multiplicity = 1

                         Standard orientation:
 ---------------------------------------------------------------------
 Center     Atomic      Atomic             Coordinates (Angstroms)
 Number     Number       Type             X           Y           Z
 ---------------------------------------------------------------------
      1          8           0        2.249618   -0.787305   -0.906928
      2          6           0        1.735200    0.379161   -0.329378
      3          6           0        1.554888    0.452412    1.166237
      4          6           0        0.353111    0.301269    0.257030
      5          6           0       -0.675638    1.419547    0.066356
      6          6           0       -1.813768    0.782854   -0.773657
      7          6           0       -1.720540   -0.697881   -0.454025
      8          8           0       -1.616251   -0.982601    0.948459
      9          6           0       -0.415088   -0.982336    0.154002
     10          1           0        3.181258   -0.849742   -0.671760
     11          1           0        1.996745    1.300309   -0.852617
     12          1           0        1.854567   -0.419329    1.739369
     13          1           0        1.709941    1.403463    1.666051
     14          1           0       -1.063831    1.723460    1.042246
     15          1           0       -0.248234    2.306593   -0.409603
     16          1           0       -2.794454    1.208044   -0.540043
     17          1           0       -1.641041    0.919534   -1.848028
     18          1           0       -2.270189   -1.430798   -1.039592
     19          1           0        0.099317   -1.932443    0.062347
 ---------------------------------------------------------------------

 SCF Done:  E(RB3LYP) =  -423.160024733     A.U. after    1 cycles

 The electronic state is 1-A.
 Alpha  occ. eigenvalues --  -19.14717 -19.13812 -10.23727 -10.22598 -10.22507
 Alpha  occ. eigenvalues --  -10.19609 -10.18451 -10.18365 -10.18318  -1.05985
 Alpha  occ. eigenvalues --   -1.03144  -0.85860  -0.77826  -0.67239  -0.66606
 Alpha  occ. eigenvalues --   -0.60940  -0.57379  -0.54283  -0.51783  -0.51213
 Alpha  occ. eigenvalues --   -0.46303  -0.45148  -0.43531  -0.40652  -0.39543
 Alpha  occ. eigenvalues --   -0.37501  -0.36680  -0.34793  -0.34579  -0.32557
 Alpha  occ. eigenvalues --   -0.30342  -0.26905  -0.25410  -0.25219
 Alpha virt. eigenvalues --    0.07692   0.09714   0.09999   0.11441   0.12065
 Alpha virt. eigenvalues --    0.12800   0.13919   0.14954   0.16707   0.17283
 Alpha virt. eigenvalues --    0.18234   0.20024   0.20322   0.21434   0.21814

 Mulliken charges:
               1
     1  O   -0.421163
     2  C    0.047753
     3  C   -0.390907
     4  C    0.334368
     5  C   -0.307011
     6  C   -0.244285
     7  C    0.048812
     8  O   -0.274745
     9  C   -0.018487
    10  H    0.289559
    11  H    0.084960
    12  H    0.117127
    13  H    0.111685
    14  H    0.119596
    15  H    0.096492
    16  H    0.107707
    17  H    0.105525
    18  H    0.090799
    19  H    0.102214
 Sum of Mulliken charges =   0.00000

 Dipole moment (field-independent basis, Debye):
    X=              1.7896    Y=              1.1591    Z=             -0.8160  Tot=              2.2830
 Quadrupole moment (field-independent basis, Debye-Ang):
   XX=            -47.5007   YY=            -51.9298   ZZ=            -55.6067
   XY=             -1.4527   XZ=              4.5805   YZ=              0.5623

  Exact polarizability:  87.210  -1.375  71.351   5.362   0.449  66.672
 Approx polarizability: 118.035  -1.790 102.119   2.891  -0.445 105.618

                      1                      2                      3
                      A                      A                      A
 Frequencies --    105.5776               160.2528               207.2868
 Red. masses --      3.1436                 4.0385                 3.5513
 Frc consts  --      0.0206                 0.0611                 0.0899
 IR Inten    --      2.2756                 1.9929                 2.1773

                      4                      5                      6
                      A                      A                      A
 Frequencies --    273.0631               298.1226               350.8025
 Red. masses --      1.8669                 1.3426                 2.6224
 Frc consts  --      0.0820                 0.0703                 0.1901
 IR Inten    --     14.7621                80.2092                 1.0106

                      7                      8                      9
                      A                      A                      A
 Frequencies --    423.3097               445.0215               504.9638
 Red. masses --      3.3172                 2.2795                 4.3868
 Frc consts  --      0.3502                 0.2660                 0.6591
 IR Inten    --     18.0726                 5.1382                 5.1506

                     10                     11                     12
                      A                      A                      A
 Frequencies --    566.6496               683.0168               776.0374
 Red. masses --      4.1006                 2.4919                 2.8688
 Frc consts  --      0.7758                 0.6849                 1.0179
 IR Inten    --      9.0077                 0.7545                 0.9359

                     13                     14                     15
                      A                      A                      A
 Frequencies --    808.6633               829.6561               852.6673
 Red. masses --      2.1389                 4.1088                 1.9180
 Frc consts  --      0.8241                 1.6663                 0.8216
 IR Inten    --      2.0146                 8.2056                 5.4738

                     16                     17                     18
                      A                      A                      A
 Frequencies --    866.2143               907.3737               913.2846
 Red. masses --      2.3988                 2.3774                 2.2995
 Frc consts  --      1.0605                 1.1532                 1.1301
 IR Inten    --     31.9081                17.6238                 1.7282

                     19                     20                     21
                      A                      A                      A
 Frequencies --    955.7543               987.6700              1005.8514
 Red. masses --      1.7911                 2.2152                 2.1520
 Frc consts  --      0.9639                 1.2732                 1.2828
 IR Inten    --      3.0237                 8.1770                17.5762

                     22                     23                     24
                      A                      A                      A
 Frequencies --   1035.5017              1042.2915              1082.0185
 Red. masses --      1.3919                 1.3606                 2.1587
 Frc consts  --      0.8794                 0.8709                 1.4890
 IR Inten    --      1.9676                 8.6480                 9.9460

                     25                     26                     27
                      A                      A                      A
 Frequencies --   1090.3816              1117.7797              1163.9601
 Red. masses --      1.5702                 1.4197                 1.9940
 Frc consts  --      1.0999                 1.0451                 1.5917
 IR Inten    --     15.4118                 0.3219                15.1653

                     28                     29                     30
                      A                      A                      A
 Frequencies --   1193.0979              1210.3448              1248.1274
 Red. masses --      1.6116                 1.5176                 1.3193
 Frc consts  --      1.3517                 1.3099                 1.2109
 IR Inten    --     31.6636                 2.8165                17.3065

                     31                     32                     33
                      A                      A                      A
 Frequencies --   1267.0942              1281.0194              1299.6038
 Red. masses --      1.8426                 1.5987                 1.3007
 Frc consts  --      1.7430                 1.5457                 1.2944
 IR Inten    --      4.0425                 5.7920                43.3914

                     34                     35                     36
                      A                      A                      A
 Frequencies --   1319.4195              1334.3626              1378.0853
 Red. masses --      1.3138                 1.7209                 1.7156
 Frc consts  --      1.3475                 1.8053                 1.9196
 IR Inten    --      6.8423                11.3040                 1.3361

                     37                     38                     39
                      A                      A                      A
 Frequencies --   1415.3306              1439.1435              1479.6908
 Red. masses --      1.7041                 1.9470                 1.1093
 Frc consts  --      2.0113                 2.3759                 1.4310
 IR Inten    --      6.3973                13.0485                 1.4714

                     40                     41                     42
                      A                      A                      A
 Frequencies --   1488.9688              1492.4080              3038.8497
 Red. masses --      1.8374                 1.1307                 1.0624
 Frc consts  --      2.4001                 1.4838                 5.7805
 IR Inten    --     14.2543                 3.9951                27.6972

                     43                     44                     45
                      A                      A                      A
 Frequencies --   3058.2235              3084.1982              3085.7036
 Red. masses --      1.0607                 1.0961                 1.0910
 Frc consts  --      5.8448                 6.1428                 6.1206
 IR Inten    --     19.9119                12.5778                38.7428

                     46                     47                     48
                      A                      A                      A
 Frequencies --   3103.3672              3122.4884              3144.0910
 Red. masses --      1.1051                 1.0544                 1.0899
 Frc consts  --      6.2705                 6.0572                 6.3479
 IR Inten    --     31.2781                11.2060                30.4556

                     49                     50                     51
                      A                      A                      A
 Frequencies --   3183.3389              3211.8936              3805.1352
 Red. masses --      1.0927                 1.1170                 1.0663
 Frc consts  --      6.5239                 6.7890                 9.0964
 IR Inten    --     12.7025                 7.9406                23.4881

 - Thermochemistry -
 -------------------
 Temperature   298.150 Kelvin.  Pressure   1.00000 Atm.
 Atom     1 has atomic number  8 and mass  15.99491

 Molecular mass:   126.06808 amu.
 Principal axes and moments of inertia in atomic units:
                           1         2         3
     Eigenvalues --   604.652001352.078941465.45538
           X            0.99936  -0.01375   0.03312
           Y            0.01290   0.99959   0.02556
           Z           -0.03346  -0.02512   0.99912
 This molecule is an asymmetric top.
 Rotational symmetry number  1.
 Warning -- assumption of classical behavior for rotation
           may cause significant error
 Rotational temperatures (Kelvin)      0.14325     0.06406     0.05910
 Rotational constants (GHZ):           2.98476     1.33479     1.23152
 Zero-point vibrational energy     419513.4 (Joules/Mol)
                                  100.26610 (Kcal/Mol)
 Warning -- explicit consideration of  10 degrees of freedom as
           vibrations may cause significant error
 Vibrational temperatures:    151.90   230.57   298.24   392.88   428.93
          (Kelvin)            504.73   609.05   640.29   726.53   815.28
                              982.71  1116.54  1163.48  1193.69  1226.80
                             1246.29  1305.51  1314.01  1375.12  1421.04
                             1447.19  1489.85  1499.62  1556.78  1568.81
                             1608.23  1674.68  1716.60  1741.41  1795.77
                             1823.06  1843.10  1869.84  1898.35  1919.85
                             1982.75  2036.34  2070.60  2128.94  2142.29
                             2147.24  4372.22  4400.10  4437.47  4439.63
                             4465.05  4492.56  4523.64  4580.11  4621.19
                             5474.73

 Zero-point correction=                           0.159784 (Hartree/Particle)
 Thermal correction to Energy=                    0.167707
 Thermal correction to Enthalpy=                  0.168651
 Thermal correction to Gibbs Free Energy=         0.127535
 Sum of electronic and zero-point Energies=           -423.000241
 Sum of electronic and thermal Energies=              -422.992317
 Sum of electronic and thermal Enthalpies=            -422.991373
 Sum of electronic and thermal Free Energies=         -423.032490

                     E (Thermal)             CV                S
                      KCal/Mol        Cal/Mol-Kelvin    Cal/Mol-Kelvin
 Total                  105.238             31.425             86.537
 Electronic               0.000              0.000              0.000
 Translational            0.889              2.981             40.409
 Rotational               0.889              2.981             28.573
 Vibrational            103.460             25.464             17.555
 Vibration     1          0.605              1.945              3.349
 Vibration     2          0.622              1.891              2.547
 Vibration     3          0.641              1.829              2.067
 Vibration     4          0.676              1.723              1.577
 Vibration     5          0.691              1.677              1.427
 Vibration     6          0.728              1.574              1.163
 Vibration     7          0.785              1.420              0.881
 Vibration     8          0.804              1.372              0.811
 Vibration     9          0.860              1.239              0.646
 Vibration    10          0.923              1.103              0.511

 Normal termination of Gaussian 09 at Tue Jan 28 02:37:40 2020.
