 Gaussian 09, Revision D.01,
 Gaussian 09:  ES64L-G09RevD.01 24-Apr-2013

 -----------------------------
 # b3lyp 6-31G(2df,p) opt Freq
 -----------------------------

 -----
 titel
 -----
 Symbolic Z-matrix:
 Charge =  0 Multiplicity = 1

 SCF Done:  E(RB3LYP) =  -423.187891194     A.U. after   14 cycles
 Optimization completed.
    -- Stationary point found.
 Normal termination of Gaussian 09 at Mon Jan 27 16:32:14 2020.

 ----------------------------------------------------------------------
 #N Geom=AllCheck Guess=TCheck SCRF=Check GenChk RB3LYP/6-31G(2df,p) Fr
 eq
 ----------------------------------------------------------------------

 Structure from the checkpoint file:  "/scratch/puck/g09_890cfc11-492b-4923-a860-3c23c42c0f48/Gau-166528.chk"
 -----
 titel
 -----
 Charge =  0 Multiplicity = 1

                         Standard orientation:
 ---------------------------------------------------------------------
 Center     Atomic      Atomic             Coordinates (Angstroms)
 Number     Number       Type             X           Y           Z
 ---------------------------------------------------------------------
      1          8           0       -1.023498    1.502411   -0.090900
      2          6           0       -0.492940    0.210073    0.049471
      3          6           0        0.400996    0.063939    1.342777
      4          6           0        1.772991   -0.160614    0.679670
      5          6           0        1.429504   -1.243329   -0.381869
      6          6           0        0.609926   -0.078224   -1.011685
      7          6           0        1.744792    0.855403   -0.496847
      8          6           0       -1.623468   -0.790496    0.003466
      9          8           0       -2.776108   -0.448804   -0.128342
     10          1           0       -1.982522    1.382350   -0.181373
     11          1           0        0.329247    0.989469    1.917356
     12          1           0        0.107123   -0.772053    1.986308
     13          1           0        2.632801   -0.254614    1.342808
     14          1           0        2.285924   -1.515105   -1.003116
     15          1           0        0.914894   -2.150321   -0.051476
     16          1           0        0.281298   -0.079488   -2.050975
     17          1           0        2.637125    0.794581   -1.123828
     18          1           0        1.489348    1.895138   -0.286533
     19          1           0       -1.349204   -1.859318    0.094877
 ---------------------------------------------------------------------

 SCF Done:  E(RB3LYP) =  -423.187891194     A.U. after    1 cycles

 The electronic state is 1-A.
 Alpha  occ. eigenvalues --  -19.15721 -19.13185 -10.27847 -10.24608 -10.20115
 Alpha  occ. eigenvalues --  -10.19910 -10.19309 -10.19048 -10.18637  -1.06897
 Alpha  occ. eigenvalues --   -1.01626  -0.89292  -0.74010  -0.70513  -0.66864
 Alpha  occ. eigenvalues --   -0.61646  -0.55835  -0.54778  -0.52574  -0.51320
 Alpha  occ. eigenvalues --   -0.48106  -0.45542  -0.42999  -0.41356  -0.38437
 Alpha  occ. eigenvalues --   -0.38224  -0.35975  -0.35609  -0.34342  -0.33376
 Alpha  occ. eigenvalues --   -0.31949  -0.31648  -0.26789  -0.26120
 Alpha virt. eigenvalues --   -0.03550   0.08758   0.10792   0.10898   0.12179
 Alpha virt. eigenvalues --    0.13700   0.15106   0.15477   0.15698   0.15993
 Alpha virt. eigenvalues --    0.18269   0.18515   0.19749   0.20941   0.22264

 Mulliken charges:
               1
     1  O   -0.494596
     2  C    0.354448
     3  C   -0.282740
     4  C   -0.014238
     5  C   -0.241822
     6  C   -0.066685
     7  C   -0.227111
     8  C    0.095093
     9  O   -0.279959
    10  H    0.289355
    11  H    0.122477
    12  H    0.098344
    13  H    0.065971
    14  H    0.105536
    15  H    0.089856
    16  H    0.071880
    17  H    0.098316
    18  H    0.118792
    19  H    0.097083
 Sum of Mulliken charges =   0.00000

 Dipole moment (field-independent basis, Debye):
    X=              2.0442    Y=             -1.4300    Z=              0.2286  Tot=              2.5052
 Quadrupole moment (field-independent basis, Debye-Ang):
   XX=            -58.1278   YY=            -54.1729   ZZ=            -51.9442
   XY=             -0.5268   XZ=             -0.6688   YZ=              0.0314

  Exact polarizability:  88.653  -0.573  72.536   0.070  -0.431  65.868
 Approx polarizability: 129.289  -2.633 111.246   2.308  -1.323  99.423

                      1                      2                      3
                      A                      A                      A
 Frequencies --     99.4201               171.5515               254.7030
 Red. masses --      5.4397                 3.5898                 2.4100
 Frc consts  --      0.0317                 0.0622                 0.0921
 IR Inten    --      0.0751                 0.9856                 2.7535

                      4                      5                      6
                      A                      A                      A
 Frequencies --    329.9868               374.2637               419.9885
 Red. masses --      4.9907                 2.6362                 4.3514
 Frc consts  --      0.3202                 0.2176                 0.4522
 IR Inten    --     15.2280                19.9746                 4.2960

                      7                      8                      9
                      A                      A                      A
 Frequencies --    432.0888               477.7169               495.4058
 Red. masses --      1.7275                 3.0809                 1.3853
 Frc consts  --      0.1900                 0.4143                 0.2003
 IR Inten    --     14.8112                 6.3367                28.6713

                     10                     11                     12
                      A                      A                      A
 Frequencies --    532.3234               706.9848               820.2612
 Red. masses --      1.8940                 3.3962                 4.0778
 Frc consts  --      0.3162                 1.0001                 1.6165
 IR Inten    --      3.7707                 3.0281                 8.4505

                     13                     14                     15
                      A                      A                      A
 Frequencies --    832.0155               846.7040               853.4812
 Red. masses --      4.2944                 2.2981                 2.1289
 Frc consts  --      1.7515                 0.9707                 0.9137
 IR Inten    --     20.4580                 4.9061                 2.7132

                     16                     17                     18
                      A                      A                      A
 Frequencies --    868.7827               905.8045               935.5692
 Red. masses --      2.2931                 1.8455                 2.0050
 Frc consts  --      1.0197                 0.8921                 1.0340
 IR Inten    --      2.7368                 7.1544                 0.7564

                     19                     20                     21
                      A                      A                      A
 Frequencies --    954.1709              1001.3468              1023.3978
 Red. masses --      2.2840                 1.4556                 1.6851
 Frc consts  --      1.2252                 0.8599                 1.0398
 IR Inten    --      0.5351                13.1544                 3.6196

                     22                     23                     24
                      A                      A                      A
 Frequencies --   1034.1428              1050.1542              1059.3752
 Red. masses --      1.9941                 1.7721                 1.5464
 Frc consts  --      1.2565                 1.1514                 1.0225
 IR Inten    --      2.5133                 5.4474                28.4633

                     25                     26                     27
                      A                      A                      A
 Frequencies --   1087.4518              1110.9155              1141.6285
 Red. masses --      1.1192                 1.7944                 2.1154
 Frc consts  --      0.7798                 1.3048                 1.6244
 IR Inten    --      0.3808                30.9570                 2.2414

                     28                     29                     30
                      A                      A                      A
 Frequencies --   1164.6617              1227.7120              1238.0119
 Red. masses --      1.4980                 1.3850                 1.9991
 Frc consts  --      1.1972                 1.2300                 1.8053
 IR Inten    --      7.9838                 0.1728                10.2748

                     31                     32                     33
                      A                      A                      A
 Frequencies --   1245.3439              1262.2485              1282.8152
 Red. masses --      1.8517                 1.6110                 1.7398
 Frc consts  --      1.6920                 1.5122                 1.6869
 IR Inten    --     11.5169                 5.9056                 1.3046

                     34                     35                     36
                      A                      A                      A
 Frequencies --   1295.6926              1325.2277              1391.1734
 Red. masses --      1.6878                 1.6026                 1.1992
 Frc consts  --      1.6695                 1.6583                 1.3674
 IR Inten    --      6.0177                18.8870                74.5187

                     37                     38                     39
                      A                      A                      A
 Frequencies --   1441.5864              1485.7989              1489.7441
 Red. masses --      1.4167                 1.0912                 1.0951
 Frc consts  --      1.7347                 1.4193                 1.4320
 IR Inten    --     37.0087                 2.6127                 2.3778

                     40                     41                     42
                      A                      A                      A
 Frequencies --   1525.0464              1800.5588              2943.7479
 Red. masses --      1.1195                10.3510                 1.0859
 Frc consts  --      1.5341                19.7718                 5.5443
 IR Inten    --      1.5215               187.7414                52.6188

                     43                     44                     45
                      A                      A                      A
 Frequencies --   3049.0720              3055.8392              3072.0071
 Red. masses --      1.0636                 1.0585                 1.0570
 Frc consts  --      5.8257                 5.8240                 5.8774
 IR Inten    --     22.7174                50.8826                20.8524

                     46                     47                     48
                      A                      A                      A
 Frequencies --   3112.9763              3115.0762              3117.3982
 Red. masses --      1.1052                 1.0913                 1.0964
 Frc consts  --      6.3104                 6.2391                 6.2780
 IR Inten    --     18.0876                59.3777                25.6987

                     49                     50                     51
                      A                      A                      A
 Frequencies --   3120.9862              3136.8939              3680.3088
 Red. masses --      1.0947                 1.1095                 1.0647
 Frc consts  --      6.2826                 6.4325                 8.4964
 IR Inten    --     20.0204                21.3430                82.7267

 - Thermochemistry -
 -------------------
 Temperature   298.150 Kelvin.  Pressure   1.00000 Atm.
 Atom     1 has atomic number  8 and mass  15.99491

 Molecular mass:   126.06808 amu.
 Principal axes and moments of inertia in atomic units:
                           1         2         3
     Eigenvalues --   550.397691315.619421432.22023
           X            0.99996  -0.00597  -0.00665
           Y            0.00596   0.99998  -0.00145
           Z            0.00666   0.00141   0.99998
 This molecule is an asymmetric top.
 Rotational symmetry number  1.
 Warning -- assumption of classical behavior for rotation
           may cause significant error
 Rotational temperatures (Kelvin)      0.15737     0.06584     0.06048
 Rotational constants (GHZ):           3.27898     1.37178     1.26010
 Zero-point vibrational energy     421082.9 (Joules/Mol)
                                  100.64123 (Kcal/Mol)
 Warning -- explicit consideration of  10 degrees of freedom as
           vibrations may cause significant error
 Vibrational temperatures:    143.04   246.82   366.46   474.78   538.48
          (Kelvin)            604.27   621.68   687.33   712.78   765.89
                             1017.19  1180.17  1197.08  1218.22  1227.97
                             1249.98  1303.25  1346.07  1372.84  1440.71
                             1472.44  1487.90  1510.94  1524.20  1564.60
                             1598.36  1642.55  1675.69  1766.40  1781.22
                             1791.77  1816.09  1845.68  1864.21  1906.70
                             2001.59  2074.12  2137.73  2143.41  2194.20
                             2590.60  4235.39  4386.93  4396.67  4419.93
                             4478.87  4481.89  4485.24  4490.40  4513.29
                             5295.14

 Zero-point correction=                           0.160382 (Hartree/Particle)
 Thermal correction to Energy=                    0.167956
 Thermal correction to Enthalpy=                  0.168900
 Thermal correction to Gibbs Free Energy=         0.128550
 Sum of electronic and zero-point Energies=           -423.027509
 Sum of electronic and thermal Energies=              -423.019935
 Sum of electronic and thermal Enthalpies=            -423.018991
 Sum of electronic and thermal Free Energies=         -423.059341

                     E (Thermal)             CV                S
                      KCal/Mol        Cal/Mol-Kelvin    Cal/Mol-Kelvin
 Total                  105.394             30.703             84.923
 Electronic               0.000              0.000              0.000
 Translational            0.889              2.981             40.409
 Rotational               0.889              2.981             28.430
 Vibrational            103.616             24.741             16.085
 Vibration     1          0.604              1.950              3.466
 Vibration     2          0.626              1.877              2.418
 Vibration     3          0.665              1.755              1.698
 Vibration     4          0.713              1.616              1.260
 Vibration     5          0.745              1.525              1.062
 Vibration     6          0.783              1.427              0.892
 Vibration     7          0.793              1.400              0.852
 Vibration     8          0.834              1.299              0.716
 Vibration     9          0.851              1.260              0.670
 Vibration    10          0.887              1.179              0.582

 Optimization completed.
    -- Stationary point found.
 Normal termination of Gaussian 09 at Mon Jan 27 17:20:14 2020.
