 Gaussian 09, Revision D.01,
 Gaussian 09:  ES64L-G09RevD.01 24-Apr-2013

 -----------------------------
 # b3lyp 6-31G(2df,p) opt Freq
 -----------------------------

 -----
 titel
 -----
 Symbolic Z-matrix:
 Charge =  0 Multiplicity = 1

 SCF Done:  E(RB3LYP) =  -423.142686751     A.U. after   13 cycles
 Optimization completed.
    -- Stationary point found.
 Normal termination of Gaussian 09 at Tue Jan 28 09:59:28 2020.

 ----------------------------------------------------------------------
 #N Geom=AllCheck Guess=TCheck SCRF=Check GenChk RB3LYP/6-31G(2df,p) Fr
 eq
 ----------------------------------------------------------------------

 Structure from the checkpoint file:  "/scratch/puck/g09_dbf82114-1129-4d29-a22a-b0a0dde72271/Gau-21629.chk"
 -----
 titel
 -----
 Charge =  0 Multiplicity = 1

                         Standard orientation:
 ---------------------------------------------------------------------
 Center     Atomic      Atomic             Coordinates (Angstroms)
 Number     Number       Type             X           Y           Z
 ---------------------------------------------------------------------
      1          8           0       -2.767711   -0.228041   -0.265991
      2          6           0       -1.786795   -0.295923    0.754773
      3          6           0       -0.410992   -0.049806    0.199276
      4          6           0        0.180003   -0.923379   -0.927780
      5          6           0        1.580452   -0.285994   -0.823478
      6          6           0        2.011952   -0.717600    0.604054
      7          6           0        0.889379    0.226168    1.063844
      8          6           0        1.106910    1.108199   -0.182337
      9          8           0       -0.292166    1.284553   -0.417307
     10          1           0       -2.644712    0.621360   -0.706036
     11          1           0       -1.991215    0.427306    1.559284
     12          1           0       -1.842262   -1.301805    1.185087
     13          1           0        0.188288   -1.995582   -0.712948
     14          1           0       -0.344149   -0.740204   -1.866318
     15          1           0        2.254229   -0.347513   -1.675897
     16          1           0        1.959749   -1.782197    0.849863
     17          1           0        2.990098   -0.321607    0.892373
     18          1           0        0.761889    0.614873    2.073096
     19          1           0        1.721640    2.003289   -0.262222
 ---------------------------------------------------------------------

 SCF Done:  E(RB3LYP) =  -423.142686751     A.U. after    1 cycles

 The electronic state is 1-A.
 Alpha  occ. eigenvalues --  -19.13565 -19.13420 -10.24094 -10.23852 -10.22875
 Alpha  occ. eigenvalues --  -10.19474 -10.19391 -10.18844 -10.18109  -1.05639
 Alpha  occ. eigenvalues --   -1.01398  -0.85738  -0.74628  -0.71034  -0.64988
 Alpha  occ. eigenvalues --   -0.64058  -0.56487  -0.52783  -0.52403  -0.48738
 Alpha  occ. eigenvalues --   -0.46942  -0.45235  -0.44374  -0.42725  -0.38881
 Alpha  occ. eigenvalues --   -0.37682  -0.35514  -0.34504  -0.33499  -0.32152
 Alpha  occ. eigenvalues --   -0.30666  -0.28805  -0.26839  -0.24469
 Alpha virt. eigenvalues --    0.06920   0.10194   0.10948   0.11921   0.12440
 Alpha virt. eigenvalues --    0.13499   0.14084   0.14945   0.15706   0.16632
 Alpha virt. eigenvalues --    0.17397   0.17876   0.19490   0.19813   0.21663

 Mulliken charges:
               1
     1  O   -0.416908
     2  C   -0.183078
     3  C    0.399952
     4  C   -0.232842
     5  C   -0.090931
     6  C   -0.254693
     7  C   -0.131704
     8  C    0.117574
     9  O   -0.344718
    10  H    0.297569
    11  H    0.093865
    12  H    0.111815
    13  H    0.096293
    14  H    0.109121
    15  H    0.069388
    16  H    0.097292
    17  H    0.102340
    18  H    0.074506
    19  H    0.085160
 Sum of Mulliken charges =   0.00000

 Dipole moment (field-independent basis, Debye):
    X=              1.9521    Y=             -0.0796    Z=              0.7555  Tot=              2.0947
 Quadrupole moment (field-independent basis, Debye-Ang):
   XX=            -56.2256   YY=            -53.1672   ZZ=            -51.6953
   XY=             -1.0506   XZ=             -0.8358   YZ=             -0.4176

  Exact polarizability:  82.338   0.544  69.631   0.259   0.313  69.542
 Approx polarizability: 112.422   0.113 109.802   2.003  -1.966 105.226

                      1                      2                      3
                      A                      A                      A
 Frequencies --     87.6836               162.0726               276.1475
 Red. masses --      3.8162                 4.0869                 2.1955
 Frc consts  --      0.0173                 0.0632                 0.0986
 IR Inten    --      4.4524                 0.3585                 2.8063

                      4                      5                      6
                      A                      A                      A
 Frequencies --    327.5846               414.2431               455.6492
 Red. masses --      2.2369                 1.3468                 1.8825
 Frc consts  --      0.1414                 0.1362                 0.2303
 IR Inten    --     17.1054               116.9501                 2.3346

                      7                      8                      9
                      A                      A                      A
 Frequencies --    463.7369               539.4208               653.2446
 Red. masses --      2.3527                 4.5729                 4.4976
 Frc consts  --      0.2981                 0.7840                 1.1308
 IR Inten    --      1.2663                 6.1398                 4.7529

                     10                     11                     12
                      A                      A                      A
 Frequencies --    686.3488               757.0563               791.9549
 Red. masses --      3.9028                 4.2297                 2.6568
 Frc consts  --      1.0832                 1.4283                 0.9818
 IR Inten    --      3.6218                15.4161                 4.9284

                     13                     14                     15
                      A                      A                      A
 Frequencies --    828.4196               844.8276               857.0280
 Red. masses --      2.5697                 3.5020                 1.7743
 Frc consts  --      1.0390                 1.4727                 0.7678
 IR Inten    --      7.4203                18.9290                 6.1691

                     16                     17                     18
                      A                      A                      A
 Frequencies --    908.0846               931.6228               962.8678
 Red. masses --      2.3640                 1.8297                 1.8942
 Frc consts  --      1.1485                 0.9356                 1.0347
 IR Inten    --      2.4510                12.9359                 8.0632

                     19                     20                     21
                      A                      A                      A
 Frequencies --    972.8587               999.0270              1015.9924
 Red. masses --      1.7754                 2.3787                 2.6763
 Frc consts  --      0.9900                 1.3987                 1.6277
 IR Inten    --     11.0826                12.5485                68.2397

                     22                     23                     24
                      A                      A                      A
 Frequencies --   1042.6420              1053.3778              1067.0673
 Red. masses --      1.4017                 1.7573                 2.7431
 Frc consts  --      0.8978                 1.1489                 1.8403
 IR Inten    --      6.1412                 8.2807                55.6904

                     25                     26                     27
                      A                      A                      A
 Frequencies --   1117.0489              1122.5033              1152.0576
 Red. masses --      1.5071                 2.6030                 1.4682
 Frc consts  --      1.1080                 1.9324                 1.1481
 IR Inten    --      1.2013                 4.1853                 2.2188

                     28                     29                     30
                      A                      A                      A
 Frequencies --   1178.1901              1199.9320              1216.3490
 Red. masses --      1.6750                 1.5568                 1.4676
 Frc consts  --      1.3699                 1.3207                 1.2793
 IR Inten    --      2.5151                 2.6710                 6.0106

                     31                     32                     33
                      A                      A                      A
 Frequencies --   1235.2845              1257.9107              1270.0800
 Red. masses --      1.3083                 1.6780                 1.8337
 Frc consts  --      1.1762                 1.5643                 1.7428
 IR Inten    --      7.3534                15.0346                 1.2401

                     34                     35                     36
                      A                      A                      A
 Frequencies --   1281.6967              1307.9922              1356.0050
 Red. masses --      1.7056                 1.6898                 2.2290
 Frc consts  --      1.6508                 1.7033                 2.4148
 IR Inten    --      1.0329                13.5684                13.5470

                     37                     38                     39
                      A                      A                      A
 Frequencies --   1384.1081              1436.9466              1481.3213
 Red. masses --      1.3093                 1.4297                 1.1136
 Frc consts  --      1.4779                 1.7394                 1.4397
 IR Inten    --      7.1841                52.3207                 3.1420

                     40                     41                     42
                      A                      A                      A
 Frequencies --   1495.3608              1504.7312              2987.4615
 Red. masses --      1.0935                 1.1130                 1.0687
 Frc consts  --      1.4407                 1.4848                 5.6195
 IR Inten    --      0.8729                 1.6562                49.5792

                     43                     44                     45
                      A                      A                      A
 Frequencies --   3050.0114              3067.6226              3073.4539
 Red. masses --      1.0568                 1.0646                 1.0908
 Frc consts  --      5.7920                 5.9024                 6.0708
 IR Inten    --     38.0399                11.3461                30.9017

                     46                     47                     48
                      A                      A                      A
 Frequencies --   3103.6007              3126.1731              3130.4283
 Red. masses --      1.1080                 1.0887                 1.0956
 Frc consts  --      6.2884                 6.2690                 6.3256
 IR Inten    --     27.0674                20.0681                33.6827

                     49                     50                     51
                      A                      A                      A
 Frequencies --   3134.9077              3141.9358              3797.1117
 Red. masses --      1.0982                 1.0947                 1.0659
 Frc consts  --      6.3591                 6.3671                 9.0543
 IR Inten    --     31.5920                39.5354                26.2762

 - Thermochemistry -
 -------------------
 Temperature   298.150 Kelvin.  Pressure   1.00000 Atm.
 Atom     1 has atomic number  8 and mass  15.99491

 Molecular mass:   126.06808 amu.
 Principal axes and moments of inertia in atomic units:
                           1         2         3
     Eigenvalues --   503.031901316.287911354.39611
           X            0.99996  -0.00647  -0.00556
           Y            0.00696   0.99565   0.09292
           Z            0.00494  -0.09296   0.99566
 This molecule is an asymmetric top.
 Rotational symmetry number  1.
 Warning -- assumption of classical behavior for rotation
           may cause significant error
 Rotational temperatures (Kelvin)      0.17218     0.06580     0.06395
 Rotational constants (GHZ):           3.58773     1.37108     1.33251
 Zero-point vibrational energy     422934.8 (Joules/Mol)
                                  101.08385 (Kcal/Mol)
 Warning -- explicit consideration of   8 degrees of freedom as
           vibrations may cause significant error
 Vibrational temperatures:    126.16   233.19   397.31   471.32   596.00
          (Kelvin)            655.58   667.21   776.11   939.87   987.50
                             1089.23  1139.45  1191.91  1215.52  1233.07
                             1306.53  1340.40  1385.35  1399.72  1437.38
                             1461.78  1500.13  1515.57  1535.27  1607.18
                             1615.03  1657.55  1695.15  1726.43  1750.05
                             1777.30  1809.85  1827.36  1844.07  1881.91
                             1950.99  1991.42  2067.44  2131.29  2151.49
                             2164.97  4298.29  4388.28  4413.62  4422.01
                             4465.38  4497.86  4503.98  4510.43  4520.54
                             5463.19

 Zero-point correction=                           0.161087 (Hartree/Particle)
 Thermal correction to Energy=                    0.168330
 Thermal correction to Enthalpy=                  0.169274
 Thermal correction to Gibbs Free Energy=         0.129429
 Sum of electronic and zero-point Energies=           -422.981599
 Sum of electronic and thermal Energies=              -422.974357
 Sum of electronic and thermal Enthalpies=            -422.973412
 Sum of electronic and thermal Free Energies=         -423.013258

                     E (Thermal)             CV                S
                      KCal/Mol        Cal/Mol-Kelvin    Cal/Mol-Kelvin
 Total                  105.629             29.577             83.862
 Electronic               0.000              0.000              0.000
 Translational            0.889              2.981             40.409
 Rotational               0.889              2.981             28.285
 Vibrational            103.851             23.615             15.168
 Vibration     1          0.601              1.958              3.711
 Vibration     2          0.622              1.889              2.525
 Vibration     3          0.678              1.718              1.557
 Vibration     4          0.711              1.620              1.272
 Vibration     5          0.778              1.439              0.912
 Vibration     6          0.814              1.348              0.779
 Vibration     7          0.821              1.330              0.755
 Vibration     8          0.894              1.163              0.567

 Optimization completed.
    -- Stationary point found.
 Normal termination of Gaussian 09 at Tue Jan 28 10:46:14 2020.
