 Gaussian 09, Revision D.01,
 Gaussian 09:  ES64L-G09RevD.01 24-Apr-2013

 -----------------------------
 # b3lyp 6-31G(2df,p) opt Freq
 -----------------------------

 -----
 titel
 -----
 Symbolic Z-matrix:
 Charge =  0 Multiplicity = 1

 SCF Done:  E(RB3LYP) =  -423.219917702     A.U. after   14 cycles
 Optimization completed.
    -- Stationary point found.
 Normal termination of Gaussian 09 at Tue Jan 28 03:58:24 2020.

 ----------------------------------------------------------------------
 #N Geom=AllCheck Guess=TCheck SCRF=Check GenChk RB3LYP/6-31G(2df,p) Fr
 eq
 ----------------------------------------------------------------------

 Structure from the checkpoint file:  "/scratch/puck/g09_ac881f68-2be4-4685-a2c5-567e4e782f2d/Gau-32165.chk"
 -----
 titel
 -----
 Charge =  0 Multiplicity = 1

                         Standard orientation:
 ---------------------------------------------------------------------
 Center     Atomic      Atomic             Coordinates (Angstroms)
 Number     Number       Type             X           Y           Z
 ---------------------------------------------------------------------
      1          6           0        2.929814   -0.403898    0.190533
      2          6           0        1.433549   -0.082958    0.309663
      3          6           0        0.619810   -1.220495   -0.319319
      4          8           0       -0.786111   -1.295330   -0.033345
      5          6           0       -1.695170   -0.292542    0.046037
      6          8           0       -2.853758   -0.566288   -0.115091
      7          6           0       -1.260443    1.107057    0.478674
      8          6           0       -0.133922    1.753529   -0.290503
      9          6           0        1.088792    1.235793   -0.344602
     10          1           0        3.224396   -0.522062   -0.858602
     11          1           0        3.530753    0.405972    0.614185
     12          1           0        3.185182   -1.327120    0.718789
     13          1           0        1.173930   -0.038542    1.378027
     14          1           0        0.740175   -1.190833   -1.409790
     15          1           0        0.998783   -2.184277    0.034736
     16          1           0       -2.165952    1.711951    0.436620
     17          1           0       -0.980747    1.024918    1.540022
     18          1           0       -0.357454    2.689931   -0.792401
     19          1           0        1.875303    1.744088   -0.896998
 ---------------------------------------------------------------------

 SCF Done:  E(RB3LYP) =  -423.219917702     A.U. after    1 cycles

 The electronic state is 1-A.
 Alpha  occ. eigenvalues --  -19.17160 -19.11440 -10.30482 -10.24963 -10.20952
 Alpha  occ. eigenvalues --  -10.20392 -10.19763 -10.19320 -10.19304  -1.08731
 Alpha  occ. eigenvalues --   -1.00782  -0.83671  -0.79204  -0.71466  -0.70699
 Alpha  occ. eigenvalues --   -0.63675  -0.55751  -0.55348  -0.50007  -0.49519
 Alpha  occ. eigenvalues --   -0.48381  -0.45175  -0.43149  -0.41969  -0.41913
 Alpha  occ. eigenvalues --   -0.39427  -0.39171  -0.37853  -0.36372  -0.33591
 Alpha  occ. eigenvalues --   -0.32397  -0.29354  -0.27456  -0.24437
 Alpha virt. eigenvalues --   -0.00296   0.01669   0.08409   0.09099   0.10161
 Alpha virt. eigenvalues --    0.11068   0.13367   0.15243   0.15794   0.16809
 Alpha virt. eigenvalues --    0.17483   0.18761   0.19889   0.20667   0.22695

 Mulliken charges:
               1
     1  C   -0.416938
     2  C   -0.051369
     3  C   -0.039837
     4  O   -0.240966
     5  C    0.393797
     6  O   -0.305379
     7  C   -0.377708
     8  C   -0.095651
     9  C   -0.041447
    10  H    0.124470
    11  H    0.126180
    12  H    0.121567
    13  H    0.095036
    14  H    0.115153
    15  H    0.117232
    16  H    0.137346
    17  H    0.139784
    18  H    0.105960
    19  H    0.092770
 Sum of Mulliken charges =   0.00000

 Dipole moment (field-independent basis, Debye):
    X=              4.0404    Y=              1.5951    Z=              0.4066  Tot=              4.3628
 Quadrupole moment (field-independent basis, Debye-Ang):
   XX=            -61.5146   YY=            -52.7934   ZZ=            -51.7577
   XY=             -5.8939   XZ=             -1.4924   YZ=             -0.5781

  Exact polarizability: 100.572  -6.526  74.943  -2.057  -1.939  57.648
 Approx polarizability: 145.497  -9.620 106.545  -2.459  -2.888  90.396

                      1                      2                      3
                      A                      A                      A
 Frequencies --     63.1722                74.4236               170.2751
 Red. masses --      6.9122                 2.6493                 2.6844
 Frc consts  --      0.0163                 0.0086                 0.0459
 IR Inten    --      1.3943                 4.4080                 2.1820

                      4                      5                      6
                      A                      A                      A
 Frequencies --    225.7963               278.9560               306.4768
 Red. masses --      1.1098                 2.3380                 3.1543
 Frc consts  --      0.0333                 0.1072                 0.1746
 IR Inten    --      0.0387                 0.5789                 0.2116

                      7                      8                      9
                      A                      A                      A
 Frequencies --    320.4356               378.1715               473.1539
 Red. masses --      3.2473                 3.4849                 3.7610
 Frc consts  --      0.1965                 0.2936                 0.4961
 IR Inten    --      1.2364                 1.8387                 3.3258

                     10                     11                     12
                      A                      A                      A
 Frequencies --    514.0134               573.9719               620.9041
 Red. masses --      2.3924                 3.8655                 3.8941
 Frc consts  --      0.3724                 0.7503                 0.8845
 IR Inten    --      0.1608                11.6993                 0.8651

                     13                     14                     15
                      A                      A                      A
 Frequencies --    718.1965               720.5659               835.2758
 Red. masses --      1.7220                 3.6015                 3.7337
 Frc consts  --      0.5233                 1.1018                 1.5348
 IR Inten    --     28.9630                 3.3820                27.4153

                     16                     17                     18
                      A                      A                      A
 Frequencies --    861.6797               929.5918               951.7694
 Red. masses --      2.0529                 1.8720                 1.7069
 Frc consts  --      0.8981                 0.9531                 0.9110
 IR Inten    --      1.5643                 1.4322                 0.1946

                     19                     20                     21
                      A                      A                      A
 Frequencies --    963.3065               988.5402              1007.6887
 Red. masses --      2.1952                 1.3018                 2.1516
 Frc consts  --      1.2002                 0.7495                 1.2873
 IR Inten    --      1.7166                 1.1477                 9.5477

                     22                     23                     24
                      A                      A                      A
 Frequencies --   1080.4768              1094.6512              1123.3377
 Red. masses --      4.2019                 2.3970                 2.1401
 Frc consts  --      2.8902                 1.6923                 1.5911
 IR Inten    --     64.3845                14.1493                21.6105

                     25                     26                     27
                      A                      A                      A
 Frequencies --   1161.3514              1179.3184              1243.9365
 Red. masses --      1.8396                 2.2267                 1.1171
 Frc consts  --      1.4619                 1.8246                 1.0185
 IR Inten    --     21.3442               115.8744                 5.5142

                     28                     29                     30
                      A                      A                      A
 Frequencies --   1248.7131              1271.7090              1318.1677
 Red. masses --      1.6589                 1.2773                 1.3110
 Frc consts  --      1.5240                 1.2170                 1.3421
 IR Inten    --    102.0447                 2.8977                 0.3159

                     31                     32                     33
                      A                      A                      A
 Frequencies --   1328.7658              1354.9693              1406.7891
 Red. masses --      1.4065                 1.3296                 1.4330
 Frc consts  --      1.4632                 1.4382                 1.6709
 IR Inten    --      3.8008                30.0308                 0.4265

                     34                     35                     36
                      A                      A                      A
 Frequencies --   1411.8597              1442.4380              1466.9866
 Red. masses --      1.3306                 1.3378                 1.0875
 Frc consts  --      1.5628                 1.6399                 1.3789
 IR Inten    --     10.5641                12.9491                 8.5803

                     37                     38                     39
                      A                      A                      A
 Frequencies --   1496.4207              1500.3014              1505.7549
 Red. masses --      1.0659                 1.0501                 1.0805
 Frc consts  --      1.4063                 1.3926                 1.4434
 IR Inten    --      1.5106                 7.0210                 7.3337

                     40                     41                     42
                      A                      A                      A
 Frequencies --   1725.8871              1828.5915              2992.7537
 Red. masses --      7.2179                11.8217                 1.0801
 Frc consts  --     12.6674                23.2897                 5.6997
 IR Inten    --      5.3299               350.6588                12.9330

                     43                     44                     45
                      A                      A                      A
 Frequencies --   3002.6566              3024.3280              3034.8398
 Red. masses --      1.0715                 1.0604                 1.0380
 Frc consts  --      5.6919                 5.7147                 5.6325
 IR Inten    --      3.9478                30.8401                35.3187

                     46                     47                     48
                      A                      A                      A
 Frequencies --   3081.5158              3101.9667              3114.9787
 Red. masses --      1.1032                 1.1000                 1.1023
 Frc consts  --      6.1722                 6.2359                 6.3015
 IR Inten    --     23.2211                28.4594                21.9252

                     49                     50                     51
                      A                      A                      A
 Frequencies --   3131.5979              3152.8012              3182.0470
 Red. masses --      1.0900                 1.0852                 1.0968
 Frc consts  --      6.2981                 6.3558                 6.5434
 IR Inten    --      6.0165                 5.4129                18.9980

 - Thermochemistry -
 -------------------
 Temperature   298.150 Kelvin.  Pressure   1.00000 Atm.
 Atom     1 has atomic number  6 and mass  12.00000

 Molecular mass:   126.06808 amu.
 Principal axes and moments of inertia in atomic units:
                           1         2         3
     Eigenvalues --   582.305811440.002961894.96631
           X            0.99918  -0.04040  -0.00401
           Y            0.04040   0.99918  -0.00018
           Z            0.00402   0.00002   0.99999
 This molecule is an asymmetric top.
 Rotational symmetry number  1.
 Warning -- assumption of classical behavior for rotation
           may cause significant error
 Rotational temperatures (Kelvin)      0.14874     0.06015     0.04571
 Rotational constants (GHZ):           3.09930     1.25329     0.95239
 Zero-point vibrational energy     418610.9 (Joules/Mol)
                                  100.05040 (Kcal/Mol)
 Warning -- explicit consideration of  11 degrees of freedom as
           vibrations may cause significant error
 Vibrational temperatures:     90.89   107.08   244.99   324.87   401.36
          (Kelvin)            440.95   461.03   544.10   680.76   739.55
                              825.82   893.34  1033.32  1036.73  1201.77
                             1239.76  1337.47  1369.38  1385.98  1422.29
                             1449.84  1554.56  1574.96  1616.23  1670.92
                             1696.77  1789.74  1796.62  1829.70  1896.55
                             1911.80  1949.50  2024.05  2031.35  2075.34
                             2110.66  2153.01  2158.60  2166.44  2483.16
                             2630.93  4305.90  4320.15  4351.33  4366.45
                             4433.61  4463.03  4481.75  4505.67  4536.17
                             4578.25

 Zero-point correction=                           0.159440 (Hartree/Particle)
 Thermal correction to Energy=                    0.168141
 Thermal correction to Enthalpy=                  0.169085
 Thermal correction to Gibbs Free Energy=         0.125592
 Sum of electronic and zero-point Energies=           -423.060477
 Sum of electronic and thermal Energies=              -423.051777
 Sum of electronic and thermal Enthalpies=            -423.050833
 Sum of electronic and thermal Free Energies=         -423.094325

                     E (Thermal)             CV                S
                      KCal/Mol        Cal/Mol-Kelvin    Cal/Mol-Kelvin
 Total                  105.510             32.383             91.538
 Electronic               0.000              0.000              0.000
 Translational            0.889              2.981             40.409
 Rotational               0.889              2.981             28.854
 Vibrational            103.733             26.421             22.276
 Vibration     1          0.597              1.972              4.356
 Vibration     2          0.599              1.966              4.033
 Vibration     3          0.625              1.879              2.432
 Vibration     4          0.650              1.802              1.912
 Vibration     5          0.679              1.712              1.540
 Vibration     6          0.697              1.661              1.381
 Vibration     7          0.706              1.634              1.308
 Vibration     8          0.748              1.517              1.046
 Vibration     9          0.830              1.310              0.729
 Vibration    10          0.869              1.219              0.624
 Vibration    11          0.930              1.088              0.497

 Optimization completed.
    -- Stationary point found.
 Normal termination of Gaussian 09 at Tue Jan 28 04:43:21 2020.
