 Gaussian 09, Revision D.01,
 Gaussian 09:  ES64L-G09RevD.01 24-Apr-2013

 -----------------------------
 # b3lyp 6-31G(2df,p) opt Freq
 -----------------------------

 -----
 titel
 -----
 Symbolic Z-matrix:
 Charge =  0 Multiplicity = 1

 SCF Done:  E(RB3LYP) =  -423.189679963     A.U. after   13 cycles
 Optimization completed.
    -- Stationary point found.
 Normal termination of Gaussian 09 at Mon Jan 27 22:04:30 2020.

 ----------------------------------------------------------------------
 #N Geom=AllCheck Guess=TCheck SCRF=Check GenChk RB3LYP/6-31G(2df,p) Fr
 eq
 ----------------------------------------------------------------------

 Structure from the checkpoint file:  "/scratch/puck/g09_beabeb3a-caa6-41b5-acd9-f849d85573eb/Gau-14902.chk"
 -----
 titel
 -----
 Charge =  0 Multiplicity = 1

                         Standard orientation:
 ---------------------------------------------------------------------
 Center     Atomic      Atomic             Coordinates (Angstroms)
 Number     Number       Type             X           Y           Z
 ---------------------------------------------------------------------
      1          6           0       -2.700095   -0.053243    0.016804
      2          6           0       -1.212084   -0.182294   -0.053165
      3          6           0       -0.501414   -1.219001   -0.506771
      4          6           0        0.985220   -0.975834   -0.436542
      5          6           0        1.347718   -0.659370    1.024532
      6          8           0        0.566785    0.456992    1.458737
      7          6           0       -0.294683    0.933287    0.408917
      8          6           0        0.603981    1.336313   -0.772742
      9          8           0        1.332132    0.189778   -1.212720
     10          1           0       -3.055839    0.808164   -0.562934
     11          1           0       -3.197963   -0.947893   -0.367315
     12          1           0       -3.031609    0.107610    1.050386
     13          1           0       -0.922178   -2.146029   -0.881094
     14          1           0        1.587494   -1.794550   -0.831919
     15          1           0        1.150510   -1.520425    1.676711
     16          1           0        2.411134   -0.396753    1.092050
     17          1           0       -0.827144    1.793794    0.818809
     18          1           0        0.006790    1.737504   -1.603222
     19          1           0        1.315620    2.105269   -0.445808
 ---------------------------------------------------------------------

 SCF Done:  E(RB3LYP) =  -423.189679963     A.U. after    1 cycles

 The electronic state is 1-A.
 Alpha  occ. eigenvalues --  -19.13702 -19.13521 -10.23561 -10.23491 -10.22455
 Alpha  occ. eigenvalues --  -10.22362 -10.19084 -10.18855 -10.17752  -1.05004
 Alpha  occ. eigenvalues --   -1.00415  -0.81466  -0.77944  -0.71368  -0.66888
 Alpha  occ. eigenvalues --   -0.63954  -0.59057  -0.52251  -0.49793  -0.49331
 Alpha  occ. eigenvalues --   -0.47636  -0.43398  -0.42292  -0.41367  -0.41014
 Alpha  occ. eigenvalues --   -0.39648  -0.39318  -0.38546  -0.35550  -0.34413
 Alpha  occ. eigenvalues --   -0.30136  -0.25195  -0.24215  -0.24108
 Alpha virt. eigenvalues --    0.00859   0.09246   0.10677   0.12269   0.12867
 Alpha virt. eigenvalues --    0.14196   0.14705   0.15383   0.16049   0.16845
 Alpha virt. eigenvalues --    0.17939   0.18171   0.19415   0.20135   0.20839

 Mulliken charges:
               1
     1  C   -0.509682
     2  C    0.357976
     3  C   -0.191790
     4  C    0.027575
     5  C   -0.066398
     6  O   -0.276604
     7  C   -0.030282
     8  C   -0.069913
     9  O   -0.277311
    10  H    0.128330
    11  H    0.126476
    12  H    0.134898
    13  H    0.091998
    14  H    0.079724
    15  H    0.096698
    16  H    0.102648
    17  H    0.077236
    18  H    0.095297
    19  H    0.103124
 Sum of Mulliken charges =   0.00000

 Dipole moment (field-independent basis, Debye):
    X=             -1.3746    Y=             -0.4579    Z=             -0.1397  Tot=              1.4556
 Quadrupole moment (field-independent basis, Debye-Ang):
   XX=            -51.5020   YY=            -48.6737   ZZ=            -58.2638
   XY=             -2.2036   XZ=              1.5621   YZ=             -0.6548

  Exact polarizability:  85.507  -5.160  79.093   0.639   1.492  62.865
 Approx polarizability: 117.372 -12.682 122.321  -3.521   7.653  98.470

                      1                      2                      3
                      A                      A                      A
 Frequencies --    142.0038               183.3038               198.9414
 Red. masses --      2.9262                 1.0753                 2.6181
 Frc consts  --      0.0348                 0.0213                 0.0611
 IR Inten    --      1.1605                 0.1681                 6.2984

                      4                      5                      6
                      A                      A                      A
 Frequencies --    280.8546               338.5969               397.9261
 Red. masses --      2.5636                 2.6251                 3.7021
 Frc consts  --      0.1191                 0.1773                 0.3454
 IR Inten    --      0.5209                 2.0092                 2.9994

                      7                      8                      9
                      A                      A                      A
 Frequencies --    421.7832               488.7169               542.2171
 Red. masses --      3.1843                 4.4453                 4.0719
 Frc consts  --      0.3338                 0.6256                 0.7053
 IR Inten    --      1.2518                 1.8088                 2.2598

                     10                     11                     12
                      A                      A                      A
 Frequencies --    653.9186               697.6441               807.6104
 Red. masses --      4.2573                 4.0474                 3.7310
 Frc consts  --      1.0726                 1.1606                 1.4338
 IR Inten    --      4.2183                 2.7079                13.2164

                     13                     14                     15
                      A                      A                      A
 Frequencies --    823.8068               847.3999               865.2779
 Red. masses --      1.6549                 3.8276                 3.1798
 Frc consts  --      0.6617                 1.6194                 1.4027
 IR Inten    --      3.0826                 6.4720                16.6554

                     16                     17                     18
                      A                      A                      A
 Frequencies --    879.4310               949.5261               968.1244
 Red. masses --      2.6730                 2.2822                 1.7966
 Frc consts  --      1.2180                 1.2123                 0.9921
 IR Inten    --     43.7771                13.5354                 4.4298

                     19                     20                     21
                      A                      A                      A
 Frequencies --    997.7293              1025.7948              1062.5307
 Red. masses --      2.1807                 1.9686                 1.8430
 Frc consts  --      1.2790                 1.2205                 1.2259
 IR Inten    --      4.9119                 2.0120                21.7478

                     22                     23                     24
                      A                      A                      A
 Frequencies --   1069.5624              1078.9066              1092.1758
 Red. masses --      2.6606                 1.8858                 4.6556
 Frc consts  --      1.7932                 1.2933                 3.2720
 IR Inten    --      2.9152                19.1506               106.7023

                     25                     26                     27
                      A                      A                      A
 Frequencies --   1100.1907              1197.4826              1227.9666
 Red. masses --      2.9376                 2.3537                 1.0978
 Frc consts  --      2.0950                 1.9886                 0.9753
 IR Inten    --     18.1681                 0.9739                 7.0335

                     28                     29                     30
                      A                      A                      A
 Frequencies --   1232.3004              1288.4349              1303.0072
 Red. masses --      1.1288                 1.5050                 1.4886
 Frc consts  --      1.0100                 1.4720                 1.4891
 IR Inten    --      1.4748                 1.3984                 0.8573

                     31                     32                     33
                      A                      A                      A
 Frequencies --   1315.1907              1330.4266              1372.9892
 Red. masses --      1.4223                 1.2283                 1.8126
 Frc consts  --      1.4495                 1.2810                 2.0132
 IR Inten    --      1.5475                 1.3641                 7.4854

                     34                     35                     36
                      A                      A                      A
 Frequencies --   1392.8764              1394.7865              1412.6608
 Red. masses --      1.4251                 1.3602                 1.2900
 Frc consts  --      1.6290                 1.5591                 1.5167
 IR Inten    --      1.4040                 1.1544                 0.5478

                     37                     38                     39
                      A                      A                      A
 Frequencies --   1478.3402              1486.6304              1509.1106
 Red. masses --      1.0448                 1.0626                 1.0892
 Frc consts  --      1.3453                 1.3837                 1.4615
 IR Inten    --      6.7749                 7.7186                 0.8615

                     40                     41                     42
                      A                      A                      A
 Frequencies --   1513.8034              1715.4264              3001.3258
 Red. masses --      1.0855                 6.7315                 1.0573
 Frc consts  --      1.4656                11.6709                 5.6112
 IR Inten    --      0.0252                 5.1943                90.1276

                     43                     44                     45
                      A                      A                      A
 Frequencies --   3007.1240              3016.9675              3043.7289
 Red. masses --      1.0559                 1.0377                 1.1075
 Frc consts  --      5.6256                 5.5650                 6.0453
 IR Inten    --     41.5050                24.3545                25.7815

                     46                     47                     48
                      A                      A                      A
 Frequencies --   3049.2582              3064.9525              3097.5459
 Red. masses --      1.1091                 1.0985                 1.0884
 Frc consts  --      6.0761                 6.0799                 6.1526
 IR Inten    --     49.9199                16.6124                32.9316

                     49                     50                     51
                      A                      A                      A
 Frequencies --   3110.0771              3111.4039              3183.5786
 Red. masses --      1.0994                 1.0889                 1.0942
 Frc consts  --      6.2656                 6.2107                 6.5342
 IR Inten    --     21.9094                25.1791                14.1959

 - Thermochemistry -
 -------------------
 Temperature   298.150 Kelvin.  Pressure   1.00000 Atm.
 Atom     1 has atomic number  6 and mass  12.00000

 Molecular mass:   126.06808 amu.
 Principal axes and moments of inertia in atomic units:
                           1         2         3
     Eigenvalues --   673.548921123.668821138.57645
           X            0.99970   0.00822  -0.02314
           Y            0.01534   0.52693   0.84977
           Z           -0.01918   0.84987  -0.52665
 This molecule is an asymmetric top.
 Rotational symmetry number  1.
 Warning -- assumption of classical behavior for rotation
           may cause significant error
 Rotational temperatures (Kelvin)      0.12859     0.07708     0.07607
 Rotational constants (GHZ):           2.67945     1.60611     1.58509
 Zero-point vibrational energy     423306.8 (Joules/Mol)
                                  101.17275 (Kcal/Mol)
 Warning -- explicit consideration of   9 degrees of freedom as
           vibrations may cause significant error
 Vibrational temperatures:    204.31   263.73   286.23   404.09   487.16
          (Kelvin)            572.53   606.85   703.15   780.13   940.84
                             1003.75  1161.97  1185.27  1219.22  1244.94
                             1265.30  1366.15  1392.91  1435.51  1475.89
                             1528.74  1538.86  1552.30  1571.40  1582.93
                             1722.91  1766.77  1773.00  1853.77  1874.73
                             1892.26  1914.18  1975.42  2004.04  2006.78
                             2032.50  2127.00  2138.93  2171.27  2178.02
                             2468.11  4318.23  4326.58  4340.74  4379.24
                             4387.20  4409.78  4456.67  4474.70  4476.61
                             4580.45

 Zero-point correction=                           0.161229 (Hartree/Particle)
 Thermal correction to Energy=                    0.168729
 Thermal correction to Enthalpy=                  0.169673
 Thermal correction to Gibbs Free Energy=         0.129595
 Sum of electronic and zero-point Energies=           -423.028451
 Sum of electronic and thermal Energies=              -423.020951
 Sum of electronic and thermal Enthalpies=            -423.020007
 Sum of electronic and thermal Free Energies=         -423.060085

                     E (Thermal)             CV                S
                      KCal/Mol        Cal/Mol-Kelvin    Cal/Mol-Kelvin
 Total                  105.879             29.862             84.352
 Electronic               0.000              0.000              0.000
 Translational            0.889              2.981             40.409
 Rotational               0.889              2.981             28.246
 Vibrational            104.101             23.901             15.697
 Vibration     1          0.615              1.911              2.777
 Vibration     2          0.631              1.863              2.295
 Vibration     3          0.637              1.841              2.143
 Vibration     4          0.681              1.709              1.528
 Vibration     5          0.719              1.598              1.219
 Vibration     6          0.764              1.475              0.970
 Vibration     7          0.784              1.423              0.886
 Vibration     8          0.845              1.275              0.687
 Vibration     9          0.897              1.157              0.561

 Normal termination of Gaussian 09 at Mon Jan 27 22:56:52 2020.
