 Gaussian 09, Revision D.01,
 Gaussian 09:  ES64L-G09RevD.01 24-Apr-2013

 -----------------------------
 # b3lyp 6-31G(2df,p) opt Freq
 -----------------------------

 -----
 titel
 -----
 Symbolic Z-matrix:
 Charge =  0 Multiplicity = 1

 SCF Done:  E(RB3LYP) =  -423.103221450     A.U. after   12 cycles
 Optimization completed.
    -- Stationary point found.
 Normal termination of Gaussian 09 at Tue Jan 28 09:48:02 2020.

 ----------------------------------------------------------------------
 #N Geom=AllCheck Guess=TCheck SCRF=Check GenChk RB3LYP/6-31G(2df,p) Fr
 eq
 ----------------------------------------------------------------------

 Structure from the checkpoint file:  "/scratch/puck/g09_89d5dbdf-6cf7-4bb9-bf94-eb055f11cecd/Gau-96381.chk"
 -----
 titel
 -----
 Charge =  0 Multiplicity = 1

                         Standard orientation:
 ---------------------------------------------------------------------
 Center     Atomic      Atomic             Coordinates (Angstroms)
 Number     Number       Type             X           Y           Z
 ---------------------------------------------------------------------
      1          6           0        2.334397   -1.140266    0.187096
      2          8           0        1.531517   -0.385492   -0.710704
      3          6           0        0.514334    0.307871   -0.104379
      4          6           0        0.722811    1.504269    0.808781
      5          6           0       -0.092296    1.638669   -0.452124
      6          8           0       -1.428942    1.162808   -0.245425
      7          6           0       -0.922422   -0.161457    0.007718
      8          6           0       -1.614124   -1.133173    0.900609
      9          6           0       -1.543239   -1.365850   -0.606645
     10          1           0        1.760863   -1.940564    0.674019
     11          1           0        3.133700   -1.588607   -0.406594
     12          1           0        2.773124   -0.501066    0.964354
     13          1           0        0.240069    1.574080    1.779397
     14          1           0        1.718948    1.932615    0.741822
     15          1           0        0.082291    2.347236   -1.251635
     16          1           0       -1.019503   -1.758407    1.558810
     17          1           0       -2.572525   -0.829607    1.307919
     18          1           0       -0.881977   -2.137430   -0.986637
     19          1           0       -2.452362   -1.217148   -1.178751
 ---------------------------------------------------------------------

 SCF Done:  E(RB3LYP) =  -423.103221450     A.U. after    1 cycles

 The electronic state is 1-A.
 Alpha  occ. eigenvalues --  -19.15747 -19.14007 -10.24321 -10.24033 -10.23699
 Alpha  occ. eigenvalues --  -10.23227 -10.18957 -10.18549 -10.18429  -1.06511
 Alpha  occ. eigenvalues --   -1.03956  -0.84978  -0.82759  -0.70437  -0.63456
 Alpha  occ. eigenvalues --   -0.61018  -0.59685  -0.53448  -0.52032  -0.51280
 Alpha  occ. eigenvalues --   -0.46632  -0.45305  -0.44476  -0.43935  -0.40497
 Alpha  occ. eigenvalues --   -0.38838  -0.37399  -0.36251  -0.34072  -0.32824
 Alpha  occ. eigenvalues --   -0.30575  -0.26556  -0.25026  -0.22637
 Alpha virt. eigenvalues --    0.07632   0.07794   0.10430   0.11868   0.12487
 Alpha virt. eigenvalues --    0.13367   0.13867   0.14772   0.15632   0.16969
 Alpha virt. eigenvalues --    0.18085   0.18601   0.19189   0.20950   0.22407

 Mulliken charges:
               1
     1  C   -0.255484
     2  O   -0.272289
     3  C    0.277066
     4  C   -0.365537
     5  C    0.008975
     6  O   -0.320441
     7  C    0.406593
     8  C   -0.345792
     9  C   -0.339847
    10  H    0.114060
    11  H    0.130987
    12  H    0.116937
    13  H    0.117373
    14  H    0.118007
    15  H    0.117848
    16  H    0.114229
    17  H    0.126709
    18  H    0.123431
    19  H    0.127174
 Sum of Mulliken charges =   0.00000

 Dipole moment (field-independent basis, Debye):
    X=              1.5065    Y=             -0.8889    Z=              0.9980  Tot=              2.0138
 Quadrupole moment (field-independent basis, Debye-Ang):
   XX=            -52.0461   YY=            -51.4430   ZZ=            -53.2706
   XY=              1.4943   XZ=              1.4080   YZ=             -1.1148

  Exact polarizability:  80.322   3.269  80.154   1.719   0.236  67.018
 Approx polarizability: 108.494   0.936 113.365   2.381  -0.374 103.098

                      1                      2                      3
                      A                      A                      A
 Frequencies --     81.7104               131.4883               168.4187
 Red. masses --      2.5831                 2.7726                 1.3180
 Frc consts  --      0.0102                 0.0282                 0.0220
 IR Inten    --      1.7676                 0.8206                 0.2789

                      4                      5                      6
                      A                      A                      A
 Frequencies --    184.4324               221.9785               286.9419
 Red. masses --      2.3873                 2.7105                 2.4758
 Frc consts  --      0.0478                 0.0787                 0.1201
 IR Inten    --      1.0841                 2.4645                 1.2641

                      7                      8                      9
                      A                      A                      A
 Frequencies --    393.6473               431.2463               455.4070
 Red. masses --      3.2224                 3.8637                 2.2327
 Frc consts  --      0.2942                 0.4234                 0.2728
 IR Inten    --      8.7182                 3.3107                 1.2066

                     10                     11                     12
                      A                      A                      A
 Frequencies --    512.4845               575.1871               671.7991
 Red. masses --      4.3303                 3.7753                 2.9179
 Frc consts  --      0.6701                 0.7359                 0.7759
 IR Inten    --      1.9662                 3.0716                 7.9207

                     13                     14                     15
                      A                      A                      A
 Frequencies --    754.3996               818.4537               864.9088
 Red. masses --      1.0960                 2.4073                 1.7045
 Frc consts  --      0.3675                 0.9501                 0.7513
 IR Inten    --      1.4657                 8.5008                13.1972

                     16                     17                     18
                      A                      A                      A
 Frequencies --    879.6112               887.1817               953.9351
 Red. masses --      2.1852                 1.5299                 2.8086
 Frc consts  --      0.9961                 0.7095                 1.5059
 IR Inten    --      9.6464                 7.8768                 3.9528

                     19                     20                     21
                      A                      A                      A
 Frequencies --    979.0401               988.6852              1003.4114
 Red. masses --      2.1346                 2.4513                 2.4081
 Frc consts  --      1.2055                 1.4118                 1.4285
 IR Inten    --     25.3953                16.5106                16.1447

                     22                     23                     24
                      A                      A                      A
 Frequencies --   1019.0388              1043.4814              1055.7816
 Red. masses --      2.8345                 1.5614                 2.6458
 Frc consts  --      1.7342                 1.0017                 1.7376
 IR Inten    --      7.1318                 5.9533                31.9030

                     25                     26                     27
                      A                      A                      A
 Frequencies --   1063.9891              1076.4017              1079.9004
 Red. masses --      1.5094                 2.9573                 1.8481
 Frc consts  --      1.0068                 2.0188                 1.2699
 IR Inten    --      1.0860                47.0979                36.1497

                     28                     29                     30
                      A                      A                      A
 Frequencies --   1157.9563              1178.7587              1184.3088
 Red. masses --      1.8054                 1.2790                 1.2652
 Frc consts  --      1.4263                 1.0470                 1.0455
 IR Inten    --     25.7383                 1.6618                 0.1862

                     31                     32                     33
                      A                      A                      A
 Frequencies --   1220.1826              1253.7599              1272.7569
 Red. masses --      1.5350                 3.0747                 2.0831
 Frc consts  --      1.3465                 2.8476                 1.9881
 IR Inten    --      9.9585                38.8261                96.8900

                     34                     35                     36
                      A                      A                      A
 Frequencies --   1367.1249              1407.6581              1447.5144
 Red. masses --      2.2291                 1.8816                 1.0910
 Frc consts  --      2.4547                 2.1968                 1.3469
 IR Inten    --     22.8805                46.1825                 2.0159

                     37                     38                     39
                      A                      A                      A
 Frequencies --   1463.5353              1488.5070              1492.6965
 Red. masses --      1.2050                 1.0821                 1.4782
 Frc consts  --      1.5207                 1.4126                 1.9406
 IR Inten    --      9.2340                 6.9396                 8.0206

                     40                     41                     42
                      A                      A                      A
 Frequencies --   1504.0641              1511.8127              3000.4985
 Red. masses --      1.1140                 1.8386                 1.0346
 Frc consts  --      1.4848                 2.4759                 5.4880
 IR Inten    --     17.0472                21.1362                45.2124

                     43                     44                     45
                      A                      A                      A
 Frequencies --   3057.9485              3113.9645              3126.7167
 Red. masses --      1.1037                 1.0529                 1.0980
 Frc consts  --      6.0810                 6.0154                 6.3243
 IR Inten    --     39.5585                 8.7498                23.3145

                     46                     47                     48
                      A                      A                      A
 Frequencies --   3128.1050              3133.9776              3197.8650
 Red. masses --      1.0544                 1.0553                 1.0975
 Frc consts  --      6.0785                 6.1071                 6.6125
 IR Inten    --     13.0975                 5.7893                11.3988

                     49                     50                     51
                      A                      A                      A
 Frequencies --   3210.5942              3212.4292              3227.9022
 Red. masses --      1.1145                 1.1177                 1.1155
 Frc consts  --      6.7686                 6.7958                 6.8478
 IR Inten    --      9.3663                 1.0798                 7.6692

 - Thermochemistry -
 -------------------
 Temperature   298.150 Kelvin.  Pressure   1.00000 Atm.
 Atom     1 has atomic number  6 and mass  12.00000

 Molecular mass:   126.06808 amu.
 Principal axes and moments of inertia in atomic units:
                           1         2         3
     Eigenvalues --   763.074441074.824991499.63710
           X            0.99938   0.03194   0.01470
           Y           -0.03192   0.99949  -0.00161
           Z           -0.01475   0.00114   0.99989
 This molecule is an asymmetric top.
 Rotational symmetry number  1.
 Warning -- assumption of classical behavior for rotation
           may cause significant error
 Rotational temperatures (Kelvin)      0.11351     0.08058     0.05776
 Rotational constants (GHZ):           2.36509     1.67910     1.20345
 Zero-point vibrational energy     412374.3 (Joules/Mol)
                                   98.55982 (Kcal/Mol)
 Warning -- explicit consideration of  11 degrees of freedom as
           vibrations may cause significant error
 Vibrational temperatures:    117.56   189.18   242.32   265.36   319.38
          (Kelvin)            412.84   566.37   620.47   655.23   737.35
                              827.56   966.57  1085.41  1177.57  1244.41
                             1265.56  1276.45  1372.50  1408.62  1422.50
                             1443.68  1466.17  1501.34  1519.03  1530.84
                             1548.70  1553.73  1666.04  1695.97  1703.95
                             1755.57  1803.88  1831.21  1966.99  2025.30
                             2082.65  2105.70  2141.63  2147.65  2164.01
                             2175.16  4317.04  4399.70  4480.29  4498.64
                             4500.64  4509.09  4601.01  4619.32  4621.96
                             4644.23

 Zero-point correction=                           0.157065 (Hartree/Particle)
 Thermal correction to Energy=                    0.165698
 Thermal correction to Enthalpy=                  0.166642
 Thermal correction to Gibbs Free Energy=         0.123813
 Sum of electronic and zero-point Energies=           -422.946156
 Sum of electronic and thermal Energies=              -422.937524
 Sum of electronic and thermal Enthalpies=            -422.936579
 Sum of electronic and thermal Free Energies=         -422.979409

                     E (Thermal)             CV                S
                      KCal/Mol        Cal/Mol-Kelvin    Cal/Mol-Kelvin
 Total                  103.977             32.872             90.142
 Electronic               0.000              0.000              0.000
 Translational            0.889              2.981             40.409
 Rotational               0.889              2.981             28.599
 Vibrational            102.200             26.910             21.134
 Vibration     1          0.600              1.962              3.849
 Vibration     2          0.612              1.922              2.924
 Vibration     3          0.625              1.881              2.453
 Vibration     4          0.631              1.861              2.283
 Vibration     5          0.648              1.808              1.943
 Vibration     6          0.684              1.698              1.492
 Vibration     7          0.761              1.484              0.986
 Vibration     8          0.792              1.402              0.855
 Vibration     9          0.814              1.349              0.780
 Vibration    10          0.868              1.222              0.628
 Vibration    11          0.932              1.085              0.494

 Normal termination of Gaussian 09 at Tue Jan 28 10:31:07 2020.
