 Gaussian 09, Revision D.01,
 Gaussian 09:  ES64L-G09RevD.01 24-Apr-2013

 -----------------------------
 # b3lyp 6-31G(2df,p) opt Freq
 -----------------------------

 -----
 titel
 -----
 Symbolic Z-matrix:
 Charge =  0 Multiplicity = 1

 SCF Done:  E(RB3LYP) =  -423.124232603     A.U. after   14 cycles
 SCF Done:  E(RB3LYP) =  -423.124232647     A.U. after    6 cycles
 Optimization completed.
    -- Stationary point found.
 Normal termination of Gaussian 09 at Mon Jan 27 16:04:46 2020.

 ----------------------------------------------------------------------
 #N Geom=AllCheck Guess=TCheck SCRF=Check GenChk RB3LYP/6-31G(2df,p) Fr
 eq
 ----------------------------------------------------------------------

 Structure from the checkpoint file:  "/scratch/puck/g09_27eebb9a-eaa7-45c3-b2a3-b4d7ff9da11e/Gau-10150.chk"
 -----
 titel
 -----
 Charge =  0 Multiplicity = 1

                         Standard orientation:
 ---------------------------------------------------------------------
 Center     Atomic      Atomic             Coordinates (Angstroms)
 Number     Number       Type             X           Y           Z
 ---------------------------------------------------------------------
      1          8           0        0.909522    1.365063    0.679770
      2          6           0        1.179511    0.361109   -0.306097
      3          6           0        0.073978   -0.719012   -0.365156
      4          6           0       -1.311926   -0.110669   -0.201565
      5          8           0       -1.504044    1.089670   -0.901375
      6          6           0       -2.055447   -0.270739    1.103841
      7          6           0       -2.510862   -1.003997   -0.144198
      8          6           0        2.502977   -0.235450   -0.124194
      9          6           0        3.574562   -0.749261    0.057015
     10          1           0        0.947671    0.947135    1.547594
     11          1           0        1.161159    0.914582   -1.250455
     12          1           0        0.163333   -1.230381   -1.331064
     13          1           0        0.245888   -1.472080    0.411669
     14          1           0       -0.985952    1.752598   -0.424587
     15          1           0       -1.601703   -0.847158    1.903850
     16          1           0       -2.655510    0.571184    1.430253
     17          1           0       -2.361187   -2.077005   -0.199318
     18          1           0       -3.404987   -0.640724   -0.636946
     19          1           0        4.530710   -1.187901    0.203972
 ---------------------------------------------------------------------

 SCF Done:  E(RB3LYP) =  -423.124232647     A.U. after    1 cycles

 The electronic state is 1-A.
 Alpha  occ. eigenvalues --  -19.15661 -19.13296 -10.26326 -10.23854 -10.19186
 Alpha  occ. eigenvalues --  -10.18845 -10.18407 -10.18233 -10.18186  -1.03917
 Alpha  occ. eigenvalues --   -1.01877  -0.84483  -0.78917  -0.73497  -0.66012
 Alpha  occ. eigenvalues --   -0.60603  -0.56949  -0.55860  -0.51701  -0.49721
 Alpha  occ. eigenvalues --   -0.47412  -0.46898  -0.45920  -0.41697  -0.39512
 Alpha  occ. eigenvalues --   -0.37886  -0.36224  -0.35235  -0.32346  -0.30311
 Alpha  occ. eigenvalues --   -0.28618  -0.27895  -0.26260  -0.25289
 Alpha virt. eigenvalues --    0.02169   0.04836   0.07959   0.10658   0.11131
 Alpha virt. eigenvalues --    0.12040   0.12129   0.12583   0.14985   0.16130
 Alpha virt. eigenvalues --    0.17034   0.18253   0.20747   0.22729   0.24024

 Mulliken charges:
               1
     1  O   -0.427573
     2  C   -0.081973
     3  C   -0.300315
     4  C    0.450723
     5  O   -0.477289
     6  C   -0.322761
     7  C   -0.313776
     8  C    0.296171
     9  C   -0.417547
    10  H    0.289693
    11  H    0.133684
    12  H    0.119252
    13  H    0.104149
    14  H    0.291359
    15  H    0.102121
    16  H    0.116471
    17  H    0.111161
    18  H    0.125561
    19  H    0.200889
 Sum of Mulliken charges =   0.00000

 Dipole moment (field-independent basis, Debye):
    X=              0.8782    Y=             -1.3176    Z=              1.4511  Tot=              2.1478
 Quadrupole moment (field-independent basis, Debye-Ang):
   XX=            -51.8236   YY=            -53.6151   ZZ=            -52.2367
   XY=             -1.9638   XZ=             -0.6178   YZ=              0.7520

  Exact polarizability: 101.036  -6.972  68.167   1.013   0.197  64.047
 Approx polarizability: 133.287 -16.498 105.451   5.537  -1.778  99.178

                      1                      2                      3
                      A                      A                      A
 Frequencies --     64.6642                85.8131               123.1492
 Red. masses --      3.6515                 3.9962                 3.8997
 Frc consts  --      0.0090                 0.0173                 0.0348
 IR Inten    --      0.9897                 2.1712                 0.3122

                      4                      5                      6
                      A                      A                      A
 Frequencies --    200.0557               241.1100               292.4048
 Red. masses --      3.6639                 3.1523                 1.8500
 Frc consts  --      0.0864                 0.1080                 0.0932
 IR Inten    --      1.9775                 5.5745                22.0318

                      7                      8                      9
                      A                      A                      A
 Frequencies --    314.2677               340.5597               373.8078
 Red. masses --      1.8986                 2.0981                 3.5959
 Frc consts  --      0.1105                 0.1434                 0.2960
 IR Inten    --     44.5789                14.3595                18.1497

                     10                     11                     12
                      A                      A                      A
 Frequencies --    444.4500               487.7449               554.6145
 Red. masses --      2.9585                 4.1359                 3.4098
 Frc consts  --      0.3443                 0.5797                 0.6180
 IR Inten    --      5.6257                 8.9776                 6.5024

                     13                     14                     15
                      A                      A                      A
 Frequencies --    567.9184               589.4171               628.2600
 Red. masses --      4.2277                 1.1090                 1.2176
 Frc consts  --      0.8034                 0.2270                 0.2832
 IR Inten    --      8.7681               177.8756                47.1795

                     16                     17                     18
                      A                      A                      A
 Frequencies --    677.8929               756.3456               778.0901
 Red. masses --      1.2568                 3.1031                 1.1227
 Frc consts  --      0.3403                 1.0459                 0.4005
 IR Inten    --     34.3943                 4.5231                 0.1118

                     19                     20                     21
                      A                      A                      A
 Frequencies --    829.3228               901.3078               922.8242
 Red. masses --      2.7817                 3.0448                 1.3822
 Frc consts  --      1.1272                 1.4573                 0.6935
 IR Inten    --     15.3468                 6.9382                14.6006

                     22                     23                     24
                      A                      A                      A
 Frequencies --    933.5917               975.0216              1001.6428
 Red. masses --      1.9465                 2.6131                 2.2413
 Frc consts  --      0.9996                 1.4636                 1.3249
 IR Inten    --      4.7955                15.1273                12.2269

                     25                     26                     27
                      A                      A                      A
 Frequencies --   1045.1476              1054.8785              1075.7758
 Red. masses --      1.5663                 2.2946                 1.8672
 Frc consts  --      1.0081                 1.5044                 1.2731
 IR Inten    --     21.7555                47.2614                11.9443

                     28                     29                     30
                      A                      A                      A
 Frequencies --   1082.8134              1168.1491              1190.5032
 Red. masses --      3.1257                 1.2623                 1.2739
 Frc consts  --      2.1592                 1.0149                 1.0638
 IR Inten    --     51.6899                15.6450                 0.1231

                     31                     32                     33
                      A                      A                      A
 Frequencies --   1264.5314              1292.0648              1300.2429
 Red. masses --      1.2618                 1.9850                 1.7649
 Frc consts  --      1.1887                 1.9524                 1.7580
 IR Inten    --     17.2333                79.5871                28.9825

                     34                     35                     36
                      A                      A                      A
 Frequencies --   1324.2882              1355.0592              1404.0717
 Red. masses --      1.6271                 1.4186                 1.5118
 Frc consts  --      1.6813                 1.5347                 1.7560
 IR Inten    --     10.8167                11.8082                29.3457

                     37                     38                     39
                      A                      A                      A
 Frequencies --   1430.0329              1452.4806              1481.7742
 Red. masses --      1.1810                 1.0940                 1.0911
 Frc consts  --      1.4229                 1.3598                 1.4114
 IR Inten    --     43.3962                 1.5180                 3.8743

                     40                     41                     42
                      A                      A                      A
 Frequencies --   1499.9286              2233.8915              3034.5967
 Red. masses --      1.5790                 5.9070                 1.0600
 Frc consts  --      2.0931                17.3677                 5.7513
 IR Inten    --     11.9493                 0.9284                15.3919

                     43                     44                     45
                      A                      A                      A
 Frequencies --   3060.5685              3082.9686              3126.7278
 Red. masses --      1.0867                 1.0997                 1.0532
 Frc consts  --      5.9976                 6.1582                 6.0667
 IR Inten    --      0.6542                24.2588                14.3462

                     46                     47                     48
                      A                      A                      A
 Frequencies --   3137.3736              3214.7064              3231.4722
 Red. masses --      1.0565                 1.1175                 1.1157
 Frc consts  --      6.1270                 6.8042                 6.8642
 IR Inten    --      8.4761                 2.6395                10.6411

                     49                     50                     51
                      A                      A                      A
 Frequencies --   3502.1707              3752.4766              3805.0302
 Red. masses --      1.1626                 1.0652                 1.0661
 Frc consts  --      8.4017                 8.8374                 9.0945
 IR Inten    --     67.3599                50.1453                22.2160

 - Thermochemistry -
 -------------------
 Temperature   298.150 Kelvin.  Pressure   1.00000 Atm.
 Atom     1 has atomic number  8 and mass  15.99491

 Molecular mass:   126.06808 amu.
 Principal axes and moments of inertia in atomic units:
                           1         2         3
     Eigenvalues --   513.435231941.190352090.50099
           X            0.99997   0.00332  -0.00673
           Y           -0.00326   0.99996   0.00812
           Z            0.00676  -0.00809   0.99994
 This molecule is an asymmetric top.
 Rotational symmetry number  1.
 Warning -- assumption of classical behavior for rotation
           may cause significant error
 Rotational temperatures (Kelvin)      0.16869     0.04462     0.04143
 Rotational constants (GHZ):           3.51503     0.92971     0.86331
 Zero-point vibrational energy     410845.5 (Joules/Mol)
                                   98.19443 (Kcal/Mol)
 Warning -- explicit consideration of  14 degrees of freedom as
           vibrations may cause significant error
 Vibrational temperatures:     93.04   123.47   177.18   287.84   346.90
          (Kelvin)            420.70   452.16   489.99   537.83   639.46
                              701.76   797.97   817.11   848.04   903.92
                              975.34  1088.21  1119.50  1193.21  1296.78
                             1327.74  1343.23  1402.84  1441.14  1503.73
                             1517.73  1547.80  1557.93  1680.70  1712.87
                             1819.38  1858.99  1870.76  1905.35  1949.63
                             2020.14  2057.50  2089.79  2131.94  2158.06
                             3214.07  4366.10  4403.47  4435.70  4498.66
                             4513.98  4625.24  4649.36  5038.84  5398.97
                             5474.58

 Zero-point correction=                           0.156483 (Hartree/Particle)
 Thermal correction to Energy=                    0.166184
 Thermal correction to Enthalpy=                  0.167129
 Thermal correction to Gibbs Free Energy=         0.121885
 Sum of electronic and zero-point Energies=           -422.967750
 Sum of electronic and thermal Energies=              -422.958048
 Sum of electronic and thermal Enthalpies=            -422.957104
 Sum of electronic and thermal Free Energies=         -423.002347

                     E (Thermal)             CV                S
                      KCal/Mol        Cal/Mol-Kelvin    Cal/Mol-Kelvin
 Total                  104.282             36.754             95.222
 Electronic               0.000              0.000              0.000
 Translational            0.889              2.981             40.409
 Rotational               0.889              2.981             29.123
 Vibrational            102.505             30.792             25.691
 Vibration     1          0.597              1.971              4.310
 Vibration     2          0.601              1.959              3.753
 Vibration     3          0.610              1.930              3.050
 Vibration     4          0.638              1.840              2.133
 Vibration     5          0.658              1.777              1.795
 Vibration     6          0.688              1.688              1.460
 Vibration     7          0.702              1.646              1.340
 Vibration     8          0.720              1.594              1.210
 Vibration     9          0.745              1.526              1.064
 Vibration    10          0.804              1.373              0.813
 Vibration    11          0.844              1.277              0.689
 Vibration    12          0.910              1.130              0.535
 Vibration    13          0.924              1.101              0.508
 Vibration    14          0.947              1.054              0.468

 Optimization completed.
    -- Stationary point found.
 Normal termination of Gaussian 09 at Mon Jan 27 17:45:32 2020.
