 Gaussian 09, Revision D.01,
 Gaussian 09:  ES64L-G09RevD.01 24-Apr-2013

 -----------------------------
 # b3lyp 6-31G(2df,p) opt Freq
 -----------------------------

 -----
 titel
 -----
 Symbolic Z-matrix:
 Charge =  0 Multiplicity = 1

 SCF Done:  E(RB3LYP) =  -423.175071938     A.U. after   14 cycles
 Optimization completed.
    -- Stationary point found.
 Normal termination of Gaussian 09 at Tue Jan 28 00:06:01 2020.

 ----------------------------------------------------------------------
 #N Geom=AllCheck Guess=TCheck SCRF=Check GenChk RB3LYP/6-31G(2df,p) Fr
 eq
 ----------------------------------------------------------------------

 Structure from the checkpoint file:  "/scratch/puck/g09_c8c6845f-e0c5-4b3d-ae2c-917fc7be9c97/Gau-21334.chk"
 -----
 titel
 -----
 Charge =  0 Multiplicity = 1

                         Standard orientation:
 ---------------------------------------------------------------------
 Center     Atomic      Atomic             Coordinates (Angstroms)
 Number     Number       Type             X           Y           Z
 ---------------------------------------------------------------------
      1          6           0       -1.590619    0.593638    1.317493
      2          6           0       -1.265070   -0.148370    0.043130
      3          8           0       -2.321820   -0.953179   -0.418499
      4          6           0       -0.385977    0.427661   -1.078557
      5          6           0        0.583508    1.496057   -0.727225
      6          6           0        1.487529    1.086197    0.171290
      7          6           0        1.314994   -0.377957    0.521099
      8          8           0        2.451531   -1.167076    0.180588
      9          6           0        0.056498   -0.785197   -0.255985
     10          1           0       -0.773515    1.240318    1.639670
     11          1           0       -2.477006    1.224479    1.172716
     12          1           0       -1.814286   -0.118312    2.118398
     13          1           0       -3.083132   -0.380549   -0.566581
     14          1           0       -0.774601    0.332684   -2.086594
     15          1           0        0.521755    2.499162   -1.135806
     16          1           0        2.267544    1.692539    0.616917
     17          1           0        1.193620   -0.531672    1.599987
     18          1           0        2.669614   -0.961464   -0.735600
     19          1           0        0.027138   -1.787318   -0.667286
 ---------------------------------------------------------------------

 SCF Done:  E(RB3LYP) =  -423.175071938     A.U. after    1 cycles

 The electronic state is 1-A.
 Alpha  occ. eigenvalues --  -19.14333 -19.13094 -10.24587 -10.23302 -10.19025
 Alpha  occ. eigenvalues --  -10.18870 -10.18279 -10.17975 -10.17807  -1.03110
 Alpha  occ. eigenvalues --   -1.01289  -0.87542  -0.76352  -0.71690  -0.69230
 Alpha  occ. eigenvalues --   -0.59618  -0.56383  -0.54823  -0.51475  -0.49510
 Alpha  occ. eigenvalues --   -0.45670  -0.45438  -0.42220  -0.41394  -0.40141
 Alpha  occ. eigenvalues --   -0.39043  -0.37416  -0.35710  -0.33300  -0.31760
 Alpha  occ. eigenvalues --   -0.28972  -0.27927  -0.26200  -0.22864
 Alpha virt. eigenvalues --    0.00484   0.07520   0.10304   0.10702   0.12627
 Alpha virt. eigenvalues --    0.13220   0.13937   0.16092   0.16744   0.17012
 Alpha virt. eigenvalues --    0.17766   0.19223   0.19805   0.22258   0.23110

 Mulliken charges:
               1
     1  C   -0.462528
     2  C    0.398932
     3  O   -0.462937
     4  C   -0.167535
     5  C   -0.080281
     6  C   -0.153335
     7  C    0.095098
     8  O   -0.431458
     9  C   -0.143602
    10  H    0.131843
    11  H    0.104092
    12  H    0.128629
    13  H    0.279556
    14  H    0.088682
    15  H    0.100102
    16  H    0.099787
    17  H    0.095662
    18  H    0.275367
    19  H    0.103924
 Sum of Mulliken charges =   0.00000

 Dipole moment (field-independent basis, Debye):
    X=             -1.1887    Y=              2.2146    Z=             -0.7983  Tot=              2.6372
 Quadrupole moment (field-independent basis, Debye-Ang):
   XX=            -51.6771   YY=            -55.6099   ZZ=            -50.9765
   XY=             -0.3838   XZ=             -1.8863   YZ=              0.4590

  Exact polarizability:  89.626  -0.087  72.096   3.936  -2.666  69.182
 Approx polarizability: 129.757  -3.337 110.462  13.385  -8.501 109.243

                      1                      2                      3
                      A                      A                      A
 Frequencies --    128.0509               192.6477               215.1972
 Red. masses --      3.5981                 3.7185                 1.2974
 Frc consts  --      0.0348                 0.0813                 0.0354
 IR Inten    --      0.9788                 0.9047                 1.0075

                      4                      5                      6
                      A                      A                      A
 Frequencies --    237.4644               300.3743               305.4220
 Red. masses --      1.9428                 1.9957                 1.5023
 Frc consts  --      0.0645                 0.1061                 0.0826
 IR Inten    --      1.1028                40.9240                42.1838

                      7                      8                      9
                      A                      A                      A
 Frequencies --    338.0872               382.5799               418.7797
 Red. masses --      1.3974                 2.3132                 3.2420
 Frc consts  --      0.0941                 0.1995                 0.3350
 IR Inten    --     44.5061                43.8125                13.0996

                     10                     11                     12
                      A                      A                      A
 Frequencies --    425.7807               505.5050               580.7338
 Red. masses --      4.1898                 2.5642                 3.5663
 Frc consts  --      0.4475                 0.3861                 0.7086
 IR Inten    --     13.1107                 1.5467                 0.3897

                     13                     14                     15
                      A                      A                      A
 Frequencies --    669.1830               754.6663               784.6932
 Red. masses --      4.0499                 3.6074                 2.3889
 Frc consts  --      1.0685                 1.2105                 0.8666
 IR Inten    --      2.5823                 1.3067                 3.8550

                     16                     17                     18
                      A                      A                      A
 Frequencies --    793.0095               876.2611               893.6321
 Red. masses --      1.8399                 2.0270                 2.6388
 Frc consts  --      0.6817                 0.9170                 1.2416
 IR Inten    --     28.4899                 5.3117                19.8626

                     19                     20                     21
                      A                      A                      A
 Frequencies --    922.1772               957.1433               980.6014
 Red. masses --      2.6753                 1.5165                 1.6145
 Frc consts  --      1.3404                 0.8186                 0.9147
 IR Inten    --     46.6723                 2.0885                 4.6397

                     22                     23                     24
                      A                      A                      A
 Frequencies --   1006.6844              1007.9389              1044.8623
 Red. masses --      1.9953                 2.2643                 2.4758
 Frc consts  --      1.1913                 1.3554                 1.5925
 IR Inten    --      9.6294                 6.2000                95.9764

                     25                     26                     27
                      A                      A                      A
 Frequencies --   1065.0829              1077.3161              1100.5744
 Red. masses --      1.7581                 1.4678                 1.5502
 Frc consts  --      1.1750                 1.0037                 1.1063
 IR Inten    --     28.2338                 2.6983                13.1074

                     28                     29                     30
                      A                      A                      A
 Frequencies --   1128.5838              1169.6530              1252.9842
 Red. masses --      1.2097                 2.0040                 1.3552
 Frc consts  --      0.9078                 1.6154                 1.2535
 IR Inten    --      8.8635                69.2175                48.5289

                     31                     32                     33
                      A                      A                      A
 Frequencies --   1264.0706              1273.2787              1294.1118
 Red. masses --      1.5584                 1.8135                 1.7144
 Frc consts  --      1.4671                 1.7323                 1.6917
 IR Inten    --      3.4949                 1.5260                11.5493

                     34                     35                     36
                      A                      A                      A
 Frequencies --   1305.2865              1373.0363              1411.9337
 Red. masses --      1.8220                 1.7129                 1.2896
 Frc consts  --      1.8290                 1.9026                 1.5147
 IR Inten    --     87.1151                 4.6861                 7.4560

                     37                     38                     39
                      A                      A                      A
 Frequencies --   1425.6604              1432.6724              1493.6399
 Red. masses --      1.2486                 2.4390                 1.0478
 Frc consts  --      1.4952                 2.9496                 1.3772
 IR Inten    --     60.4940                33.9609                 4.1126

                     40                     41                     42
                      A                      A                      A
 Frequencies --   1499.9957              1647.7094              3024.7056
 Red. masses --      1.1601                 6.2372                 1.0438
 Frc consts  --      1.5379                 9.9771                 5.6262
 IR Inten    --      5.9391                 5.0697                34.9615

                     43                     44                     45
                      A                      A                      A
 Frequencies --   3042.2082              3088.4433              3139.6516
 Red. masses --      1.0837                 1.0950                 1.0974
 Frc consts  --      5.9091                 6.1536                 6.3736
 IR Inten    --     26.2734                18.9950                10.1055

                     46                     47                     48
                      A                      A                      A
 Frequencies --   3169.1594              3183.7642              3190.0019
 Red. masses --      1.0883                 1.0868                 1.0911
 Frc consts  --      6.4402                 6.4905                 6.5419
 IR Inten    --     11.2803                13.2882                 3.2531

                     49                     50                     51
                      A                      A                      A
 Frequencies --   3211.2707              3790.3769              3796.9429
 Red. masses --      1.1026                 1.0658                 1.0660
 Frc consts  --      6.6991                 9.0219                 9.0546
 IR Inten    --     13.7424                15.8474                16.5459

 - Thermochemistry -
 -------------------
 Temperature   298.150 Kelvin.  Pressure   1.00000 Atm.
 Atom     1 has atomic number  6 and mass  12.00000

 Molecular mass:   126.06808 amu.
 Principal axes and moments of inertia in atomic units:
                           1         2         3
     Eigenvalues --   633.419481381.300571534.22291
           X            0.99987  -0.00398  -0.01570
           Y            0.00473   0.99885   0.04781
           Z            0.01549  -0.04788   0.99873
 This molecule is an asymmetric top.
 Rotational symmetry number  1.
 Warning -- assumption of classical behavior for rotation
           may cause significant error
 Rotational temperatures (Kelvin)      0.13674     0.06270     0.05645
 Rotational constants (GHZ):           2.84920     1.30655     1.17632
 Zero-point vibrational energy     416142.5 (Joules/Mol)
                                   99.46044 (Kcal/Mol)
 Warning -- explicit consideration of  12 degrees of freedom as
           vibrations may cause significant error
 Vibrational temperatures:    184.24   277.18   309.62   341.66   432.17
          (Kelvin)            439.43   486.43   550.45   602.53   612.60
                              727.31   835.55   962.80  1085.80  1129.00
                             1140.96  1260.74  1285.74  1326.81  1377.11
                             1410.86  1448.39  1450.20  1503.32  1532.41
                             1550.02  1583.48  1623.78  1682.87  1802.76
                             1818.71  1831.96  1861.94  1878.01  1975.49
                             2031.46  2051.20  2061.29  2149.01  2158.16
                             2370.68  4351.87  4377.05  4443.58  4517.25
                             4559.71  4580.72  4589.70  4620.30  5453.50
                             5462.95

 Zero-point correction=                           0.158500 (Hartree/Particle)
 Thermal correction to Energy=                    0.167087
 Thermal correction to Enthalpy=                  0.168031
 Thermal correction to Gibbs Free Energy=         0.125973
 Sum of electronic and zero-point Energies=           -423.016572
 Sum of electronic and thermal Energies=              -423.007985
 Sum of electronic and thermal Enthalpies=            -423.007041
 Sum of electronic and thermal Free Energies=         -423.049099

                     E (Thermal)             CV                S
                      KCal/Mol        Cal/Mol-Kelvin    Cal/Mol-Kelvin
 Total                  104.849             34.075             88.518
 Electronic               0.000              0.000              0.000
 Translational            0.889              2.981             40.409
 Rotational               0.889              2.981             28.686
 Vibrational            103.071             28.113             19.423
 Vibration     1          0.611              1.925              2.975
 Vibration     2          0.635              1.850              2.202
 Vibration     3          0.645              1.818              1.999
 Vibration     4          0.656              1.783              1.822
 Vibration     5          0.693              1.673              1.415
 Vibration     6          0.696              1.663              1.387
 Vibration     7          0.718              1.599              1.221
 Vibration     8          0.752              1.507              1.029
 Vibration     9          0.782              1.429              0.896
 Vibration    10          0.788              1.414              0.873
 Vibration    11          0.861              1.238              0.645
 Vibration    12          0.937              1.073              0.484

 Normal termination of Gaussian 09 at Tue Jan 28 00:57:04 2020.
