 Gaussian 09, Revision D.01,
 Gaussian 09:  ES64L-G09RevD.01 24-Apr-2013

 -----------------------------
 # b3lyp 6-31G(2df,p) opt Freq
 -----------------------------

 -----
 titel
 -----
 Symbolic Z-matrix:
 Charge =  0 Multiplicity = 1

 SCF Done:  E(RB3LYP) =  -423.118824418     A.U. after   12 cycles
 Optimization completed.
    -- Stationary point found.
 Normal termination of Gaussian 09 at Mon Jan 27 17:17:35 2020.

 ----------------------------------------------------------------------
 #N Geom=AllCheck Guess=TCheck SCRF=Check GenChk RB3LYP/6-31G(2df,p) Fr
 eq
 ----------------------------------------------------------------------

 Structure from the checkpoint file:  "/scratch/puck/g09_716d3d09-881b-4d21-9cb5-712f5991afda/Gau-86499.chk"
 -----
 titel
 -----
 Charge =  0 Multiplicity = 1

                         Standard orientation:
 ---------------------------------------------------------------------
 Center     Atomic      Atomic             Coordinates (Angstroms)
 Number     Number       Type             X           Y           Z
 ---------------------------------------------------------------------
      1          8           0        1.681297   -1.647639   -0.337224
      2          6           0        0.671926   -0.765230   -0.003279
      3          6           0        0.676154   -0.000004    1.301844
      4          6           0        0.671827    0.765301   -0.003286
      5          8           0        1.681096    1.647727   -0.337233
      6          6           0       -0.724259    0.779311   -0.663903
      7          6           0       -2.014185    0.782270    0.214851
      8          6           0       -2.014196   -0.782371    0.214790
      9          6           0       -0.724160   -0.779406   -0.663848
     10          1           0        1.715896   -2.342222    0.329486
     11          1           0       -0.154733   -0.000196    2.002684
     12          1           0        1.659503    0.000264    1.765047
     13          1           0        1.715374    2.342579    0.329212
     14          1           0       -0.741685    1.332827   -1.603042
     15          1           0       -1.925570    1.265906    1.191581
     16          1           0       -2.879569    1.211680   -0.295128
     17          1           0       -1.926033   -1.266229    1.191441
     18          1           0       -2.879410   -1.211536   -0.295690
     19          1           0       -0.741560   -1.333004   -1.602956
 ---------------------------------------------------------------------

 SCF Done:  E(RB3LYP) =  -423.118824418     A.U. after    1 cycles

 The electronic state is 1-A.
 Alpha  occ. eigenvalues --  -19.14472 -19.14471 -10.23537 -10.23515 -10.18329
 Alpha  occ. eigenvalues --  -10.17957 -10.17939 -10.17841 -10.17824  -1.03722
 Alpha  occ. eigenvalues --   -1.02355  -0.88800  -0.79174  -0.68060  -0.66249
 Alpha  occ. eigenvalues --   -0.58708  -0.58570  -0.53294  -0.51788  -0.49162
 Alpha  occ. eigenvalues --   -0.46928  -0.45348  -0.42284  -0.40963  -0.39084
 Alpha  occ. eigenvalues --   -0.37998  -0.34901  -0.34805  -0.32112  -0.31956
 Alpha  occ. eigenvalues --   -0.29678  -0.26630  -0.24512  -0.23152
 Alpha virt. eigenvalues --    0.07377   0.07882   0.09202   0.10165   0.10265
 Alpha virt. eigenvalues --    0.13386   0.14647   0.16093   0.17412   0.17855
 Alpha virt. eigenvalues --    0.18555   0.18639   0.21798   0.21922   0.22915

 Mulliken charges:
               1
     1  O   -0.460844
     2  C    0.341407
     3  C   -0.444064
     4  C    0.341409
     5  O   -0.460809
     6  C   -0.079254
     7  C   -0.245792
     8  C   -0.245780
     9  C   -0.079260
    10  H    0.284568
    11  H    0.107647
    12  H    0.113303
    13  H    0.284567
    14  H    0.076066
    15  H    0.095347
    16  H    0.100029
    17  H    0.095345
    18  H    0.100039
    19  H    0.076078
 Sum of Mulliken charges =   0.00000

 Dipole moment (field-independent basis, Debye):
    X=             -1.1622    Y=              0.0006    Z=              2.0854  Tot=              2.3874
 Quadrupole moment (field-independent basis, Debye-Ang):
   XX=            -55.7950   YY=            -47.7841   ZZ=            -52.5026
   XY=              0.0001   XZ=              5.4971   YZ=             -0.0007

  Exact polarizability:  80.964   0.000  75.719   2.640   0.000  67.966
 Approx polarizability: 109.021  -0.001 113.545   0.629  -0.001 105.847

                      1                      2                      3
                      A                      A                      A
 Frequencies --    154.4111               162.0991               202.9911
 Red. masses --      2.6566                 4.2712                 1.1510
 Frc consts  --      0.0373                 0.0661                 0.0279
 IR Inten    --      3.5509                29.7127                42.5880

                      4                      5                      6
                      A                      A                      A
 Frequencies --    257.4969               260.8615               274.8381
 Red. masses --      1.2532                 2.1161                 2.7201
 Frc consts  --      0.0490                 0.0848                 0.1211
 IR Inten    --    102.3734                 0.0168                 2.1912

                      7                      8                      9
                      A                      A                      A
 Frequencies --    352.4476               406.2740               484.0368
 Red. masses --      3.7554                 4.6685                 2.3093
 Frc consts  --      0.2749                 0.4540                 0.3188
 IR Inten    --      0.5839                30.1388                 1.6819

                     10                     11                     12
                      A                      A                      A
 Frequencies --    549.0840               588.3515               699.9965
 Red. masses --      4.0220                 2.6383                 1.7590
 Frc consts  --      0.7144                 0.5381                 0.5078
 IR Inten    --      5.1926                 0.3385                 2.5201

                     13                     14                     15
                      A                      A                      A
 Frequencies --    720.7052               781.2985               796.2278
 Red. masses --      4.9657                 1.8203                 3.1114
 Frc consts  --      1.5196                 0.6547                 1.1622
 IR Inten    --     24.5569                 2.2357                 0.3898

                     16                     17                     18
                      A                      A                      A
 Frequencies --    810.3230               851.1548               876.2325
 Red. masses --      3.1321                 2.0033                 1.7121
 Frc consts  --      1.2117                 0.8551                 0.7745
 IR Inten    --      3.1371                 0.0870                 1.9265

                     19                     20                     21
                      A                      A                      A
 Frequencies --    943.7693               955.8482               967.5659
 Red. masses --      2.4711                 1.8409                 2.1072
 Frc consts  --      1.2968                 0.9910                 1.1623
 IR Inten    --      2.5938                 0.0438                20.6334

                     22                     23                     24
                      A                      A                      A
 Frequencies --   1002.0625              1016.2991              1052.8165
 Red. masses --      1.9981                 1.6888                 1.3297
 Frc consts  --      1.1821                 1.0277                 0.8684
 IR Inten    --      1.4589                 3.6148                19.4847

                     25                     26                     27
                      A                      A                      A
 Frequencies --   1095.1717              1130.3997              1151.1558
 Red. masses --      1.6239                 1.9715                 2.2158
 Frc consts  --      1.1476                 1.4843                 1.7300
 IR Inten    --     17.9052                 3.9448                 1.4355

                     28                     29                     30
                      A                      A                      A
 Frequencies --   1176.1708              1188.3005              1234.0098
 Red. masses --      1.9865                 1.9700                 1.4593
 Frc consts  --      1.6191                 1.6389                 1.3093
 IR Inten    --    123.8147                20.7995                32.5927

                     31                     32                     33
                      A                      A                      A
 Frequencies --   1237.4633              1238.3288              1269.1277
 Red. masses --      1.3472                 1.6353                 1.4876
 Frc consts  --      1.2155                 1.4775                 1.4117
 IR Inten    --     27.2950                 3.5863                 2.3460

                     34                     35                     36
                      A                      A                      A
 Frequencies --   1294.3748              1296.8703              1297.2673
 Red. masses --      1.7228                 1.7448                 1.3982
 Frc consts  --      1.7007                 1.7290                 1.3863
 IR Inten    --     68.8589                 0.5502                47.2034

                     37                     38                     39
                      A                      A                      A
 Frequencies --   1343.5632              1420.1559              1473.4173
 Red. masses --      2.5227                 1.4968                 1.0801
 Frc consts  --      2.6831                 1.7787                 1.3815
 IR Inten    --     51.4024                18.0540                 0.9603

                     40                     41                     42
                      A                      A                      A
 Frequencies --   1490.8388              1514.9203              3054.5907
 Red. masses --      1.1512                 1.9041                 1.0583
 Frc consts  --      1.5075                 2.5746                 5.8177
 IR Inten    --      0.3116                19.6300                36.9995

                     43                     44                     45
                      A                      A                      A
 Frequencies --   3060.4479              3094.3714              3104.9061
 Red. masses --      1.0609                 1.1037                 1.0570
 Frc consts  --      5.8547                 6.2265                 6.0038
 IR Inten    --     44.6028                 2.4737                14.8220

                     46                     47                     48
                      A                      A                      A
 Frequencies --   3107.7028              3109.7152              3121.0126
 Red. masses --      1.0911                 1.0940                 1.0984
 Frc consts  --      6.2083                 6.2333                 6.3035
 IR Inten    --     18.9823                 7.5506                63.9173

                     49                     50                     51
                      A                      A                      A
 Frequencies --   3192.7281              3792.7550              3792.7936
 Red. masses --      1.1145                 1.0664                 1.0664
 Frc consts  --      6.6934                 9.0378                 9.0384
 IR Inten    --     10.6177                22.4827                16.1521

 - Thermochemistry -
 -------------------
 Temperature   298.150 Kelvin.  Pressure   1.00000 Atm.
 Atom     1 has atomic number  8 and mass  15.99491

 Molecular mass:   126.06808 amu.
 Principal axes and moments of inertia in atomic units:
                           1         2         3
     Eigenvalues --   721.927851077.154941433.68735
           X            0.99988   0.00000   0.01537
           Y            0.00000   1.00000   0.00000
           Z           -0.01537   0.00000   0.99988
 This molecule is an asymmetric top.
 Rotational symmetry number  1.
 Warning -- assumption of classical behavior for rotation
           may cause significant error
 Rotational temperatures (Kelvin)      0.11998     0.08041     0.06041
 Rotational constants (GHZ):           2.49989     1.67547     1.25881
 Zero-point vibrational energy     415401.8 (Joules/Mol)
                                   99.28340 (Kcal/Mol)
 Warning -- explicit consideration of  11 degrees of freedom as
           vibrations may cause significant error
 Vibrational temperatures:    222.16   233.22   292.06   370.48   375.32
          (Kelvin)            395.43   507.09   584.54   696.42   790.01
                              846.51  1007.14  1036.93  1124.11  1145.59
                             1165.87  1224.62  1260.70  1357.87  1375.25
                             1392.11  1441.74  1462.23  1514.77  1575.71
                             1626.39  1656.25  1692.25  1709.70  1775.46
                             1780.43  1781.68  1825.99  1862.31  1865.90
                             1866.48  1933.09  2043.28  2119.92  2144.98
                             2179.63  4394.87  4403.30  4452.10  4467.26
                             4471.29  4474.18  4490.44  4593.62  5456.92
                             5456.98

 Zero-point correction=                           0.158218 (Hartree/Particle)
 Thermal correction to Energy=                    0.166558
 Thermal correction to Enthalpy=                  0.167502
 Thermal correction to Gibbs Free Energy=         0.125900
 Sum of electronic and zero-point Energies=           -422.960606
 Sum of electronic and thermal Energies=              -422.952267
 Sum of electronic and thermal Enthalpies=            -422.951322
 Sum of electronic and thermal Free Energies=         -422.992925

                     E (Thermal)             CV                S
                      KCal/Mol        Cal/Mol-Kelvin    Cal/Mol-Kelvin
 Total                  104.517             33.178             87.560
 Electronic               0.000              0.000              0.000
 Translational            0.889              2.981             40.409
 Rotational               0.889              2.981             28.502
 Vibrational            102.739             27.216             18.649
 Vibration     1          0.620              1.898              2.617
 Vibration     2          0.622              1.889              2.525
 Vibration     3          0.639              1.836              2.106
 Vibration     4          0.667              1.750              1.679
 Vibration     5          0.669              1.744              1.656
 Vibration     6          0.677              1.720              1.566
 Vibration     7          0.729              1.570              1.155
 Vibration     8          0.771              1.457              0.940
 Vibration     9          0.840              1.285              0.699
 Vibration    10          0.904              1.142              0.546
 Vibration    11          0.946              1.057              0.470

 Optimization completed.
    -- Stationary point found.
 Normal termination of Gaussian 09 at Mon Jan 27 18:03:35 2020.
