 Gaussian 09, Revision D.01,
 Gaussian 09:  ES64L-G09RevD.01 24-Apr-2013

 -----------------------------
 # b3lyp 6-31G(2df,p) opt Freq
 -----------------------------

 -----
 titel
 -----
 Symbolic Z-matrix:
 Charge =  0 Multiplicity = 1

 SCF Done:  E(RB3LYP) =  -423.092729450     A.U. after   12 cycles
 Optimization completed.
    -- Stationary point found.
 Normal termination of Gaussian 09 at Mon Jan 27 22:12:07 2020.

 ----------------------------------------------------------------------
 #N Geom=AllCheck Guess=TCheck SCRF=Check GenChk RB3LYP/6-31G(2df,p) Fr
 eq
 ----------------------------------------------------------------------

 Structure from the checkpoint file:  "/scratch/puck/g09_e445d5eb-56d9-468f-99a7-56768dadd8ab/Gau-28826.chk"
 -----
 titel
 -----
 Charge =  0 Multiplicity = 1

                         Standard orientation:
 ---------------------------------------------------------------------
 Center     Atomic      Atomic             Coordinates (Angstroms)
 Number     Number       Type             X           Y           Z
 ---------------------------------------------------------------------
      1          6           0       -1.689053    1.715176   -0.130017
      2          6           0       -0.708685    0.581898   -0.073310
      3          6           0       -1.076064   -0.848215   -0.362422
      4          8           0       -2.460747   -1.063602   -0.363213
      5          6           0       -0.485236   -0.494865    0.991522
      6          6           0        1.035811   -0.227272    0.970444
      7          6           0        1.688603   -0.389764   -0.376554
      8          8           0        3.070663   -0.178763   -0.446714
      9          6           0        0.825532    0.824472   -0.129864
     10          1           0       -1.453516    2.481108    0.617897
     11          1           0       -1.670859    2.197465   -1.115553
     12          1           0       -2.702453    1.351379    0.050325
     13          1           0       -0.543796   -1.453102   -1.093730
     14          1           0       -2.624987   -1.925476    0.033668
     15          1           0       -1.057645   -0.678947    1.893271
     16          1           0        1.638797   -0.162458    1.869489
     17          1           0        1.431822   -1.177388   -1.074348
     18          1           0        3.307677    0.518622    0.174656
     19          1           0        1.250185    1.819135   -0.215060
 ---------------------------------------------------------------------

 SCF Done:  E(RB3LYP) =  -423.092729450     A.U. after    1 cycles

 The electronic state is 1-A.
 Alpha  occ. eigenvalues --  -19.14611 -19.14497 -10.23924 -10.23542 -10.19806
 Alpha  occ. eigenvalues --  -10.19268 -10.18979 -10.18906 -10.17269  -1.03287
 Alpha  occ. eigenvalues --   -1.03011  -0.90789  -0.78706  -0.71353  -0.63937
 Alpha  occ. eigenvalues --   -0.61883  -0.58066  -0.53034  -0.51891  -0.50882
 Alpha  occ. eigenvalues --   -0.47410  -0.44550  -0.42497  -0.41096  -0.40198
 Alpha  occ. eigenvalues --   -0.38220  -0.36941  -0.35719  -0.33997  -0.32162
 Alpha  occ. eigenvalues --   -0.30078  -0.26907  -0.23807  -0.20706
 Alpha virt. eigenvalues --    0.06694   0.07534   0.08725   0.09607   0.11945
 Alpha virt. eigenvalues --    0.13212   0.14904   0.15593   0.15922   0.16764
 Alpha virt. eigenvalues --    0.18495   0.19667   0.22292   0.22426   0.23857

 Mulliken charges:
               1
     1  C   -0.497596
     2  C    0.335778
     3  C    0.018865
     4  O   -0.438572
     5  C   -0.172003
     6  C   -0.130921
     7  C    0.131188
     8  O   -0.448428
     9  C   -0.194539
    10  H    0.112422
    11  H    0.117366
    12  H    0.141035
    13  H    0.085175
    14  H    0.288467
    15  H    0.088501
    16  H    0.087036
    17  H    0.106501
    18  H    0.284255
    19  H    0.085471
 Sum of Mulliken charges =   0.00000

 Dipole moment (field-independent basis, Debye):
    X=             -0.2129    Y=             -0.0149    Z=              1.5900  Tot=              1.6043
 Quadrupole moment (field-independent basis, Debye-Ang):
   XX=            -57.1738   YY=            -48.4973   ZZ=            -53.2284
   XY=              6.3026   XZ=              1.5092   YZ=             -0.0710

  Exact polarizability:  87.516   1.270  73.544   0.706  -1.159  64.972
 Approx polarizability: 116.034   2.157 110.418   0.801  -3.734 105.073

                      1                      2                      3
                      A                      A                      A
 Frequencies --    178.3642               186.7863               204.0631
 Red. masses --      2.4098                 4.3888                 1.1340
 Frc consts  --      0.0452                 0.0902                 0.0278
 IR Inten    --      0.2765                 1.9298                 1.2885

                      4                      5                      6
                      A                      A                      A
 Frequencies --    212.8183               254.1710               265.1567
 Red. masses --      1.1069                 3.0029                 1.7081
 Frc consts  --      0.0295                 0.1143                 0.0708
 IR Inten    --     70.5180                 5.0678                46.5937

                      7                      8                      9
                      A                      A                      A
 Frequencies --    294.8376               306.9095               350.4247
 Red. masses --      2.7325                 1.9259                 3.0284
 Frc consts  --      0.1400                 0.1069                 0.2191
 IR Inten    --     24.3337                46.7480                 1.8864

                     10                     11                     12
                      A                      A                      A
 Frequencies --    417.2242               442.7444               564.6332
 Red. masses --      5.8523                 3.0658                 3.9617
 Frc consts  --      0.6002                 0.3541                 0.7442
 IR Inten    --      4.5292                 5.3404                 6.4050

                     13                     14                     15
                      A                      A                      A
 Frequencies --    664.8973               766.5617               783.9507
 Red. masses --      3.4254                 2.7445                 1.7961
 Frc consts  --      0.8922                 0.9502                 0.6504
 IR Inten    --      2.7678                 5.1675                 6.9652

                     16                     17                     18
                      A                      A                      A
 Frequencies --    836.7486               855.2614               885.9829
 Red. masses --      2.7302                 3.6925                 2.5383
 Frc consts  --      1.1263                 1.5914                 1.1740
 IR Inten    --     17.2215                 8.3431                10.9725

                     19                     20                     21
                      A                      A                      A
 Frequencies --    915.4041               936.1964               968.8906
 Red. masses --      1.4108                 2.1495                 1.5489
 Frc consts  --      0.6965                 1.1100                 0.8567
 IR Inten    --      9.2506                 8.9289                 6.4921

                     22                     23                     24
                      A                      A                      A
 Frequencies --   1002.2288              1052.1188              1060.1296
 Red. masses --      1.6710                 1.7092                 1.4754
 Frc consts  --      0.9889                 1.1148                 0.9769
 IR Inten    --      7.9687                 0.9150                 2.7587

                     25                     26                     27
                      A                      A                      A
 Frequencies --   1096.4661              1109.6065              1119.5961
 Red. masses --      1.4377                 1.5546                 1.8725
 Frc consts  --      1.0184                 1.1277                 1.3829
 IR Inten    --      8.6029                 6.5082                13.3840

                     28                     29                     30
                      A                      A                      A
 Frequencies --   1130.0946              1144.1231              1204.1630
 Red. masses --      2.7236                 4.0229                 1.8440
 Frc consts  --      2.0493                 3.1026                 1.5753
 IR Inten    --    176.3889                39.3186                 1.4998

                     31                     32                     33
                      A                      A                      A
 Frequencies --   1224.2569              1260.2256              1266.4317
 Red. masses --      1.8741                 1.5238                 1.7820
 Frc consts  --      1.6550                 1.4259                 1.6839
 IR Inten    --      2.0430                11.1724                 8.7839

                     34                     35                     36
                      A                      A                      A
 Frequencies --   1298.5783              1326.4070              1359.6913
 Red. masses --      1.4375                 1.9386                 1.5453
 Frc consts  --      1.4282                 2.0095                 1.6832
 IR Inten    --     53.5998                 7.9641                12.2927

                     37                     38                     39
                      A                      A                      A
 Frequencies --   1409.3548              1458.7580              1463.5909
 Red. masses --      1.3513                 2.5113                 1.4906
 Frc consts  --      1.5814                 3.1485                 1.8813
 IR Inten    --      1.2201                24.3957                51.4829

                     40                     41                     42
                      A                      A                      A
 Frequencies --   1489.8476              1498.2997              3020.8211
 Red. masses --      1.0461                 1.1186                 1.0393
 Frc consts  --      1.3681                 1.4795                 5.5880
 IR Inten    --      4.5967                 5.1390                41.7187

                     43                     44                     45
                      A                      A                      A
 Frequencies --   3073.2142              3105.7237              3132.3366
 Red. masses --      1.0997                 1.0876                 1.0966
 Frc consts  --      6.1195                 6.1807                 6.3390
 IR Inten    --     25.2543                25.8916                 7.8265

                     46                     47                     48
                      A                      A                      A
 Frequencies --   3159.5963              3169.5676              3180.7213
 Red. masses --      1.0881                 1.0935                 1.0936
 Frc consts  --      6.4000                 6.4727                 6.5188
 IR Inten    --     11.3180                24.5961                15.1339

                     49                     50                     51
                      A                      A                      A
 Frequencies --   3184.6204              3802.6929              3805.0358
 Red. masses --      1.0889                 1.0656                 1.0663
 Frc consts  --      6.5066                 9.0790                 9.0957
 IR Inten    --     23.9699                17.4875                24.9926

 - Thermochemistry -
 -------------------
 Temperature   298.150 Kelvin.  Pressure   1.00000 Atm.
 Atom     1 has atomic number  6 and mass  12.00000

 Molecular mass:   126.06808 amu.
 Principal axes and moments of inertia in atomic units:
                           1         2         3
     Eigenvalues --   527.386891575.920651793.64018
           X            0.99996  -0.00803   0.00319
           Y            0.00803   0.99997   0.00115
           Z           -0.00320  -0.00112   0.99999
 This molecule is an asymmetric top.
 Rotational symmetry number  1.
 Warning -- assumption of classical behavior for rotation
           may cause significant error
 Rotational temperatures (Kelvin)      0.16423     0.05496     0.04829
 Rotational constants (GHZ):           3.42204     1.14520     1.00619
 Zero-point vibrational energy     412115.5 (Joules/Mol)
                                   98.49796 (Kcal/Mol)
 Warning -- explicit consideration of  12 degrees of freedom as
           vibrations may cause significant error
 Vibrational temperatures:    256.63   268.74   293.60   306.20   365.69
          (Kelvin)            381.50   424.21   441.57   504.18   600.29
                              637.01   812.38   956.64  1102.91  1127.93
                             1203.89  1230.53  1274.73  1317.06  1346.98
                             1394.02  1441.98  1513.76  1525.29  1577.57
                             1596.47  1610.85  1625.95  1646.14  1732.52
                             1761.43  1813.18  1822.11  1868.36  1908.40
                             1956.29  2027.74  2098.82  2105.78  2143.56
                             2155.72  4346.28  4421.66  4468.44  4506.73
                             4545.95  4560.30  4576.34  4581.95  5471.22
                             5474.59

 Zero-point correction=                           0.156966 (Hartree/Particle)
 Thermal correction to Energy=                    0.165916
 Thermal correction to Enthalpy=                  0.166860
 Thermal correction to Gibbs Free Energy=         0.124125
 Sum of electronic and zero-point Energies=           -422.935763
 Sum of electronic and thermal Energies=              -422.926813
 Sum of electronic and thermal Enthalpies=            -422.925869
 Sum of electronic and thermal Free Energies=         -422.968605

                     E (Thermal)             CV                S
                      KCal/Mol        Cal/Mol-Kelvin    Cal/Mol-Kelvin
 Total                  104.114             34.867             89.945
 Electronic               0.000              0.000              0.000
 Translational            0.889              2.981             40.409
 Rotational               0.889              2.981             28.790
 Vibrational            102.337             28.905             20.746
 Vibration     1          0.629              1.869              2.345
 Vibration     2          0.632              1.858              2.259
 Vibration     3          0.640              1.834              2.096
 Vibration     4          0.644              1.821              2.019
 Vibration     5          0.665              1.756              1.701
 Vibration     6          0.671              1.737              1.628
 Vibration     7          0.689              1.683              1.446
 Vibration     8          0.697              1.661              1.379
 Vibration     9          0.727              1.574              1.164
 Vibration    10          0.780              1.433              0.901
 Vibration    11          0.802              1.377              0.818
 Vibration    12          0.920              1.108              0.515

 Optimization completed.
    -- Stationary point found.
 Normal termination of Gaussian 09 at Tue Jan 28 00:25:16 2020.
