 Gaussian 09, Revision D.01,
 Gaussian 09:  ES64L-G09RevD.01 24-Apr-2013

 -----------------------------
 # b3lyp 6-31G(2df,p) opt Freq
 -----------------------------

 -----
 titel
 -----
 Symbolic Z-matrix:
 Charge =  0 Multiplicity = 1

 SCF Done:  E(RB3LYP) =  -423.125274140     A.U. after   12 cycles
 Optimization completed.
    -- Stationary point found.
 Normal termination of Gaussian 09 at Mon Jan 27 23:40:05 2020.

 ----------------------------------------------------------------------
 #N Geom=AllCheck Guess=TCheck SCRF=Check GenChk RB3LYP/6-31G(2df,p) Fr
 eq
 ----------------------------------------------------------------------

 Structure from the checkpoint file:  "/scratch/puck/g09_229775d4-29ca-4522-a1f2-f4f9d3bceaf6/Gau-103900.chk"
 -----
 titel
 -----
 Charge =  0 Multiplicity = 1

                         Standard orientation:
 ---------------------------------------------------------------------
 Center     Atomic      Atomic             Coordinates (Angstroms)
 Number     Number       Type             X           Y           Z
 ---------------------------------------------------------------------
      1          8           0       -2.966045   -0.840839    0.065743
      2          6           0       -1.725748   -0.342685   -0.344947
      3          6           0       -1.308791    1.029889    0.079372
      4          6           0        0.001122    1.409621   -0.616255
      5          6           0        0.686972    0.167090    0.037702
      6          6           0        1.965636    0.333508    0.886451
      7          6           0        2.580130   -0.685451   -0.091510
      8          8           0        1.342209   -0.787774   -0.823358
      9          6           0       -0.629652   -0.228318    0.684223
     10          1           0       -3.148954   -0.519954    0.955319
     11          1           0       -1.504813   -0.705103   -1.345501
     12          1           0       -2.005241    1.717121    0.545428
     13          1           0       -0.018249    1.404310   -1.710916
     14          1           0        0.434637    2.351349   -0.269607
     15          1           0        2.405051    1.332754    0.869857
     16          1           0        1.877574   -0.003687    1.921160
     17          1           0        3.398339   -0.312519   -0.719274
     18          1           0        2.878266   -1.646283    0.344413
     19          1           0       -0.743925   -0.691006    1.659822
 ---------------------------------------------------------------------

 SCF Done:  E(RB3LYP) =  -423.125274140     A.U. after    1 cycles

 The electronic state is 1-A.
 Alpha  occ. eigenvalues --  -19.14360 -19.12744 -10.24162 -10.23661 -10.22892
 Alpha  occ. eigenvalues --  -10.19382 -10.18876 -10.18693 -10.18482  -1.03584
 Alpha  occ. eigenvalues --   -1.02889  -0.88426  -0.74442  -0.71112  -0.66425
 Alpha  occ. eigenvalues --   -0.61237  -0.58449  -0.52416  -0.51466  -0.49603
 Alpha  occ. eigenvalues --   -0.48022  -0.45578  -0.43952  -0.41025  -0.40008
 Alpha  occ. eigenvalues --   -0.37473  -0.36351  -0.35969  -0.35211  -0.32043
 Alpha  occ. eigenvalues --   -0.30345  -0.26167  -0.24472  -0.23574
 Alpha virt. eigenvalues --    0.07008   0.07631   0.09989   0.10372   0.11219
 Alpha virt. eigenvalues --    0.12617   0.13356   0.14811   0.16423   0.17085
 Alpha virt. eigenvalues --    0.17220   0.18852   0.19704   0.20566   0.22687

 Mulliken charges:
               1
     1  O   -0.442983
     2  C    0.153587
     3  C   -0.119100
     4  C   -0.322565
     5  C    0.463236
     6  C   -0.358351
     7  C   -0.071234
     8  O   -0.316197
     9  C   -0.191104
    10  H    0.282272
    11  H    0.117874
    12  H    0.085489
    13  H    0.108705
    14  H    0.104689
    15  H    0.109828
    16  H    0.111139
    17  H    0.102384
    18  H    0.103842
    19  H    0.078488
 Sum of Mulliken charges =   0.00000

 Dipole moment (field-independent basis, Debye):
    X=              1.0498    Y=              1.7299    Z=              2.2418  Tot=              3.0199
 Quadrupole moment (field-independent basis, Debye-Ang):
   XX=            -52.4907   YY=            -54.4362   ZZ=            -51.6146
   XY=             -2.1379   XZ=             -2.4434   YZ=             -1.7606

  Exact polarizability:  90.794  -1.446  69.978  -1.199  -2.036  66.334
 Approx polarizability: 115.561  -0.903 106.038  -0.821  -1.333 102.851

                      1                      2                      3
                      A                      A                      A
 Frequencies --     66.9011                99.1956               176.7707
 Red. masses --      2.3449                 3.9722                 1.1040
 Frc consts  --      0.0062                 0.0230                 0.0203
 IR Inten    --      1.3367                 1.1660                74.5449

                      4                      5                      6
                      A                      A                      A
 Frequencies --    201.6799               280.1280               310.6304
 Red. masses --      2.7648                 3.4721                 2.7949
 Frc consts  --      0.0663                 0.1605                 0.1589
 IR Inten    --      5.8375                14.5995                 5.7424

                      7                      8                      9
                      A                      A                      A
 Frequencies --    390.6747               429.2330               458.5197
 Red. masses --      4.0046                 2.7240                 3.1935
 Frc consts  --      0.3601                 0.2957                 0.3956
 IR Inten    --      1.1644                 4.2721                 1.8947

                     10                     11                     12
                      A                      A                      A
 Frequencies --    560.2003               770.6971               789.5156
 Red. masses --      4.7098                 1.7660                 1.5250
 Frc consts  --      0.8708                 0.6180                 0.5601
 IR Inten    --      4.7344                 8.7147                10.0581

                     13                     14                     15
                      A                      A                      A
 Frequencies --    804.8655               840.5945               869.5200
 Red. masses --      1.9596                 2.3698                 4.1176
 Frc consts  --      0.7479                 0.9866                 1.8342
 IR Inten    --      4.9654                 5.5749                 8.0572

                     16                     17                     18
                      A                      A                      A
 Frequencies --    895.6045               926.0804               944.7826
 Red. masses --      1.7939                 2.9686                 1.8679
 Frc consts  --      0.8478                 1.5000                 0.9824
 IR Inten    --     35.1909                26.2738                 8.0985

                     19                     20                     21
                      A                      A                      A
 Frequencies --    973.6155               984.4693              1004.6652
 Red. masses --      2.5697                 1.2127                 2.2776
 Frc consts  --      1.4352                 0.6925                 1.3545
 IR Inten    --      0.5926                 4.6701                32.0897

                     22                     23                     24
                      A                      A                      A
 Frequencies --   1027.0320              1082.6568              1091.7174
 Red. masses --      5.9416                 1.8184                 1.9859
 Frc consts  --      3.6925                 1.2558                 1.3945
 IR Inten    --    112.8509                 5.5076                31.6135

                     25                     26                     27
                      A                      A                      A
 Frequencies --   1107.4477              1128.2697              1158.0147
 Red. masses --      1.7669                 2.0652                 1.4133
 Frc consts  --      1.2767                 1.5490                 1.1166
 IR Inten    --     32.0556                20.3444                15.2199

                     28                     29                     30
                      A                      A                      A
 Frequencies --   1167.8996              1183.8063              1199.3368
 Red. masses --      1.5818                 1.5717                 2.1554
 Frc consts  --      1.2712                 1.2977                 1.8266
 IR Inten    --     87.9807                 2.0463                 7.5563

                     31                     32                     33
                      A                      A                      A
 Frequencies --   1222.9072              1240.0582              1258.5042
 Red. masses --      1.3433                 1.5495                 1.5478
 Frc consts  --      1.1836                 1.4039                 1.4444
 IR Inten    --      1.0878                14.7301                 4.9773

                     34                     35                     36
                      A                      A                      A
 Frequencies --   1291.4391              1306.5413              1350.1099
 Red. masses --      1.7092                 2.0995                 1.5539
 Frc consts  --      1.6795                 2.1116                 1.6688
 IR Inten    --      2.9928                26.2938                 2.7247

                     37                     38                     39
                      A                      A                      A
 Frequencies --   1359.9764              1450.6552              1479.1910
 Red. masses --      1.7094                 1.6701                 1.1447
 Frc consts  --      1.8628                 2.0707                 1.4757
 IR Inten    --      5.9950               100.9881                10.2608

                     40                     41                     42
                      A                      A                      A
 Frequencies --   1486.4072              1532.2790              3018.9637
 Red. masses --      1.1053                 1.1088                 1.0551
 Frc consts  --      1.4389                 1.5339                 5.6657
 IR Inten    --      3.1682                 1.1939                93.9525

                     43                     44                     45
                      A                      A                      A
 Frequencies --   3046.2330              3058.1167              3072.7065
 Red. masses --      1.0587                 1.1114                 1.0593
 Frc consts  --      5.7883                 6.1239                 5.8928
 IR Inten    --     33.3507                34.7754                23.6280

                     46                     47                     48
                      A                      A                      A
 Frequencies --   3102.8937              3127.5648              3148.1981
 Red. masses --      1.1070                 1.1088                 1.0898
 Frc consts  --      6.2795                 6.3901                 6.3639
 IR Inten    --     17.9533                21.7249                12.6837

                     49                     50                     51
                      A                      A                      A
 Frequencies --   3154.3706              3181.0777              3810.1421
 Red. masses --      1.0907                 1.0940                 1.0657
 Frc consts  --      6.3938                 6.5227                 9.1154
 IR Inten    --     16.8482                18.4002                18.3132

 - Thermochemistry -
 -------------------
 Temperature   298.150 Kelvin.  Pressure   1.00000 Atm.
 Atom     1 has atomic number  8 and mass  15.99491

 Molecular mass:   126.06808 amu.
 Principal axes and moments of inertia in atomic units:
                           1         2         3
     Eigenvalues --   462.609781624.185821758.50337
           X            0.99998  -0.00518   0.00271
           Y            0.00531   0.99868  -0.05110
           Z           -0.00245   0.05111   0.99869
 This molecule is an asymmetric top.
 Rotational symmetry number  1.
 Warning -- assumption of classical behavior for rotation
           may cause significant error
 Rotational temperatures (Kelvin)      0.18723     0.05333     0.04925
 Rotational constants (GHZ):           3.90122     1.11117     1.02629
 Zero-point vibrational energy     416437.2 (Joules/Mol)
                                   99.53087 (Kcal/Mol)
 Warning -- explicit consideration of  10 degrees of freedom as
           vibrations may cause significant error
 Vibrational temperatures:     96.26   142.72   254.33   290.17   403.04
          (Kelvin)            446.93   562.09   617.57   659.71   806.00
                             1108.86  1135.94  1158.02  1209.43  1251.04
                             1288.57  1332.42  1359.33  1400.81  1416.43
                             1445.49  1477.67  1557.70  1570.74  1593.37
                             1623.33  1666.12  1680.34  1703.23  1725.58
                             1759.49  1784.16  1810.70  1858.09  1879.82
                             1942.50  1956.70  2087.17  2128.22  2138.61
                             2204.60  4343.61  4382.84  4399.94  4420.93
                             4464.37  4499.86  4529.55  4538.43  4576.86
                             5481.94

 Zero-point correction=                           0.158613 (Hartree/Particle)
 Thermal correction to Energy=                    0.166979
 Thermal correction to Enthalpy=                  0.167924
 Thermal correction to Gibbs Free Energy=         0.125281
 Sum of electronic and zero-point Energies=           -422.966662
 Sum of electronic and thermal Energies=              -422.958295
 Sum of electronic and thermal Enthalpies=            -422.957350
 Sum of electronic and thermal Free Energies=         -422.999993

                     E (Thermal)             CV                S
                      KCal/Mol        Cal/Mol-Kelvin    Cal/Mol-Kelvin
 Total                  104.781             31.780             89.749
 Electronic               0.000              0.000              0.000
 Translational            0.889              2.981             40.409
 Rotational               0.889              2.981             28.670
 Vibrational            103.004             25.818             20.670
 Vibration     1          0.598              1.970              4.243
 Vibration     2          0.604              1.950              3.470
 Vibration     3          0.628              1.871              2.362
 Vibration     4          0.639              1.838              2.118
 Vibration     5          0.680              1.710              1.533
 Vibration     6          0.699              1.653              1.359
 Vibration     7          0.758              1.490              0.998
 Vibration     8          0.791              1.407              0.861
 Vibration     9          0.817              1.342              0.770
 Vibration    10          0.916              1.117              0.523

 Normal termination of Gaussian 09 at Tue Jan 28 00:23:26 2020.
