 Gaussian 09, Revision D.01,
 Gaussian 09:  ES64L-G09RevD.01 24-Apr-2013

 -----------------------------
 # b3lyp 6-31G(2df,p) opt Freq
 -----------------------------

 -----
 titel
 -----
 Symbolic Z-matrix:
 Charge =  0 Multiplicity = 1

 SCF Done:  E(RB3LYP) =  -423.135524605     A.U. after   13 cycles
 Optimization completed.
    -- Stationary point found.
 Normal termination of Gaussian 09 at Mon Jan 27 17:19:51 2020.

 ----------------------------------------------------------------------
 #N Geom=AllCheck Guess=TCheck SCRF=Check GenChk RB3LYP/6-31G(2df,p) Fr
 eq
 ----------------------------------------------------------------------

 Structure from the checkpoint file:  "/scratch/puck/g09_4176c7f3-2051-4c8b-bea9-021eea290a71/Gau-50180.chk"
 -----
 titel
 -----
 Charge =  0 Multiplicity = 1

                         Standard orientation:
 ---------------------------------------------------------------------
 Center     Atomic      Atomic             Coordinates (Angstroms)
 Number     Number       Type             X           Y           Z
 ---------------------------------------------------------------------
      1          6           0        1.488626    1.690529    0.421964
      2          6           0        0.475280    0.734119   -0.125582
      3          8           0        0.792407    0.000013   -1.317482
      4          6           0        0.475408   -0.734057   -0.125512
      5          6           0        1.488915   -1.690320    0.422000
      6          6           0       -1.063665   -0.972401    0.021828
      7          6           0       -1.405532    0.000030    1.187632
      8          6           0       -1.063829    0.972265    0.021630
      9          8           0       -1.629399   -0.000215   -0.893042
     10          1           0        1.537764    2.595801   -0.193450
     11          1           0        1.226307    1.994513    1.441389
     12          1           0        2.485282    1.241869    0.438674
     13          1           0        1.538873   -2.595136   -0.194019
     14          1           0        2.485358   -1.241218    0.439682
     15          1           0        1.226087   -1.995141    1.441040
     16          1           0       -1.466315   -1.980300   -0.078153
     17          1           0       -2.466711   -0.000013    1.441448
     18          1           0       -0.775287    0.000177    2.082388
     19          1           0       -1.466637    1.980081   -0.078557
 ---------------------------------------------------------------------

 SCF Done:  E(RB3LYP) =  -423.135524605     A.U. after    1 cycles

 The electronic state is 1-A.
 Alpha  occ. eigenvalues --  -19.14111 -19.13558 -10.24159 -10.24159 -10.23437
 Alpha  occ. eigenvalues --  -10.23403 -10.19619 -10.18913 -10.18913  -1.08668
 Alpha  occ. eigenvalues --   -1.02880  -0.78204  -0.75574  -0.73027  -0.67607
 Alpha  occ. eigenvalues --   -0.64687  -0.55492  -0.53436  -0.51082  -0.48804
 Alpha  occ. eigenvalues --   -0.45240  -0.44818  -0.42924  -0.41233  -0.40646
 Alpha  occ. eigenvalues --   -0.40252  -0.38719  -0.35657  -0.35218  -0.33946
 Alpha  occ. eigenvalues --   -0.32808  -0.28285  -0.25946  -0.23545
 Alpha virt. eigenvalues --    0.07531   0.08940   0.09076   0.11503   0.12105
 Alpha virt. eigenvalues --    0.12441   0.14522   0.14882   0.15446   0.15881
 Alpha virt. eigenvalues --    0.17969   0.18086   0.18671   0.20572   0.21902

 Mulliken charges:
               1
     1  C   -0.500894
     2  C    0.348720
     3  O   -0.316416
     4  C    0.348755
     5  C   -0.500895
     6  C   -0.016478
     7  C   -0.241287
     8  C   -0.016461
     9  O   -0.259110
    10  H    0.134317
    11  H    0.123082
    12  H    0.132048
    13  H    0.134336
    14  H    0.132028
    15  H    0.123078
    16  H    0.082884
    17  H    0.112653
    18  H    0.096753
    19  H    0.082888
 Sum of Mulliken charges =   0.00000

 Dipole moment (field-independent basis, Debye):
    X=              0.6253    Y=              0.0003    Z=              3.1520  Tot=              3.2134
 Quadrupole moment (field-independent basis, Debye-Ang):
   XX=            -53.8723   YY=            -47.7808   ZZ=            -57.3156
   XY=             -0.0009   XZ=             -0.8911   YZ=             -0.0006

  Exact polarizability:  76.839  -0.001  81.173  -1.685   0.000  63.998
 Approx polarizability: 105.487  -0.002 118.141  -1.905  -0.001 106.123

                      1                      2                      3
                      A                      A                      A
 Frequencies --    183.2961               188.7271               202.4322
 Red. masses --      1.0957                 1.0217                 2.2380
 Frc consts  --      0.0217                 0.0214                 0.0540
 IR Inten    --      0.2332                 0.0171                 0.2747

                      4                      5                      6
                      A                      A                      A
 Frequencies --    206.1479               249.2535               322.1182
 Red. masses --      2.7377                 2.6480                 2.9471
 Frc consts  --      0.0685                 0.0969                 0.1802
 IR Inten    --      0.7970                 0.4405                 0.0761

                      7                      8                      9
                      A                      A                      A
 Frequencies --    456.3025               507.4961               516.6035
 Red. masses --      3.4212                 3.7863                 3.7361
 Frc consts  --      0.4197                 0.5746                 0.5875
 IR Inten    --      1.5386                 0.6854                 0.1595

                     10                     11                     12
                      A                      A                      A
 Frequencies --    571.6585               601.7054               714.9327
 Red. masses --      4.1922                 5.2911                 3.6956
 Frc consts  --      0.8072                 1.1287                 1.1129
 IR Inten    --      4.0646                18.3784                14.3268

                     13                     14                     15
                      A                      A                      A
 Frequencies --    728.0645               832.3971               834.2666
 Red. masses --      4.1288                 2.4580                 2.8273
 Frc consts  --      1.2895                 1.0034                 1.1594
 IR Inten    --      3.1668                 2.3492                 7.4001

                     16                     17                     18
                      A                      A                      A
 Frequencies --    858.5635               872.3528               932.1345
 Red. masses --      2.4009                 2.3482                 2.9197
 Frc consts  --      1.0427                 1.0529                 1.4947
 IR Inten    --      1.0373                24.5326                15.8961

                     19                     20                     21
                      A                      A                      A
 Frequencies --    944.1453               948.0092              1024.4967
 Red. masses --      7.3815                 2.2417                 1.6425
 Frc consts  --      3.8768                 1.1870                 1.0157
 IR Inten    --     32.6166                18.7087                 0.2554

                     22                     23                     24
                      A                      A                      A
 Frequencies --   1055.3518              1067.0025              1082.8798
 Red. masses --      1.1379                 2.9271                 1.7241
 Frc consts  --      0.7467                 1.9634                 1.1912
 IR Inten    --      3.9280                 0.2640                 0.2873

                     25                     26                     27
                      A                      A                      A
 Frequencies --   1128.6174              1140.3942              1172.3229
 Red. masses --      2.5607                 1.7936                 1.5116
 Frc consts  --      1.9218                 1.3743                 1.2240
 IR Inten    --     18.0999                 6.6124                 4.9503

                     28                     29                     30
                      A                      A                      A
 Frequencies --   1202.6818              1213.8512              1231.7899
 Red. masses --      1.6495                 2.7500                 1.4821
 Frc consts  --      1.4057                 2.3874                 1.3249
 IR Inten    --      0.1979                23.4062                 2.1373

                     31                     32                     33
                      A                      A                      A
 Frequencies --   1261.0967              1302.7883              1305.0589
 Red. masses --      1.7707                 2.0952                 1.5380
 Frc consts  --      1.6592                 2.0952                 1.5433
 IR Inten    --      2.4626                 3.8981                 4.7288

                     34                     35                     36
                      A                      A                      A
 Frequencies --   1411.8250              1415.4912              1466.2710
 Red. masses --      1.3755                 1.2298                 1.4857
 Frc consts  --      1.6154                 1.4517                 1.8819
 IR Inten    --      0.7862                 6.0278                 1.0836

                     37                     38                     39
                      A                      A                      A
 Frequencies --   1476.2267              1483.5236              1489.7661
 Red. masses --      1.0433                 1.1304                 1.0460
 Frc consts  --      1.3396                 1.4658                 1.3678
 IR Inten    --      2.3894                 1.1637                 0.6405

                     40                     41                     42
                      A                      A                      A
 Frequencies --   1498.2179              1517.8624              3031.2669
 Red. masses --      1.1060                 2.1938                 1.0361
 Frc consts  --      1.4627                 2.9779                 5.6092
 IR Inten    --     10.8799                10.5004                27.6817

                     43                     44                     45
                      A                      A                      A
 Frequencies --   3032.9021              3053.0853              3092.0242
 Red. masses --      1.0364                 1.0596                 1.1003
 Frc consts  --      5.6167                 5.8193                 6.1981
 IR Inten    --     14.0276                32.5174                 6.5527

                     46                     47                     48
                      A                      A                      A
 Frequencies --   3092.6343              3115.2223              3117.9961
 Red. masses --      1.1002                 1.1005                 1.1001
 Frc consts  --      6.1997                 6.2926                 6.3016
 IR Inten    --     27.1834                 4.6375                23.8893

                     49                     50                     51
                      A                      A                      A
 Frequencies --   3122.8120              3123.9665              3136.1750
 Red. masses --      1.0886                 1.0964                 1.1042
 Frc consts  --      6.2550                 6.3040                 6.3986
 IR Inten    --     74.3243                 1.3359                33.1167

 - Thermochemistry -
 -------------------
 Temperature   298.150 Kelvin.  Pressure   1.00000 Atm.
 Atom     1 has atomic number  6 and mass  12.00000

 Molecular mass:   126.06808 amu.
 Principal axes and moments of inertia in atomic units:
                           1         2         3
     Eigenvalues --   748.83716 950.083631178.39248
           X            0.99999  -0.00002   0.00340
           Y            0.00002   1.00000   0.00000
           Z           -0.00340   0.00000   0.99999
 This molecule is an asymmetric top.
 Rotational symmetry number  1.
 Warning -- assumption of classical behavior for rotation
           may cause significant error
 Rotational temperatures (Kelvin)      0.11566     0.09116     0.07350
 Rotational constants (GHZ):           2.41006     1.89956     1.53153
 Zero-point vibrational energy     415918.9 (Joules/Mol)
                                   99.40700 (Kcal/Mol)
 Warning -- explicit consideration of  11 degrees of freedom as
           vibrations may cause significant error
 Vibrational temperatures:    263.72   271.54   291.25   296.60   358.62
          (Kelvin)            463.46   656.52   730.17   743.28   822.49
                              865.72  1028.63  1047.52  1197.63  1200.32
                             1235.28  1255.12  1341.13  1358.41  1363.97
                             1474.02  1518.41  1535.18  1558.02  1623.83
                             1640.77  1686.71  1730.39  1746.46  1772.27
                             1814.43  1874.42  1877.69  2031.30  2036.57
                             2109.63  2123.96  2134.46  2143.44  2155.60
                             2183.86  4361.31  4363.66  4392.70  4448.73
                             4449.61  4482.10  4486.10  4493.02  4494.69
                             4512.25

 Zero-point correction=                           0.158415 (Hartree/Particle)
 Thermal correction to Energy=                    0.166344
 Thermal correction to Enthalpy=                  0.167288
 Thermal correction to Gibbs Free Energy=         0.126553
 Sum of electronic and zero-point Energies=           -422.977109
 Sum of electronic and thermal Energies=              -422.969181
 Sum of electronic and thermal Enthalpies=            -422.968237
 Sum of electronic and thermal Free Energies=         -423.008971

                     E (Thermal)             CV                S
                      KCal/Mol        Cal/Mol-Kelvin    Cal/Mol-Kelvin
 Total                  104.382             31.584             85.733
 Electronic               0.000              0.000              0.000
 Translational            0.889              2.981             40.409
 Rotational               0.889              2.981             28.218
 Vibrational            102.605             25.622             17.106
 Vibration     1          0.631              1.863              2.295
 Vibration     2          0.633              1.855              2.240
 Vibration     3          0.639              1.836              2.111
 Vibration     4          0.641              1.831              2.078
 Vibration     5          0.662              1.764              1.736
 Vibration     6          0.707              1.631              1.299
 Vibration     7          0.815              1.347              0.777
 Vibration     8          0.863              1.233              0.640
 Vibration     9          0.872              1.213              0.618
 Vibration    10          0.928              1.093              0.501
 Vibration    11          0.960              1.028              0.447

 Normal termination of Gaussian 09 at Mon Jan 27 18:04:35 2020.
