 Gaussian 09, Revision D.01,
 Gaussian 09:  ES64L-G09RevD.01 24-Apr-2013

 -----------------------------
 # b3lyp 6-31G(2df,p) opt Freq
 -----------------------------

 -----
 titel
 -----
 Symbolic Z-matrix:
 Charge =  0 Multiplicity = 1

 SCF Done:  E(RB3LYP) =  -423.158651758     A.U. after   14 cycles
 Optimization completed.
    -- Stationary point found.
 Normal termination of Gaussian 09 at Mon Jan 27 13:44:38 2020.

 ----------------------------------------------------------------------
 #N Geom=AllCheck Guess=TCheck SCRF=Check GenChk RB3LYP/6-31G(2df,p) Fr
 eq
 ----------------------------------------------------------------------

 Structure from the checkpoint file:  "/scratch/puck/g09_42f8e8d4-4502-4fab-9586-407bbabfb998/Gau-75933.chk"
 -----
 titel
 -----
 Charge =  0 Multiplicity = 1

                         Standard orientation:
 ---------------------------------------------------------------------
 Center     Atomic      Atomic             Coordinates (Angstroms)
 Number     Number       Type             X           Y           Z
 ---------------------------------------------------------------------
      1          8           0       -3.855399   -0.249769   -0.345226
      2          6           0       -2.777483   -0.436962    0.157773
      3          6           0       -1.725198    0.628620    0.371304
      4          6           0       -0.412614    0.289009   -0.339174
      5          6           0        0.811224    1.224417   -0.087670
      6          6           0        1.672488   -0.036745    0.004541
      7          6           0        2.928736   -0.342050   -0.680967
      8          8           0        2.869059   -0.156118    0.742887
      9          6           0        0.435496   -0.919869    0.176615
     10          1           0       -2.478296   -1.455510    0.499712
     11          1           0       -2.127213    1.585864    0.025183
     12          1           0       -1.535596    0.704976    1.452047
     13          1           0       -0.593050    0.189746   -1.414018
     14          1           0        1.056089    1.961795   -0.855357
     15          1           0        0.745079    1.727941    0.882515
     16          1           0        3.135481   -1.360273   -1.008637
     17          1           0        3.452041    0.439709   -1.230451
     18          1           0        0.390647   -1.857058   -0.382616
     19          1           0        0.249643   -1.128607    1.235798
 ---------------------------------------------------------------------

 SCF Done:  E(RB3LYP) =  -423.158651758     A.U. after    1 cycles

 The electronic state is 1-A.
 Alpha  occ. eigenvalues --  -19.15449 -19.14174 -10.27377 -10.24844 -10.23718
 Alpha  occ. eigenvalues --  -10.21202 -10.19951 -10.19566 -10.19470  -1.07638
 Alpha  occ. eigenvalues --   -1.04827  -0.85929  -0.76135  -0.68261  -0.66791
 Alpha  occ. eigenvalues --   -0.62094  -0.57488  -0.55138  -0.50596  -0.49267
 Alpha  occ. eigenvalues --   -0.48857  -0.45457  -0.44093  -0.43369  -0.40547
 Alpha  occ. eigenvalues --   -0.40445  -0.38785  -0.35804  -0.35142  -0.33572
 Alpha  occ. eigenvalues --   -0.32790  -0.29870  -0.26761  -0.25131
 Alpha virt. eigenvalues --   -0.02522   0.06686   0.08680   0.10231   0.11277
 Alpha virt. eigenvalues --    0.11651   0.13026   0.13640   0.14311   0.14723
 Alpha virt. eigenvalues --    0.16342   0.17109   0.17884   0.19383   0.22351

 Mulliken charges:
               1
     1  O   -0.237368
     2  C    0.160902
     3  C   -0.298046
     4  C    0.024856
     5  C   -0.340970
     6  C    0.469262
     7  C   -0.265537
     8  O   -0.269033
     9  C   -0.337081
    10  H    0.075798
    11  H    0.123223
    12  H    0.115318
    13  H    0.090988
    14  H    0.111246
    15  H    0.115540
    16  H    0.117301
    17  H    0.117441
    18  H    0.111952
    19  H    0.114212
 Sum of Mulliken charges =   0.00000

 Dipole moment (field-independent basis, Debye):
    X=              1.5603    Y=              0.0980    Z=             -0.5976  Tot=              1.6737
 Quadrupole moment (field-independent basis, Debye-Ang):
   XX=            -71.4917   YY=            -51.0407   ZZ=            -52.4032
   XY=             -0.5313   XZ=             -8.7546   YZ=              0.1917

  Exact polarizability:  97.166  -1.067  71.663  -2.496  -0.573  62.925
 Approx polarizability: 124.849  -2.628 103.180   3.876  -1.033 102.834

                      1                      2                      3
                      A                      A                      A
 Frequencies --     45.1109                67.0148                84.0452
 Red. masses --      5.1852                 4.3668                 3.5282
 Frc consts  --      0.0062                 0.0116                 0.0147
 IR Inten    --      7.5301                 3.5457                 2.2161

                      4                      5                      6
                      A                      A                      A
 Frequencies --    176.4836               288.7794               311.6949
 Red. masses --      2.2643                 3.8962                 2.4228
 Frc consts  --      0.0416                 0.1914                 0.1387
 IR Inten    --      0.8950                 0.7258                 3.5996

                      7                      8                      9
                      A                      A                      A
 Frequencies --    327.9700               399.2475               432.9837
 Red. masses --      3.3806                 2.2656                 2.2702
 Frc consts  --      0.2142                 0.2128                 0.2508
 IR Inten    --      1.2419                 2.8823                 3.5880

                     10                     11                     12
                      A                      A                      A
 Frequencies --    492.0112               551.6293               720.3640
 Red. masses --      2.1976                 4.0925                 2.3471
 Frc consts  --      0.3134                 0.7337                 0.7176
 IR Inten    --     10.8171                 8.3657                 1.9488

                     13                     14                     15
                      A                      A                      A
 Frequencies --    823.8771               831.4015               844.8983
 Red. masses --      1.3107                 1.8318                 2.7977
 Frc consts  --      0.5242                 0.7460                 1.1767
 IR Inten    --      1.7400                 0.6279                31.1733

                     16                     17                     18
                      A                      A                      A
 Frequencies --    880.8832               887.6237               945.2102
 Red. masses --      4.8125                 1.5713                 2.3132
 Frc consts  --      2.2002                 0.7294                 1.2176
 IR Inten    --     17.3548                 1.8118                 7.7533

                     19                     20                     21
                      A                      A                      A
 Frequencies --    970.6251               978.8028              1038.7190
 Red. masses --      3.6524                 1.6727                 1.1482
 Frc consts  --      2.0274                 0.9442                 0.7299
 IR Inten    --     13.5217                 0.6585                 5.9236

                     22                     23                     24
                      A                      A                      A
 Frequencies --   1070.7033              1099.8945              1126.4123
 Red. masses --      2.5682                 2.7891                 1.2801
 Frc consts  --      1.7347                 1.9880                 0.9570
 IR Inten    --     11.1776                10.2853                 3.2654

                     25                     26                     27
                      A                      A                      A
 Frequencies --   1140.2995              1163.2612              1193.0846
 Red. masses --      1.9669                 1.4516                 1.6759
 Frc consts  --      1.5068                 1.1573                 1.4055
 IR Inten    --      5.8046                 1.6931                18.6112

                     28                     29                     30
                      A                      A                      A
 Frequencies --   1195.5105              1222.8845              1249.0856
 Red. masses --      2.4394                 1.4152                 1.3811
 Frc consts  --      2.0542                 1.2469                 1.2696
 IR Inten    --      4.3783                 0.4240                 0.5677

                     31                     32                     33
                      A                      A                      A
 Frequencies --   1259.2863              1279.5860              1311.4941
 Red. masses --      1.3342                 1.3290                 1.5267
 Frc consts  --      1.2466                 1.2821                 1.5471
 IR Inten    --      0.3895                 0.9135                 1.8277

                     34                     35                     36
                      A                      A                      A
 Frequencies --   1369.6545              1430.9397              1437.3013
 Red. masses --      1.4534                 1.2031                 1.9543
 Frc consts  --      1.6064                 1.4514                 2.3787
 IR Inten    --     23.1573                 5.3432                23.1010

                     37                     38                     39
                      A                      A                      A
 Frequencies --   1461.8523              1467.9858              1493.6217
 Red. masses --      1.0970                 1.0968                 1.1473
 Frc consts  --      1.3812                 1.3926                 1.5081
 IR Inten    --      5.8581                 1.5318                 2.8551

                     40                     41                     42
                      A                      A                      A
 Frequencies --   1538.1812              1834.7322              2857.3620
 Red. masses --      1.6911                10.0051                 1.0815
 Frc consts  --      2.3574                19.8434                 5.2027
 IR Inten    --     10.2804               192.2489                96.0249

                     43                     44                     45
                      A                      A                      A
 Frequencies --   3009.4083              3048.1535              3052.4681
 Red. masses --      1.0645                 1.0600                 1.0678
 Frc consts  --      5.6804                 5.8029                 5.8621
 IR Inten    --      6.9206                26.5236                 4.2715

                     46                     47                     48
                      A                      A                      A
 Frequencies --   3059.5768              3078.8325              3092.8089
 Red. masses --      1.0768                 1.0503                 1.0974
 Frc consts  --      5.9392                 5.8658                 6.1845
 IR Inten    --     17.5774                25.6201                15.4313

                     49                     50                     51
                      A                      A                      A
 Frequencies --   3110.5664              3113.9082              3166.2188
 Red. masses --      1.1051                 1.1057                 1.1196
 Frc consts  --      6.3001                 6.3171                 6.6127
 IR Inten    --     15.0398                29.0645                21.9249

 - Thermochemistry -
 -------------------
 Temperature   298.150 Kelvin.  Pressure   1.00000 Atm.
 Atom     1 has atomic number  8 and mass  15.99491

 Molecular mass:   126.06808 amu.
 Principal axes and moments of inertia in atomic units:
                           1         2         3
     Eigenvalues --   314.195502549.456792648.74616
           X            0.99988  -0.00208  -0.01545
           Y            0.00212   0.99999   0.00275
           Z            0.01545  -0.00278   0.99988
 This molecule is an asymmetric top.
 Rotational symmetry number  1.
 Rotational temperatures (Kelvin)      0.27567     0.03397     0.03270
 Rotational constants (GHZ):           5.74401     0.70789     0.68136
 Zero-point vibrational energy     412917.7 (Joules/Mol)
                                   98.68970 (Kcal/Mol)
 Warning -- explicit consideration of  11 degrees of freedom as
           vibrations may cause significant error
 Vibrational temperatures:     64.90    96.42   120.92   253.92   415.49
          (Kelvin)            448.46   471.88   574.43   622.97   707.89
                              793.67  1036.44  1185.37  1196.20  1215.62
                             1267.39  1277.09  1359.94  1396.51  1408.28
                             1494.48  1540.50  1582.50  1620.65  1640.63
                             1673.67  1716.58  1720.07  1759.46  1797.15
                             1811.83  1841.04  1886.95  1970.62  2058.80
                             2067.95  2103.28  2112.10  2148.99  2213.10
                             2639.77  4111.10  4329.86  4385.61  4391.82
                             4402.04  4429.75  4449.86  4475.41  4480.21
                             4555.48

 Zero-point correction=                           0.157272 (Hartree/Particle)
 Thermal correction to Energy=                    0.166192
 Thermal correction to Enthalpy=                  0.167136
 Thermal correction to Gibbs Free Energy=         0.122343
 Sum of electronic and zero-point Energies=           -423.001380
 Sum of electronic and thermal Energies=              -422.992460
 Sum of electronic and thermal Enthalpies=            -422.991516
 Sum of electronic and thermal Free Energies=         -423.036309

                     E (Thermal)             CV                S
                      KCal/Mol        Cal/Mol-Kelvin    Cal/Mol-Kelvin
 Total                  104.287             32.413             94.274
 Electronic               0.000              0.000              0.000
 Translational            0.889              2.981             40.409
 Rotational               0.889              2.981             29.141
 Vibrational            102.510             26.452             24.725
 Vibration     1          0.595              1.979              5.021
 Vibration     2          0.598              1.970              4.239
 Vibration     3          0.601              1.960              3.794
 Vibration     4          0.628              1.871              2.365
 Vibration     5          0.685              1.695              1.481
 Vibration     6          0.700              1.651              1.353
 Vibration     7          0.711              1.620              1.270
 Vibration     8          0.765              1.472              0.965
 Vibration     9          0.794              1.398              0.849
 Vibration    10          0.848              1.268              0.678
 Vibration    11          0.907              1.136              0.541

 Optimization completed.
    -- Stationary point found.
 Normal termination of Gaussian 09 at Mon Jan 27 14:22:43 2020.
