 Gaussian 09, Revision D.01,
 Gaussian 09:  ES64L-G09RevD.01 24-Apr-2013

 -----------------------------
 # b3lyp 6-31G(2df,p) opt Freq
 -----------------------------

 -----
 titel
 -----
 Symbolic Z-matrix:
 Charge =  0 Multiplicity = 1

 SCF Done:  E(RB3LYP) =  -423.173011717     A.U. after   13 cycles
 SCF Done:  E(RB3LYP) =  -423.173011926     A.U. after    6 cycles
 Optimization completed.
    -- Stationary point found.
 Normal termination of Gaussian 09 at Mon Jan 27 12:22:51 2020.

 ----------------------------------------------------------------------
 #N Geom=AllCheck Guess=TCheck SCRF=Check GenChk RB3LYP/6-31G(2df,p) Fr
 eq
 ----------------------------------------------------------------------

 Structure from the checkpoint file:  "/scratch/puck/g09_f33829d7-f3e3-41b6-95fc-611c38e0f890/Gau-165740.chk"
 -----
 titel
 -----
 Charge =  0 Multiplicity = 1

                         Standard orientation:
 ---------------------------------------------------------------------
 Center     Atomic      Atomic             Coordinates (Angstroms)
 Number     Number       Type             X           Y           Z
 ---------------------------------------------------------------------
      1          6           0       -0.665791    2.029400    0.000000
      2          6           0        0.901568    1.981550    0.000000
      3          6           0        1.098084    0.464939    0.000000
      4          6           0        0.048556   -0.033286   -1.044364
      5          8           0        0.048556   -1.446565   -1.168887
      6          6           0       -0.436476   -2.062553    0.000000
      7          8           0        0.048556   -1.446565    1.168887
      8          6           0        0.048556   -0.033286    1.044364
      9          6           0       -0.975311    0.526941    0.000000
     10          1           0       -1.072239    2.531191    0.882789
     11          1           0       -1.072239    2.531191   -0.882789
     12          1           0        1.335149    2.459153   -0.883435
     13          1           0        1.335149    2.459153    0.883435
     14          1           0        2.107755    0.055802    0.000000
     15          1           0        0.063820    0.383506   -2.054900
     16          1           0       -1.538823   -2.040992    0.000000
     17          1           0       -0.088041   -3.098190    0.000000
     18          1           0        0.063820    0.383506    2.054900
     19          1           0       -2.026369    0.238488    0.000000
 ---------------------------------------------------------------------

 SCF Done:  E(RB3LYP) =  -423.173011926     A.U. after    1 cycles

 The electronic state is 1-A'.
 Alpha  occ. eigenvalues --  -19.14385 -19.14385 -10.27130 -10.23711 -10.23710
 Alpha  occ. eigenvalues --  -10.19336 -10.18924 -10.18622 -10.18374  -1.07890
 Alpha  occ. eigenvalues --   -1.00092  -0.88417  -0.73511  -0.69899  -0.66509
 Alpha  occ. eigenvalues --   -0.65606  -0.56832  -0.52804  -0.51285  -0.50213
 Alpha  occ. eigenvalues --   -0.49946  -0.44810  -0.42639  -0.41496  -0.40839
 Alpha  occ. eigenvalues --   -0.37706  -0.36191  -0.34967  -0.34864  -0.33750
 Alpha  occ. eigenvalues --   -0.33316  -0.28599  -0.24872  -0.24082
 Alpha virt. eigenvalues --    0.08918   0.10775   0.10934   0.11535   0.12701
 Alpha virt. eigenvalues --    0.13898   0.14819   0.15895   0.16408   0.18318
 Alpha virt. eigenvalues --    0.18608   0.19162   0.20247   0.21041   0.21126

 Mulliken charges:
               1
     1  C   -0.244078
     2  C   -0.237828
     3  C   -0.059735
     4  C    0.138400
     5  O   -0.283452
     6  C    0.019022
     7  O   -0.283452
     8  C    0.138400
     9  C   -0.102724
    10  H    0.104307
    11  H    0.104307
    12  H    0.102971
    13  H    0.102971
    14  H    0.070383
    15  H    0.076661
    16  H    0.087078
    17  H    0.118268
    18  H    0.076661
    19  H    0.071841
 Sum of Mulliken charges =   0.00000

 Dipole moment (field-independent basis, Debye):
    X=             -0.6717    Y=              1.5062    Z=              0.0000  Tot=              1.6492
 Quadrupole moment (field-independent basis, Debye-Ang):
   XX=            -52.1858   YY=            -52.3496   ZZ=            -55.4293
   XY=              1.3672   XZ=              0.0000   YZ=              0.0000

  Exact polarizability:  68.056   2.863  85.544   0.000   0.000  66.362
 Approx polarizability: 101.969   1.382 113.671   0.000   0.000 105.409

                      1                      2                      3
                     A"                     A'                     A"
 Frequencies --    257.2247               271.4283               290.2617
 Red. masses --      2.0584                 2.3267                 2.9508
 Frc consts  --      0.0802                 0.1010                 0.1465
 IR Inten    --      0.2672                 4.2972                 0.5807

                      4                      5                      6
                     A"                     A'                     A'
 Frequencies --    316.2071               402.2800               500.4302
 Red. masses --      2.9166                 3.7776                 5.2920
 Frc consts  --      0.1718                 0.3602                 0.7808
 IR Inten    --      0.7478                 8.1313                 2.6942

                      7                      8                      9
                     A"                     A'                     A'
 Frequencies --    529.7351               644.6317               696.5202
 Red. masses --      6.2097                 4.1772                 7.4465
 Frc consts  --      1.0267                 1.0227                 2.1285
 IR Inten    --      4.8519                 3.4954                 5.9689

                     10                     11                     12
                     A"                     A"                     A"
 Frequencies --    817.0338               819.1161               888.2728
 Red. masses --      1.4757                 2.2177                 1.9637
 Frc consts  --      0.5804                 0.8767                 0.9129
 IR Inten    --      0.1337                 0.1368                 1.3149

                     13                     14                     15
                     A'                     A'                     A'
 Frequencies --    903.0235               940.0278               953.4604
 Red. masses --      3.0201                 2.5444                 1.8461
 Frc consts  --      1.4510                 1.3247                 0.9888
 IR Inten    --      0.9575                 5.3556                 0.1545

                     16                     17                     18
                     A'                     A"                     A'
 Frequencies --    963.9059               964.7299               988.8584
 Red. masses --      3.4673                 2.6304                 4.3752
 Frc consts  --      1.8981                 1.4424                 2.5207
 IR Inten    --      1.8170                37.4552                10.8555

                     19                     20                     21
                     A'                     A"                     A"
 Frequencies --   1011.9605              1024.1826              1042.0309
 Red. masses --      2.2869                 1.3661                 2.5628
 Frc consts  --      1.3798                 0.8443                 1.6396
 IR Inten    --      0.7399                 9.3868                42.7051

                     22                     23                     24
                     A'                     A"                     A'
 Frequencies --   1069.9768              1102.8759              1142.7201
 Red. masses --      2.5943                 1.8386                 2.2822
 Frc consts  --      1.7499                 1.3176                 1.7559
 IR Inten    --      2.2598                 1.2002                96.4413

                     25                     26                     27
                     A"                     A"                     A'
 Frequencies --   1144.9009              1202.2201              1205.0174
 Red. masses --      1.3651                 1.4360                 2.7160
 Frc consts  --      1.0542                 1.2228                 2.3236
 IR Inten    --      0.1647                 0.1859               137.7493

                     28                     29                     30
                     A'                     A'                     A'
 Frequencies --   1227.6004              1237.8580              1250.3419
 Red. masses --      1.6669                 1.9485                 1.9745
 Frc consts  --      1.4800                 1.7591                 1.8187
 IR Inten    --      3.3954                50.5613                 5.0445

                     31                     32                     33
                     A"                     A"                     A"
 Frequencies --   1262.4355              1270.0505              1281.3578
 Red. masses --      1.1878                 1.1261                 1.6101
 Frc consts  --      1.1154                 1.0702                 1.5575
 IR Inten    --      0.0143                 1.9894                 6.1029

                     34                     35                     36
                     A'                     A'                     A"
 Frequencies --   1318.4626              1323.8079              1356.9515
 Red. masses --      1.4618                 1.4274                 1.2472
 Frc consts  --      1.4971                 1.4738                 1.3531
 IR Inten    --      0.6711                 0.4709                13.9004

                     37                     38                     39
                     A'                     A"                     A'
 Frequencies --   1402.0086              1445.4864              1492.7865
 Red. masses --      1.4473                 1.2378                 1.0827
 Frc consts  --      1.6761                 1.5238                 1.4216
 IR Inten    --     29.0404                 9.1457                 0.3548

                     40                     41                     42
                     A'                     A'                     A'
 Frequencies --   1513.4607              1533.2055              2959.9105
 Red. masses --      1.1033                 1.0958                 1.0704
 Frc consts  --      1.4890                 1.5177                 5.5255
 IR Inten    --      2.4390                 1.2378                82.0872

                     43                     44                     45
                     A'                     A'                     A"
 Frequencies --   3049.1223              3057.7186              3074.7016
 Red. masses --      1.0584                 1.0599                 1.0872
 Frc consts  --      5.7975                 5.8387                 6.0560
 IR Inten    --     29.2283                50.2418                74.9333

                     46                     47                     48
                     A'                     A"                     A'
 Frequencies --   3077.6816              3084.1903              3099.1251
 Red. masses --      1.0879                 1.1075                 1.0944
 Frc consts  --      6.0714                 6.2067                 6.1932
 IR Inten    --     21.6109                 0.0595                38.2012

                     49                     50                     51
                     A"                     A'                     A'
 Frequencies --   3103.7850              3117.1641              3129.2199
 Red. masses --      1.1062                 1.0895                 1.0910
 Frc consts  --      6.2787                 6.2371                 6.2943
 IR Inten    --     50.3113                42.9243                19.7292

 - Thermochemistry -
 -------------------
 Temperature   298.150 Kelvin.  Pressure   1.00000 Atm.
 Atom     1 has atomic number  6 and mass  12.00000

 Molecular mass:   126.06808 amu.
 Principal axes and moments of inertia in atomic units:
                           1         2         3
     Eigenvalues --   500.744881142.178521223.79994
           X            0.08931   0.00000   0.99600
           Y            0.99600   0.00000  -0.08931
           Z            0.00000   1.00000   0.00000
 This molecule is an asymmetric top.
 Rotational symmetry number  1.
 Warning -- assumption of classical behavior for rotation
           may cause significant error
 Rotational temperatures (Kelvin)      0.17297     0.07583     0.07077
 Rotational constants (GHZ):           3.60411     1.58009     1.47470
 Zero-point vibrational energy     429228.9 (Joules/Mol)
                                  102.58816 (Kcal/Mol)
 Warning -- explicit consideration of   7 degrees of freedom as
           vibrations may cause significant error
 Vibrational temperatures:    370.09   390.52   417.62   454.95   578.79
          (Kelvin)            720.01   762.17   927.48  1002.14  1175.53
                             1178.52  1278.02  1299.25  1352.49  1371.82
                             1386.84  1388.03  1422.74  1455.98  1473.57
                             1499.25  1539.46  1586.79  1644.12  1647.25
                             1729.72  1733.75  1766.24  1781.00  1798.96
                             1816.36  1827.32  1843.59  1896.97  1904.66
                             1952.35  2017.18  2079.73  2147.78  2177.53
                             2205.94  4258.65  4387.00  4399.37  4423.80
                             4428.09  4437.46  4458.94  4465.65  4484.90
                             4502.24

 Zero-point correction=                           0.163485 (Hartree/Particle)
 Thermal correction to Energy=                    0.169904
 Thermal correction to Enthalpy=                  0.170848
 Thermal correction to Gibbs Free Energy=         0.133062
 Sum of electronic and zero-point Energies=           -423.009527
 Sum of electronic and thermal Energies=              -423.003108
 Sum of electronic and thermal Enthalpies=            -423.002164
 Sum of electronic and thermal Free Energies=         -423.039950

                     E (Thermal)             CV                S
                      KCal/Mol        Cal/Mol-Kelvin    Cal/Mol-Kelvin
 Total                  106.616             27.175             79.528
 Electronic               0.000              0.000              0.000
 Translational            0.889              2.981             40.409
 Rotational               0.889              2.981             28.039
 Vibrational            104.839             21.213             11.081
 Vibration     1          0.667              1.751              1.681
 Vibration     2          0.675              1.726              1.587
 Vibration     3          0.686              1.692              1.472
 Vibration     4          0.703              1.643              1.330
 Vibration     5          0.768              1.465              0.954
 Vibration     6          0.856              1.249              0.657
 Vibration     7          0.885              1.184              0.588

 Optimization completed.
    -- Stationary point found.
 Normal termination of Gaussian 09 at Mon Jan 27 13:01:05 2020.
