 Gaussian 09, Revision D.01,
 Gaussian 09:  ES64L-G09RevD.01 24-Apr-2013

 -----------------------------
 # b3lyp 6-31G(2df,p) opt Freq
 -----------------------------

 -----
 titel
 -----
 Symbolic Z-matrix:
 Charge =  0 Multiplicity = 1

 SCF Done:  E(RB3LYP) =  -423.184495136     A.U. after   14 cycles
 Optimization completed.
    -- Stationary point found.
 Normal termination of Gaussian 09 at Mon Jan 27 22:07:19 2020.

 ----------------------------------------------------------------------
 #N Geom=AllCheck Guess=TCheck SCRF=Check GenChk RB3LYP/6-31G(2df,p) Fr
 eq
 ----------------------------------------------------------------------

 Structure from the checkpoint file:  "/scratch/puck/g09_ca391e24-bc19-4f56-a940-887e09045378/Gau-116811.chk"
 -----
 titel
 -----
 Charge =  0 Multiplicity = 1

                         Standard orientation:
 ---------------------------------------------------------------------
 Center     Atomic      Atomic             Coordinates (Angstroms)
 Number     Number       Type             X           Y           Z
 ---------------------------------------------------------------------
      1          6           0        2.381519   -0.923383    0.093059
      2          6           0        1.043814   -0.238590    0.092148
      3          6           0        0.211960   -0.023071    1.356144
      4          6           0       -0.912149    0.772383    0.668833
      5          8           0       -0.211470    1.792909   -0.057685
      6          6           0        0.709078    0.966065   -0.756199
      7          6           0        0.037785   -0.352481   -1.062852
      8          6           0       -1.350232   -0.194914   -0.471649
      9          8           0       -1.870357   -1.436787   -0.035475
     10          1           0        2.833137   -0.916283   -0.904574
     11          1           0        3.079862   -0.426812    0.776664
     12          1           0        2.293586   -1.969685    0.406828
     13          1           0       -0.150794   -0.954977    1.794493
     14          1           0        0.735450    0.571819    2.110564
     15          1           0       -1.690875    1.219921    1.284550
     16          1           0        1.392767    1.496253   -1.404634
     17          1           0        0.232691   -0.927256   -1.958244
     18          1           0       -2.037297    0.309291   -1.165344
     19          1           0       -2.764567   -1.287304    0.288073
 ---------------------------------------------------------------------

 SCF Done:  E(RB3LYP) =  -423.184495136     A.U. after    1 cycles

 The electronic state is 1-A.
 Alpha  occ. eigenvalues --  -19.14101 -19.13888 -10.23159 -10.22726 -10.22718
 Alpha  occ. eigenvalues --  -10.19246 -10.18180 -10.17930 -10.17651  -1.05377
 Alpha  occ. eigenvalues --   -1.01987  -0.85683  -0.75237  -0.73033  -0.68244
 Alpha  occ. eigenvalues --   -0.59378  -0.56627  -0.54163  -0.51519  -0.50417
 Alpha  occ. eigenvalues --   -0.46729  -0.42831  -0.42048  -0.40326  -0.40008
 Alpha  occ. eigenvalues --   -0.38696  -0.38034  -0.36372  -0.33828  -0.32486
 Alpha  occ. eigenvalues --   -0.31593  -0.28042  -0.25739  -0.22506
 Alpha virt. eigenvalues --    0.06899   0.10584   0.10915   0.13118   0.13547
 Alpha virt. eigenvalues --    0.14960   0.15335   0.15792   0.16472   0.17347
 Alpha virt. eigenvalues --    0.18180   0.18829   0.20381   0.21647   0.22842

 Mulliken charges:
               1
     1  C   -0.504662
     2  C    0.298666
     3  C   -0.272253
     4  C   -0.005495
     5  O   -0.261772
     6  C    0.044861
     7  C   -0.172524
     8  C    0.124768
     9  O   -0.436226
    10  H    0.115549
    11  H    0.119106
    12  H    0.123881
    13  H    0.112418
    14  H    0.096414
    15  H    0.072610
    16  H    0.101159
    17  H    0.088355
    18  H    0.070892
    19  H    0.284254
 Sum of Mulliken charges =   0.00000

 Dipole moment (field-independent basis, Debye):
    X=             -0.4849    Y=             -0.4478    Z=              0.2199  Tot=              0.6957
 Quadrupole moment (field-independent basis, Debye-Ang):
   XX=            -45.5580   YY=            -59.6236   ZZ=            -50.8693
   XY=             -0.0797   XZ=             -2.6823   YZ=             -0.3516

  Exact polarizability:  82.101  -1.066  67.714  -1.118  -0.617  70.487
 Approx polarizability: 110.469   0.699 107.284  -1.299  -1.626 105.762

                      1                      2                      3
                      A                      A                      A
 Frequencies --    165.6066               210.3272               259.2411
 Red. masses --      3.3206                 1.0664                 2.3284
 Frc consts  --      0.0537                 0.0278                 0.0922
 IR Inten    --      1.8450                 0.2606                 4.3927

                      4                      5                      6
                      A                      A                      A
 Frequencies --    290.5543               297.2877               341.7486
 Red. masses --      2.2017                 1.3404                 3.5274
 Frc consts  --      0.1095                 0.0698                 0.2427
 IR Inten    --     27.3378                76.2475                 5.1219

                      7                      8                      9
                      A                      A                      A
 Frequencies --    454.6895               513.8796               574.7672
 Red. masses --      1.9747                 6.3754                 4.0186
 Frc consts  --      0.2405                 0.9919                 0.7822
 IR Inten    --      3.2264                 0.9782                 2.9737

                     10                     11                     12
                      A                      A                      A
 Frequencies --    600.3364               663.0645               749.9111
 Red. masses --      3.8271                 4.9597                 3.5683
 Frc consts  --      0.8127                 1.2847                 1.1823
 IR Inten    --     15.2261                 1.6916                 7.4906

                     13                     14                     15
                      A                      A                      A
 Frequencies --    811.8759               867.8692               879.2507
 Red. masses --      3.8016                 2.3461                 1.9063
 Frc consts  --      1.4764                 1.0411                 0.8683
 IR Inten    --      3.6819                 6.5925                 9.4947

                     16                     17                     18
                      A                      A                      A
 Frequencies --    894.0379               918.6101               954.0810
 Red. masses --      2.6185                 1.9837                 2.0782
 Frc consts  --      1.2331                 0.9862                 1.1146
 IR Inten    --     14.8420                 2.1484                 2.3911

                     19                     20                     21
                      A                      A                      A
 Frequencies --    975.9027               998.7495              1016.7985
 Red. masses --      1.7199                 2.2733                 2.0950
 Frc consts  --      0.9651                 1.3361                 1.2761
 IR Inten    --      8.9965                11.5071                 4.4007

                     22                     23                     24
                      A                      A                      A
 Frequencies --   1037.6676              1052.3792              1060.3991
 Red. masses --      1.7122                 1.8923                 2.0333
 Frc consts  --      1.0862                 1.2348                 1.3471
 IR Inten    --     23.3692                21.5138                 8.1471

                     25                     26                     27
                      A                      A                      A
 Frequencies --   1102.5586              1121.0765              1154.3823
 Red. masses --      1.5357                 4.2300                 2.1013
 Frc consts  --      1.0999                 3.1323                 1.6498
 IR Inten    --     10.0467                49.5687                46.8928

                     28                     29                     30
                      A                      A                      A
 Frequencies --   1186.6111              1227.2389              1243.7484
 Red. masses --      1.4223                 1.2892                 1.3572
 Frc consts  --      1.1799                 1.1440                 1.2370
 IR Inten    --      4.7970                28.4602                 1.2272

                     31                     32                     33
                      A                      A                      A
 Frequencies --   1255.8453              1273.5843              1299.5127
 Red. masses --      1.4971                 2.1144                 2.1254
 Frc consts  --      1.3912                 2.0207                 2.1147
 IR Inten    --     24.0633                12.9463                 6.2796

                     34                     35                     36
                      A                      A                      A
 Frequencies --   1318.8907              1341.1607              1417.9881
 Red. masses --      1.5009                 1.5726                 1.4523
 Frc consts  --      1.5382                 1.6666                 1.7205
 IR Inten    --      5.5124                 4.0724                 7.0892

                     37                     38                     39
                      A                      A                      A
 Frequencies --   1425.9014              1428.4290              1479.1907
 Red. masses --      1.9761                 1.7385                 1.1624
 Frc consts  --      2.3672                 2.0900                 1.4985
 IR Inten    --      7.8701                 8.6728                 2.8222

                     40                     41                     42
                      A                      A                      A
 Frequencies --   1490.8664              1501.8202              3010.1572
 Red. masses --      1.0525                 1.0661                 1.0846
 Frc consts  --      1.3783                 1.4167                 5.7902
 IR Inten    --      4.0548                 4.6762                56.0561

                     43                     44                     45
                      A                      A                      A
 Frequencies --   3023.5228              3061.4825              3084.1030
 Red. masses --      1.0355                 1.0602                 1.1010
 Frc consts  --      5.5771                 5.8546                 6.1702
 IR Inten    --     40.5688                26.5501                23.1244

                     46                     47                     48
                      A                      A                      A
 Frequencies --   3093.1542              3123.9539              3137.1623
 Red. masses --      1.1004                 1.1042                 1.0909
 Frc consts  --      6.2030                 6.3492                 6.3257
 IR Inten    --     21.5566                12.5915                35.5350

                     49                     50                     51
                      A                      A                      A
 Frequencies --   3205.7070              3218.3666              3814.1573
 Red. masses --      1.0913                 1.0961                 1.0662
 Frc consts  --      6.6075                 6.6892                 9.1386
 IR Inten    --      5.3190                12.0019                19.7357

 - Thermochemistry -
 -------------------
 Temperature   298.150 Kelvin.  Pressure   1.00000 Atm.
 Atom     1 has atomic number  6 and mass  12.00000

 Molecular mass:   126.06808 amu.
 Principal axes and moments of inertia in atomic units:
                           1         2         3
     Eigenvalues --   703.363561020.703971230.63164
           X            0.99828  -0.05827  -0.00607
           Y            0.05825   0.99829  -0.00432
           Z            0.00631   0.00396   0.99997
 This molecule is an asymmetric top.
 Rotational symmetry number  1.
 Warning -- assumption of classical behavior for rotation
           may cause significant error
 Rotational temperatures (Kelvin)      0.12314     0.08486     0.07038
 Rotational constants (GHZ):           2.56587     1.76813     1.46652
 Zero-point vibrational energy     422458.9 (Joules/Mol)
                                  100.97009 (Kcal/Mol)
 Warning -- explicit consideration of  10 degrees of freedom as
           vibrations may cause significant error
 Vibrational temperatures:    238.27   302.61   372.99   418.04   427.73
          (Kelvin)            491.70   654.20   739.36   826.96   863.75
                              954.00  1078.95  1168.11  1248.67  1265.04
                             1286.32  1321.67  1372.71  1404.10  1436.98
                             1462.94  1492.97  1514.14  1525.68  1586.33
                             1612.98  1660.90  1707.27  1765.72  1789.47
                             1806.88  1832.40  1869.71  1897.59  1929.63
                             2040.17  2051.55  2055.19  2128.22  2145.02
                             2160.78  4330.94  4350.17  4404.79  4437.33
                             4450.35  4494.67  4513.67  4612.29  4630.51
                             5487.71

 Zero-point correction=                           0.160906 (Hartree/Particle)
 Thermal correction to Energy=                    0.168384
 Thermal correction to Enthalpy=                  0.169328
 Thermal correction to Gibbs Free Energy=         0.129489
 Sum of electronic and zero-point Energies=           -423.023589
 Sum of electronic and thermal Energies=              -423.016111
 Sum of electronic and thermal Enthalpies=            -423.015167
 Sum of electronic and thermal Free Energies=         -423.055006

                     E (Thermal)             CV                S
                      KCal/Mol        Cal/Mol-Kelvin    Cal/Mol-Kelvin
 Total                  105.663             30.575             83.849
 Electronic               0.000              0.000              0.000
 Translational            0.889              2.981             40.409
 Rotational               0.889              2.981             28.271
 Vibrational            103.885             24.614             15.170
 Vibration     1          0.624              1.885              2.485
 Vibration     2          0.642              1.825              2.041
 Vibration     3          0.668              1.747              1.667
 Vibration     4          0.687              1.691              1.471
 Vibration     5          0.691              1.679              1.432
 Vibration     6          0.721              1.592              1.204
 Vibration     7          0.813              1.351              0.782
 Vibration     8          0.869              1.219              0.624
 Vibration     9          0.931              1.086              0.495
 Vibration    10          0.958              1.031              0.449

 Optimization completed.
    -- Stationary point found.
 Normal termination of Gaussian 09 at Mon Jan 27 23:05:59 2020.
