 Gaussian 09, Revision D.01,
 Gaussian 09:  ES64L-G09RevD.01 24-Apr-2013

 -----------------------------
 # b3lyp 6-31G(2df,p) opt Freq
 -----------------------------

 -----
 titel
 -----
 Symbolic Z-matrix:
 Charge =  0 Multiplicity = 1

 SCF Done:  E(RB3LYP) =  -423.156303006     A.U. after   15 cycles
 Optimization completed.
    -- Stationary point found.
 Normal termination of Gaussian 09 at Tue Jan 28 14:29:50 2020.

 ----------------------------------------------------------------------
 #N Geom=AllCheck Guess=TCheck SCRF=Check GenChk RB3LYP/6-31G(2df,p) Fr
 eq
 ----------------------------------------------------------------------

 Structure from the checkpoint file:  "/scratch/puck/g09_55c848f3-0675-4b8c-b0e6-7acac61dd7d9/Gau-11972.chk"
 -----
 titel
 -----
 Charge =  0 Multiplicity = 1

                         Standard orientation:
 ---------------------------------------------------------------------
 Center     Atomic      Atomic             Coordinates (Angstroms)
 Number     Number       Type             X           Y           Z
 ---------------------------------------------------------------------
      1          8           0        3.417025    0.881456   -0.065232
      2          6           0        2.617040   -0.266270    0.155962
      3          6           0        1.128296   -0.005548   -0.087308
      4          6           0        0.272773   -1.248573    0.221196
      5          6           0       -1.214177   -1.059324   -0.028951
      6          8           0       -1.822602   -1.708305   -0.841827
      7          6           0       -1.948759    0.002785    0.827929
      8          6           0       -1.949152    1.305893    0.176434
      9          6           0       -1.943362    2.371470   -0.379407
     10          1           0        3.349775    1.114129   -0.996811
     11          1           0        2.953942   -1.117878   -0.457378
     12          1           0        2.780712   -0.542807    1.203937
     13          1           0        0.816650    0.847719    0.522772
     14          1           0        0.976408    0.287419   -1.134348
     15          1           0        0.593827   -2.099159   -0.387093
     16          1           0        0.406900   -1.521536    1.277763
     17          1           0       -2.976579   -0.351612    0.957194
     18          1           0       -1.485403    0.079303    1.818719
     19          1           0       -1.947566    3.316618   -0.863413
 ---------------------------------------------------------------------

 SCF Done:  E(RB3LYP) =  -423.156303006     A.U. after    1 cycles

 The electronic state is 1-A.
 Alpha  occ. eigenvalues --  -19.13918 -19.13879 -10.28177 -10.23385 -10.22150
 Alpha  occ. eigenvalues --  -10.20161 -10.19570 -10.19381 -10.18062  -1.05103
 Alpha  occ. eigenvalues --   -1.02074  -0.81465  -0.78759  -0.72321  -0.69487
 Alpha  occ. eigenvalues --   -0.61767  -0.55588  -0.53121  -0.51030  -0.48902
 Alpha  occ. eigenvalues --   -0.47332  -0.46974  -0.44603  -0.43351  -0.41104
 Alpha  occ. eigenvalues --   -0.40439  -0.38403  -0.36249  -0.35204  -0.32884
 Alpha  occ. eigenvalues --   -0.28926  -0.27659  -0.27153  -0.24349
 Alpha virt. eigenvalues --   -0.02559   0.04717   0.05156   0.07186   0.08322
 Alpha virt. eigenvalues --    0.12057   0.12210   0.12696   0.14282   0.14758
 Alpha virt. eigenvalues --    0.16833   0.17238   0.18857   0.19420   0.21384

 Mulliken charges:
               1
     1  O   -0.416450
     2  C   -0.054639
     3  C   -0.211329
     4  C   -0.296829
     5  C    0.375118
     6  O   -0.286693
     7  C   -0.417261
     8  C    0.312274
     9  C   -0.459119
    10  H    0.282947
    11  H    0.090699
    12  H    0.111856
    13  H    0.126698
    14  H    0.107330
    15  H    0.123234
    16  H    0.116721
    17  H    0.156760
    18  H    0.134779
    19  H    0.203906
 Sum of Mulliken charges =   0.00000

 Dipole moment (field-independent basis, Debye):
    X=              0.7123    Y=              0.4700    Z=              0.6639  Tot=              1.0812
 Quadrupole moment (field-independent basis, Debye-Ang):
   XX=            -61.2950   YY=            -53.5393   ZZ=            -50.7456
   XY=             -5.5485   XZ=             -7.5969   YZ=             -6.7572

  Exact polarizability:  80.317  -0.889  88.191   1.086  -6.437  65.397
 Approx polarizability: 100.445   5.110 136.697   5.458 -12.156 107.589

                      1                      2                      3
                      A                      A                      A
 Frequencies --     27.6086                46.4716                81.0890
 Red. masses --      2.5921                 4.6485                 2.2071
 Frc consts  --      0.0012                 0.0059                 0.0086
 IR Inten    --      2.8036                 1.5150                 5.2935

                      4                      5                      6
                      A                      A                      A
 Frequencies --    106.4929               131.0578               151.7624
 Red. masses --      5.5731                 2.5740                 4.3191
 Frc consts  --      0.0372                 0.0260                 0.0586
 IR Inten    --      2.9297                 1.6358                 0.5879

                      7                      8                      9
                      A                      A                      A
 Frequencies --    264.4186               305.9473               326.9447
 Red. masses --      3.6120                 1.1449                 3.2761
 Frc consts  --      0.1488                 0.0631                 0.2063
 IR Inten    --      1.1212               117.7983                 2.5670

                     10                     11                     12
                      A                      A                      A
 Frequencies --    377.9763               401.0077               437.8161
 Red. masses --      4.2563                 2.9869                 5.0035
 Frc consts  --      0.3583                 0.2830                 0.5651
 IR Inten    --      2.4353                 5.0884                 4.5178

                     13                     14                     15
                      A                      A                      A
 Frequencies --    539.6226               624.7591               636.9032
 Red. masses --      3.3268                 1.2041                 1.2218
 Frc consts  --      0.5708                 0.2769                 0.2920
 IR Inten    --     20.9387                40.9611                49.4859

                     16                     17                     18
                      A                      A                      A
 Frequencies --    666.7340               752.0803               821.5922
 Red. masses --      4.5090                 1.1312                 1.9792
 Frc consts  --      1.1810                 0.3770                 0.7872
 IR Inten    --      9.2590                 2.7741                 1.2908

                     19                     20                     21
                      A                      A                      A
 Frequencies --    869.2536               922.8491               965.4315
 Red. masses --      2.4237                 1.6539                 3.4445
 Frc consts  --      1.0790                 0.8299                 1.8916
 IR Inten    --      4.0403                 8.3884                 0.9733

                     22                     23                     24
                      A                      A                      A
 Frequencies --   1021.6358              1040.2750              1060.2089
 Red. masses --      3.1008                 3.5613                 1.9091
 Frc consts  --      1.9069                 2.2706                 1.2643
 IR Inten    --     15.1825                13.2422                46.0145

                     25                     26                     27
                      A                      A                      A
 Frequencies --   1083.3032              1133.6829              1183.0994
 Red. masses --      3.9540                 1.4531                 1.3370
 Frc consts  --      2.7339                 1.1003                 1.1026
 IR Inten    --     86.2996                 7.9511                26.1225

                     28                     29                     30
                      A                      A                      A
 Frequencies --   1237.3828              1260.8156              1290.9731
 Red. masses --      1.3931                 1.3943                 1.3503
 Frc consts  --      1.2567                 1.3059                 1.3259
 IR Inten    --     32.7213                14.5940                15.9058

                     31                     32                     33
                      A                      A                      A
 Frequencies --   1301.0720              1324.0359              1359.0898
 Red. masses --      1.5313                 1.0842                 1.4312
 Frc consts  --      1.5272                 1.1199                 1.5576
 IR Inten    --     20.1756                 6.7841                 3.6728

                     34                     35                     36
                      A                      A                      A
 Frequencies --   1399.2085              1424.8128              1455.2917
 Red. masses --      1.2794                 1.2776                 1.0893
 Frc consts  --      1.4757                 1.5282                 1.3592
 IR Inten    --     11.6732                47.4410                 6.4545

                     37                     38                     39
                      A                      A                      A
 Frequencies --   1472.3429              1489.0905              1513.8622
 Red. masses --      1.0816                 1.0883                 1.0939
 Frc consts  --      1.3815                 1.4218                 1.4770
 IR Inten    --      2.8837                 5.3915                 1.6446

                     40                     41                     42
                      A                      A                      A
 Frequencies --   1822.4730              2236.8837              2973.5674
 Red. masses --     11.2192                 5.9328                 1.0699
 Frc consts  --     21.9550                17.4903                 5.5735
 IR Inten    --    183.3383                 2.2720                55.0398

                     43                     44                     45
                      A                      A                      A
 Frequencies --   3012.0782              3029.3911              3035.0961
 Red. masses --      1.0648                 1.0665                 1.0588
 Frc consts  --      5.6918                 5.7666                 5.7468
 IR Inten    --      3.4148                13.6098                17.1402

                     46                     47                     48
                      A                      A                      A
 Frequencies --   3061.7716              3083.8525              3086.4386
 Red. masses --      1.0880                 1.0961                 1.1016
 Frc consts  --      6.0094                 6.1417                 6.1831
 IR Inten    --     28.9997                 4.1900                 3.2651

                     49                     50                     51
                      A                      A                      A
 Frequencies --   3103.3835              3506.0176              3815.7392
 Red. masses --      1.0994                 1.1620                 1.0662
 Frc consts  --      6.2386                 8.4157                 9.1460
 IR Inten    --     39.2959                68.1547                17.5108

 - Thermochemistry -
 -------------------
 Temperature   298.150 Kelvin.  Pressure   1.00000 Atm.
 Atom     1 has atomic number  8 and mass  15.99491

 Molecular mass:   126.06808 amu.
 Principal axes and moments of inertia in atomic units:
                           1         2         3
     Eigenvalues --   839.886552038.896282639.44137
           X            0.99969  -0.02258  -0.01040
           Y            0.02224   0.99928  -0.03089
           Z            0.01109   0.03065   0.99947
 This molecule is an asymmetric top.
 Rotational symmetry number  1.
 Warning -- assumption of classical behavior for rotation
           may cause significant error
 Rotational temperatures (Kelvin)      0.10313     0.04248     0.03282
 Rotational constants (GHZ):           2.14879     0.88516     0.68376
 Zero-point vibrational energy     408373.4 (Joules/Mol)
                                   97.60357 (Kcal/Mol)
 Warning -- explicit consideration of  13 degrees of freedom as
           vibrations may cause significant error
 Vibrational temperatures:     39.72    66.86   116.67   153.22   188.56
          (Kelvin)            218.35   380.44   440.19   470.40   543.82
                              576.96   629.92   776.40   898.89   916.36
                              959.28  1082.07  1182.09  1250.66  1327.77
                             1389.04  1469.90  1496.72  1525.40  1558.63
                             1631.11  1702.21  1780.32  1814.03  1857.42
                             1871.95  1904.99  1955.42  2013.15  2049.99
                             2093.84  2118.37  2142.47  2178.11  2622.13
                             3218.37  4278.29  4333.70  4358.61  4366.82
                             4405.20  4436.97  4440.69  4465.07  5044.37
                             5489.99

 Zero-point correction=                           0.155541 (Hartree/Particle)
 Thermal correction to Energy=                    0.166286
 Thermal correction to Enthalpy=                  0.167231
 Thermal correction to Gibbs Free Energy=         0.117639
 Sum of electronic and zero-point Energies=           -423.000762
 Sum of electronic and thermal Energies=              -422.990017
 Sum of electronic and thermal Enthalpies=            -422.989072
 Sum of electronic and thermal Free Energies=         -423.038664

                     E (Thermal)             CV                S
                      KCal/Mol        Cal/Mol-Kelvin    Cal/Mol-Kelvin
 Total                  104.346             37.047            104.374
 Electronic               0.000              0.000              0.000
 Translational            0.889              2.981             40.409
 Rotational               0.889              2.981             29.892
 Vibrational            102.569             31.085             34.073
 Vibration     1          0.593              1.984              5.994
 Vibration     2          0.595              1.979              4.962
 Vibration     3          0.600              1.962              3.864
 Vibration     4          0.605              1.944              3.332
 Vibration     5          0.612              1.922              2.930
 Vibration     6          0.619              1.901              2.650
 Vibration     7          0.671              1.738              1.632
 Vibration     8          0.696              1.662              1.384
 Vibration     9          0.711              1.622              1.275
 Vibration    10          0.748              1.517              1.047
 Vibration    11          0.767              1.468              0.959
 Vibration    12          0.798              1.388              0.834
 Vibration    13          0.895              1.162              0.566

 Optimization completed.
    -- Stationary point found.
 Normal termination of Gaussian 09 at Tue Jan 28 15:04:09 2020.
