 Gaussian 09, Revision D.01,
 Gaussian 09:  ES64L-G09RevD.01 24-Apr-2013

 -----------------------------
 # b3lyp 6-31G(2df,p) opt Freq
 -----------------------------

 -----
 titel
 -----
 Symbolic Z-matrix:
 Charge =  0 Multiplicity = 1

 SCF Done:  E(RB3LYP) =  -423.216704530     A.U. after   14 cycles
 Optimization completed.
    -- Stationary point found.
 Normal termination of Gaussian 09 at Tue Jan 28 14:11:40 2020.

 ----------------------------------------------------------------------
 #N Geom=AllCheck Guess=TCheck SCRF=Check GenChk RB3LYP/6-31G(2df,p) Fr
 eq
 ----------------------------------------------------------------------

 Structure from the checkpoint file:  "/scratch/puck/g09_17769b10-8a20-42c4-b75c-5dfadfdb8bb4/Gau-147457.chk"
 -----
 titel
 -----
 Charge =  0 Multiplicity = 1

                         Standard orientation:
 ---------------------------------------------------------------------
 Center     Atomic      Atomic             Coordinates (Angstroms)
 Number     Number       Type             X           Y           Z
 ---------------------------------------------------------------------
      1          8           0        3.650902   -0.409059   -0.472608
      2          6           0        2.459697   -0.441504    0.293252
      3          6           0        1.386782    0.512535   -0.238241
      4          6           0        0.065008    0.437570    0.547995
      5          6           0       -0.733497   -0.872049    0.357100
      6          6           0       -2.140128   -0.444988   -0.099326
      7          8           0       -3.074285   -1.183350   -0.304290
      8          6           0       -2.114682    1.030892   -0.233717
      9          6           0       -0.917606    1.507188    0.123257
     10          1           0        4.021580    0.476879   -0.407359
     11          1           0        2.106627   -1.476904    0.242175
     12          1           0        2.656729   -0.222260    1.356031
     13          1           0        1.775020    1.540422   -0.192600
     14          1           0        1.204753    0.292566   -1.297065
     15          1           0        0.302926    0.587230    1.611701
     16          1           0       -0.296814   -1.513314   -0.415963
     17          1           0       -0.809647   -1.478059    1.263799
     18          1           0       -2.973231    1.599245   -0.567581
     19          1           0       -0.634329    2.555605    0.120123
 ---------------------------------------------------------------------

 SCF Done:  E(RB3LYP) =  -423.216704530     A.U. after    1 cycles

 The electronic state is 1-A.
 Alpha  occ. eigenvalues --  -19.14109 -19.11952 -10.26224 -10.23506 -10.21512
 Alpha  occ. eigenvalues --  -10.21163 -10.19586 -10.19392 -10.19175  -1.03009
 Alpha  occ. eigenvalues --   -1.02257  -0.86139  -0.77531  -0.72147  -0.68105
 Alpha  occ. eigenvalues --   -0.61915  -0.57106  -0.53726  -0.51429  -0.48946
 Alpha  occ. eigenvalues --   -0.47340  -0.44824  -0.42079  -0.41886  -0.40510
 Alpha  occ. eigenvalues --   -0.39949  -0.38029  -0.36611  -0.35609  -0.35252
 Alpha  occ. eigenvalues --   -0.32744  -0.28289  -0.26753  -0.23878
 Alpha virt. eigenvalues --   -0.04595   0.05496   0.06849   0.08480   0.11143
 Alpha virt. eigenvalues --    0.12061   0.13102   0.13954   0.15164   0.15862
 Alpha virt. eigenvalues --    0.17237   0.18532   0.19268   0.20377   0.24219

 Mulliken charges:
               1
     1  O   -0.414994
     2  C   -0.059013
     3  C   -0.219741
     4  C   -0.044394
     5  C   -0.347718
     6  C    0.379464
     7  O   -0.327379
     8  C   -0.192175
     9  C   -0.052947
    10  H    0.281645
    11  H    0.119664
    12  H    0.086801
    13  H    0.085627
    14  H    0.114572
    15  H    0.091598
    16  H    0.135527
    17  H    0.132448
    18  H    0.117387
    19  H    0.113628
 Sum of Mulliken charges =   0.00000

 Dipole moment (field-independent basis, Debye):
    X=              2.3111    Y=              3.2548    Z=              1.2792  Tot=              4.1918
 Quadrupole moment (field-independent basis, Debye-Ang):
   XX=            -65.8053   YY=            -52.1325   ZZ=            -53.1543
   XY=             -0.7325   XZ=              1.1345   YZ=             -1.5775

  Exact polarizability: 101.307   6.876  78.666   5.865  -0.668  57.286
 Approx polarizability: 143.100  22.849 123.841  11.711   4.007  91.143

                      1                      2                      3
                      A                      A                      A
 Frequencies --     51.3931                95.2910               110.5626
 Red. masses --      3.6507                 3.3551                 2.0440
 Frc consts  --      0.0057                 0.0179                 0.0147
 IR Inten    --      1.7878                 1.0401                 3.9778

                      4                      5                      6
                      A                      A                      A
 Frequencies --    143.7194               258.5682               298.7340
 Red. masses --      4.0585                 3.6742                 1.3716
 Frc consts  --      0.0494                 0.1447                 0.0721
 IR Inten    --      1.1446                 3.0745                71.3403

                      7                      8                      9
                      A                      A                      A
 Frequencies --    339.8407               369.3793               453.3137
 Red. masses --      2.0409                 3.9561                 2.0291
 Frc consts  --      0.1389                 0.3180                 0.2457
 IR Inten    --     45.8267                 2.4765                 5.7756

                     10                     11                     12
                      A                      A                      A
 Frequencies --    480.7617               589.4814               642.6948
 Red. masses --      3.8802                 3.3700                 3.6950
 Frc consts  --      0.5284                 0.6900                 0.8992
 IR Inten    --      6.2885                 5.1488                 1.6855

                     13                     14                     15
                      A                      A                      A
 Frequencies --    749.6345               790.7892               809.0507
 Red. masses --      4.1190                 1.2836                 1.3404
 Frc consts  --      1.3638                 0.4729                 0.5169
 IR Inten    --      3.7324                 1.1632                20.9846

                     16                     17                     18
                      A                      A                      A
 Frequencies --    830.9944               870.9489               935.2912
 Red. masses --      3.6395                 2.5062                 1.9123
 Frc consts  --      1.4808                 1.1201                 0.9856
 IR Inten    --      8.5630                 0.8607                14.2897

                     19                     20                     21
                      A                      A                      A
 Frequencies --    983.5233              1003.9824              1049.9015
 Red. masses --      2.4040                 1.4100                 2.1899
 Frc consts  --      1.3701                 0.8374                 1.4222
 IR Inten    --      7.3549                 4.5005                 9.9276

                     22                     23                     24
                      A                      A                      A
 Frequencies --   1067.5879              1073.7633              1088.4022
 Red. masses --      1.7617                 2.4966                 2.7492
 Frc consts  --      1.1830                 1.6960                 1.9189
 IR Inten    --     12.3053                72.3787                58.5094

                     25                     26                     27
                      A                      A                      A
 Frequencies --   1124.8657              1149.6635              1178.4727
 Red. masses --      1.3151                 1.2446                 3.0158
 Frc consts  --      0.9804                 0.9692                 2.4677
 IR Inten    --      5.8855                 7.9405                43.4444

                     28                     29                     30
                      A                      A                      A
 Frequencies --   1220.2419              1242.0487              1270.3355
 Red. masses --      1.3682                 1.3450                 1.4735
 Frc consts  --      1.2003                 1.2225                 1.4010
 IR Inten    --      6.4999                 0.2901                 4.1907

                     31                     32                     33
                      A                      A                      A
 Frequencies --   1305.3970              1338.8315              1346.4254
 Red. masses --      1.3366                 1.3439                 1.4039
 Frc consts  --      1.3419                 1.4193                 1.4995
 IR Inten    --     11.9341                 1.1973                 2.3711

                     34                     35                     36
                      A                      A                      A
 Frequencies --   1368.5414              1397.6906              1423.9064
 Red. masses --      1.7307                 1.2934                 1.2764
 Frc consts  --      1.9098                 1.4887                 1.5247
 IR Inten    --      9.4160                 8.2220                41.6819

                     37                     38                     39
                      A                      A                      A
 Frequencies --   1451.6099              1487.3701              1513.1079
 Red. masses --      1.0875                 1.0834                 1.0925
 Frc consts  --      1.3502                 1.4121                 1.4737
 IR Inten    --      8.2441                 1.2225                 0.3755

                     40                     41                     42
                      A                      A                      A
 Frequencies --   1650.9694              1817.4374              2965.9515
 Red. masses --      6.5862                12.4462                 1.0716
 Frc consts  --     10.5770                24.2218                 5.5538
 IR Inten    --     26.7919               306.4555                51.8530

                     43                     44                     45
                      A                      A                      A
 Frequencies --   2992.3484              3004.6217              3059.1651
 Red. masses --      1.0818                 1.0646                 1.0709
 Frc consts  --      5.7073                 5.6624                 5.9047
 IR Inten    --     19.4944                30.0589                 6.2888

                     46                     47                     48
                      A                      A                      A
 Frequencies --   3059.6457              3078.6389              3105.1273
 Red. masses --      1.0823                 1.0962                 1.1008
 Frc consts  --      5.9695                 6.1215                 6.2536
 IR Inten    --     10.8895                45.7060                 7.6221

                     49                     50                     51
                      A                      A                      A
 Frequencies --   3178.0955              3226.7685              3814.6510
 Red. masses --      1.0896                 1.1011                 1.0661
 Frc consts  --      6.4838                 6.7545                 9.1405
 IR Inten    --      8.9364                 5.0221                18.8698

 - Thermochemistry -
 -------------------
 Temperature   298.150 Kelvin.  Pressure   1.00000 Atm.
 Atom     1 has atomic number  8 and mass  15.99491

 Molecular mass:   126.06808 amu.
 Principal axes and moments of inertia in atomic units:
                           1         2         3
     Eigenvalues --   445.205762317.186402610.17281
           X            0.99998  -0.00577   0.00320
           Y            0.00586   0.99956  -0.02900
           Z           -0.00303   0.02902   0.99957
 This molecule is an asymmetric top.
 Rotational symmetry number  1.
 Warning -- assumption of classical behavior for rotation
           may cause significant error
 Rotational temperatures (Kelvin)      0.19455     0.03738     0.03318
 Rotational constants (GHZ):           4.05372     0.77885     0.69143
 Zero-point vibrational energy     417852.8 (Joules/Mol)
                                   99.86922 (Kcal/Mol)
 Warning -- explicit consideration of  11 degrees of freedom as
           vibrations may cause significant error
 Vibrational temperatures:     73.94   137.10   159.07   206.78   372.02
          (Kelvin)            429.81   488.95   531.45   652.22   691.71
                              848.13   924.69  1078.56  1137.77  1164.04
                             1195.61  1253.10  1345.67  1415.07  1444.50
                             1510.57  1536.02  1544.90  1565.97  1618.43
                             1654.11  1695.56  1755.65  1787.03  1827.73
                             1878.17  1926.28  1937.20  1969.02  2010.96
                             2048.68  2088.54  2139.99  2177.02  2375.37
                             2614.88  4267.34  4305.32  4322.98  4401.45
                             4402.14  4429.47  4467.58  4572.56  4642.59
                             5488.43

 Zero-point correction=                           0.159152 (Hartree/Particle)
 Thermal correction to Energy=                    0.168134
 Thermal correction to Enthalpy=                  0.169078
 Thermal correction to Gibbs Free Energy=         0.124473
 Sum of electronic and zero-point Energies=           -423.057553
 Sum of electronic and thermal Energies=              -423.048571
 Sum of electronic and thermal Enthalpies=            -423.047626
 Sum of electronic and thermal Free Energies=         -423.092231

                     E (Thermal)             CV                S
                      KCal/Mol        Cal/Mol-Kelvin    Cal/Mol-Kelvin
 Total                  105.506             32.856             93.879
 Electronic               0.000              0.000              0.000
 Translational            0.889              2.981             40.409
 Rotational               0.889              2.981             29.378
 Vibrational            103.728             26.894             24.093
 Vibration     1          0.596              1.977              4.763
 Vibration     2          0.603              1.953              3.548
 Vibration     3          0.606              1.941              3.259
 Vibration     4          0.616              1.909              2.754
 Vibration     5          0.667              1.748              1.671
 Vibration     6          0.692              1.676              1.424
 Vibration     7          0.720              1.596              1.213
 Vibration     8          0.742              1.535              1.082
 Vibration     9          0.812              1.354              0.786
 Vibration    10          0.837              1.293              0.708
 Vibration    11          0.947              1.054              0.468

 Optimization completed.
    -- Stationary point found.
 Normal termination of Gaussian 09 at Tue Jan 28 14:49:29 2020.
