 Gaussian 09, Revision D.01,
 Gaussian 09:  ES64L-G09RevD.01 24-Apr-2013

 -----------------------------
 # b3lyp 6-31G(2df,p) opt Freq
 -----------------------------

 -----
 titel
 -----
 Symbolic Z-matrix:
 Charge =  0 Multiplicity = 1

 SCF Done:  E(RB3LYP) =  -423.125775387     A.U. after   14 cycles
 Optimization completed.
    -- Stationary point found.
 Normal termination of Gaussian 09 at Tue Jan 28 11:53:08 2020.

 ----------------------------------------------------------------------
 #N Geom=AllCheck Guess=TCheck SCRF=Check GenChk RB3LYP/6-31G(2df,p) Fr
 eq
 ----------------------------------------------------------------------

 Structure from the checkpoint file:  "/scratch/puck/g09_ca989de6-1bc6-45ec-8bbe-be079e2ec235/Gau-112571.chk"
 -----
 titel
 -----
 Charge =  0 Multiplicity = 1

                         Standard orientation:
 ---------------------------------------------------------------------
 Center     Atomic      Atomic             Coordinates (Angstroms)
 Number     Number       Type             X           Y           Z
 ---------------------------------------------------------------------
      1          6           0        1.730523   -1.150784   -1.065863
      2          6           0        0.881286   -0.314503   -0.098783
      3          6           0        0.403001   -1.113885    1.150613
      4          8           0       -0.929560   -1.243060    0.618678
      5          6           0       -0.640146   -0.322532   -0.464951
      6          6           0       -1.451090    0.950385   -0.287836
      7          8           0       -2.829558    0.633460   -0.261093
      8          6           0        1.495259    0.976364    0.162423
      9          6           0        2.026086    2.034021    0.377143
     10          1           0        1.260162   -2.124050   -1.235833
     11          1           0        1.833361   -0.641264   -2.028305
     12          1           0        2.732611   -1.313229   -0.658615
     13          1           0        0.883530   -2.087473    1.298069
     14          1           0        0.424440   -0.546891    2.087797
     15          1           0       -0.870346   -0.782560   -1.433541
     16          1           0       -1.133911    1.471848    0.627621
     17          1           0       -1.286488    1.629142   -1.131201
     18          1           0       -2.926952   -0.054820    0.408973
     19          1           0        2.487028    2.971695    0.567885
 ---------------------------------------------------------------------

 SCF Done:  E(RB3LYP) =  -423.125775387     A.U. after    1 cycles

 The electronic state is 1-A.
 Alpha  occ. eigenvalues --  -19.14624 -19.12999 -10.24234 -10.24091 -10.23055
 Alpha  occ. eigenvalues --  -10.22403 -10.19275 -10.18912 -10.18212  -1.05372
 Alpha  occ. eigenvalues --   -1.00999  -0.81955  -0.73702  -0.73492  -0.68602
 Alpha  occ. eigenvalues --   -0.63951  -0.58660  -0.53077  -0.51717  -0.50190
 Alpha  occ. eigenvalues --   -0.47882  -0.46756  -0.42748  -0.41615  -0.40614
 Alpha  occ. eigenvalues --   -0.39712  -0.38775  -0.36224  -0.32890  -0.32282
 Alpha  occ. eigenvalues --   -0.28306  -0.27050  -0.26967  -0.25022
 Alpha virt. eigenvalues --    0.03608   0.04370   0.06754   0.08968   0.11572
 Alpha virt. eigenvalues --    0.12083   0.13205   0.13978   0.14349   0.15356
 Alpha virt. eigenvalues --    0.16316   0.17128   0.18170   0.19707   0.20637

 Mulliken charges:
               1
     1  C   -0.454406
     2  C    0.057915
     3  C   -0.107311
     4  O   -0.301825
     5  C    0.084905
     6  C   -0.084467
     7  O   -0.422098
     8  C    0.285448
     9  C   -0.456890
    10  H    0.128767
    11  H    0.132060
    12  H    0.129935
    13  H    0.110426
    14  H    0.111988
    15  H    0.086912
    16  H    0.094648
    17  H    0.113179
    18  H    0.291915
    19  H    0.198898
 Sum of Mulliken charges =   0.00000

 Dipole moment (field-independent basis, Debye):
    X=              2.3678    Y=             -0.2951    Z=              0.2938  Tot=              2.4041
 Quadrupole moment (field-independent basis, Debye-Ang):
   XX=            -58.3969   YY=            -51.0325   ZZ=            -51.6958
   XY=              2.0255   XZ=             -1.3376   YZ=              1.0274

  Exact polarizability:  80.322   7.593  85.184   2.101   1.847  65.727
 Approx polarizability: 110.384  19.501 130.998   5.321   3.158  97.137

                      1                      2                      3
                      A                      A                      A
 Frequencies --     68.5602               110.4862               117.6301
 Red. masses --      3.7766                 2.9790                 4.6554
 Frc consts  --      0.0105                 0.0214                 0.0380
 IR Inten    --      0.2946                 5.2628                 0.3607

                      4                      5                      6
                      A                      A                      A
 Frequencies --    179.8279               214.5261               256.7229
 Red. masses --      2.9908                 3.4162                 1.3206
 Frc consts  --      0.0570                 0.0926                 0.0513
 IR Inten    --      1.2712                 0.4031                 0.2676

                      7                      8                      9
                      A                      A                      A
 Frequencies --    291.8446               322.4005               383.8318
 Red. masses --      1.9344                 2.6968                 3.2937
 Frc consts  --      0.0971                 0.1652                 0.2859
 IR Inten    --      1.1123                 2.0535                 2.8742

                     10                     11                     12
                      A                      A                      A
 Frequencies --    465.1231               496.1594               523.5735
 Red. masses --      1.1429                 3.3118                 5.6253
 Frc consts  --      0.1457                 0.4803                 0.9086
 IR Inten    --    106.2125                 4.5740                 3.0011

                     13                     14                     15
                      A                      A                      A
 Frequencies --    589.1098               613.3841               630.7236
 Red. masses --      4.6794                 4.0338                 1.2214
 Frc consts  --      0.9568                 0.8942                 0.2863
 IR Inten    --      6.4770                 0.2002                44.1829

                     16                     17                     18
                      A                      A                      A
 Frequencies --    644.3515               830.5181               881.7871
 Red. masses --      1.2238                 2.5517                 3.1927
 Frc consts  --      0.2994                 1.0370                 1.4626
 IR Inten    --     42.8060                 7.8683                22.8255

                     19                     20                     21
                      A                      A                      A
 Frequencies --    925.5793               932.4436               966.4387
 Red. masses --      1.8421                 1.8986                 1.7383
 Frc consts  --      0.9298                 0.9726                 0.9566
 IR Inten    --      6.7953                 0.7946                 5.9211

                     22                     23                     24
                      A                      A                      A
 Frequencies --   1026.1914              1049.0941              1073.6484
 Red. masses --      5.8141                 2.1691                 4.8349
 Frc consts  --      3.6073                 1.4066                 3.2837
 IR Inten    --     88.4818                58.1567                54.9619

                     25                     26                     27
                      A                      A                      A
 Frequencies --   1102.2066              1152.9556              1156.1925
 Red. masses --      2.9909                 2.0536                 1.6054
 Frc consts  --      2.1408                 1.6084                 1.2644
 IR Inten    --     22.8271                 2.0268                 0.7499

                     28                     29                     30
                      A                      A                      A
 Frequencies --   1183.5587              1213.4401              1246.2334
 Red. masses --      1.7531                 1.2492                 2.1644
 Frc consts  --      1.4469                 1.0838                 1.9805
 IR Inten    --      2.0416                 8.5887                 5.7452

                     31                     32                     33
                      A                      A                      A
 Frequencies --   1289.3424              1330.2378              1356.0422
 Red. masses --      1.8737                 1.3185                 1.4048
 Frc consts  --      1.8352                 1.3746                 1.5220
 IR Inten    --     15.3592                 1.2261                 8.2365

                     34                     35                     36
                      A                      A                      A
 Frequencies --   1394.8327              1410.0477              1432.2070
 Red. masses --      1.2084                 1.2155                 1.3328
 Frc consts  --      1.3851                 1.4239                 1.6108
 IR Inten    --     22.0318                 4.9899                54.3271

                     37                     38                     39
                      A                      A                      A
 Frequencies --   1490.8164              1495.2321              1496.6509
 Red. masses --      1.0489                 1.0589                 1.0873
 Frc consts  --      1.3735                 1.3949                 1.4349
 IR Inten    --      3.5767                 1.8844                 2.9680

                     40                     41                     42
                      A                      A                      A
 Frequencies --   1522.4942              2231.6396              2994.9915
 Red. masses --      1.0956                 5.9617                 1.0679
 Frc consts  --      1.4962                17.4930                 5.6438
 IR Inten    --      0.4209                 1.4626                27.0533

                     43                     44                     45
                      A                      A                      A
 Frequencies --   3025.6636              3035.6662              3040.1639
 Red. masses --      1.0550                 1.0647                 1.0525
 Frc consts  --      5.6905                 5.7806                 5.7316
 IR Inten    --     69.5281                10.8916                31.7426

                     46                     47                     48
                      A                      A                      A
 Frequencies --   3078.1022              3081.3351              3115.9743
 Red. masses --      1.1111                 1.0972                 1.1028
 Frc consts  --      6.2023                 6.1376                 6.3087
 IR Inten    --     30.2403                31.8876                18.9367

                     49                     50                     51
                      A                      A                      A
 Frequencies --   3117.5345              3500.0704              3779.2364
 Red. masses --      1.1024                 1.1613                 1.0654
 Frc consts  --      6.3129                 8.3821                 8.9654
 IR Inten    --     16.7359                72.2614                27.3978

 - Thermochemistry -
 -------------------
 Temperature   298.150 Kelvin.  Pressure   1.00000 Atm.
 Atom     1 has atomic number  6 and mass  12.00000

 Molecular mass:   126.06808 amu.
 Principal axes and moments of inertia in atomic units:
                           1         2         3
     Eigenvalues --   788.328221379.620801747.99387
           X            0.99949  -0.03004  -0.01114
           Y            0.03034   0.99916   0.02763
           Z            0.01030  -0.02796   0.99956
 This molecule is an asymmetric top.
 Rotational symmetry number  1.
 Warning -- assumption of classical behavior for rotation
           may cause significant error
 Rotational temperatures (Kelvin)      0.10987     0.06278     0.04955
 Rotational constants (GHZ):           2.28933     1.30814     1.03246
 Zero-point vibrational energy     411915.1 (Joules/Mol)
                                   98.45007 (Kcal/Mol)
 Warning -- explicit consideration of  14 degrees of freedom as
           vibrations may cause significant error
 Vibrational temperatures:     98.64   158.96   169.24   258.73   308.65
          (Kelvin)            369.37   419.90   463.86   552.25   669.21
                              713.86   753.30   847.60   882.52   907.47
                              927.08  1194.93  1268.69  1331.70  1341.58
                             1390.49  1476.46  1509.41  1544.74  1585.83
                             1658.84  1663.50  1702.87  1745.87  1793.05
                             1855.07  1913.91  1951.04  2006.85  2028.74
                             2060.62  2144.95  2151.30  2153.34  2190.53
                             3210.83  4309.12  4353.25  4367.64  4374.11
                             4428.70  4433.35  4483.19  4485.43  5035.81
                             5437.47

 Zero-point correction=                           0.156890 (Hartree/Particle)
 Thermal correction to Energy=                    0.166520
 Thermal correction to Enthalpy=                  0.167464
 Thermal correction to Gibbs Free Energy=         0.122371
 Sum of electronic and zero-point Energies=           -422.968885
 Sum of electronic and thermal Energies=              -422.959255
 Sum of electronic and thermal Enthalpies=            -422.958311
 Sum of electronic and thermal Free Energies=         -423.003404

                     E (Thermal)             CV                S
                      KCal/Mol        Cal/Mol-Kelvin    Cal/Mol-Kelvin
 Total                  104.493             35.621             94.906
 Electronic               0.000              0.000              0.000
 Translational            0.889              2.981             40.409
 Rotational               0.889              2.981             29.032
 Vibrational            102.715             29.660             25.466
 Vibration     1          0.598              1.969              4.194
 Vibration     2          0.606              1.941              3.260
 Vibration     3          0.608              1.935              3.139
 Vibration     4          0.629              1.867              2.330
 Vibration     5          0.644              1.819              2.005
 Vibration     6          0.666              1.751              1.684
 Vibration     7          0.687              1.689              1.463
 Vibration     8          0.707              1.631              1.298
 Vibration     9          0.753              1.505              1.024
 Vibration    10          0.823              1.327              0.751
 Vibration    11          0.852              1.259              0.668
 Vibration    12          0.879              1.198              0.602
 Vibration    13          0.946              1.055              0.469
 Vibration    14          0.973              1.004              0.427

 Optimization completed.
    -- Stationary point found.
 Normal termination of Gaussian 09 at Tue Jan 28 12:33:42 2020.
