 Gaussian 09, Revision D.01,
 Gaussian 09:  ES64L-G09RevD.01 24-Apr-2013

 -----------------------------
 # b3lyp 6-31G(2df,p) opt Freq
 -----------------------------

 -----
 titel
 -----
 Symbolic Z-matrix:
 Charge =  0 Multiplicity = 1

 SCF Done:  E(RB3LYP) =  -423.172999150     A.U. after   14 cycles
 Optimization completed.
    -- Stationary point found.
 Normal termination of Gaussian 09 at Tue Jan 28 09:16:38 2020.

 ----------------------------------------------------------------------
 #N Geom=AllCheck Guess=TCheck SCRF=Check GenChk RB3LYP/6-31G(2df,p) Fr
 eq
 ----------------------------------------------------------------------

 Structure from the checkpoint file:  "/scratch/puck/g09_8f4f733d-3267-485c-992c-c4177955aef3/Gau-82391.chk"
 -----
 titel
 -----
 Charge =  0 Multiplicity = 1

                         Standard orientation:
 ---------------------------------------------------------------------
 Center     Atomic      Atomic             Coordinates (Angstroms)
 Number     Number       Type             X           Y           Z
 ---------------------------------------------------------------------
      1          8           0        2.505570   -0.063558   -0.240980
      2          6           0        1.485677   -1.055283   -0.403423
      3          6           0        0.151659   -0.626347    0.169910
      4          6           0        0.069081    0.227119    1.441413
      5          6           0       -0.344051    0.810041    0.110258
      6          8           0        0.377654    1.850384   -0.468142
      7          6           0       -1.825614    0.780081   -0.252288
      8          6           0       -2.147374   -0.698706   -0.286815
      9          6           0       -1.066710   -1.456595   -0.080772
     10          1           0        2.795508   -0.084489    0.676402
     11          1           0        1.392699   -1.201511   -1.485135
     12          1           0        1.811603   -2.013458    0.027989
     13          1           0       -0.671697   -0.036199    2.190370
     14          1           0        0.998122    0.622967    1.843308
     15          1           0        1.302949    1.566937   -0.501930
     16          1           0       -2.445994    1.327987    0.467241
     17          1           0       -1.978594    1.256155   -1.229295
     18          1           0       -3.152750   -1.073095   -0.443290
     19          1           0       -1.053646   -2.541767   -0.062380
 ---------------------------------------------------------------------

 SCF Done:  E(RB3LYP) =  -423.172999150     A.U. after    1 cycles

 The electronic state is 1-A.
 Alpha  occ. eigenvalues --  -19.16008 -19.12569 -10.24053 -10.23299 -10.19249
 Alpha  occ. eigenvalues --  -10.18251 -10.18168 -10.18135 -10.18130  -1.03889
 Alpha  occ. eigenvalues --   -1.01369  -0.87534  -0.76590  -0.72285  -0.68233
 Alpha  occ. eigenvalues --   -0.59996  -0.55568  -0.55090  -0.52641  -0.49457
 Alpha  occ. eigenvalues --   -0.46368  -0.44672  -0.43802  -0.41601  -0.39848
 Alpha  occ. eigenvalues --   -0.37640  -0.36789  -0.35881  -0.34566  -0.33919
 Alpha  occ. eigenvalues --   -0.30363  -0.28211  -0.23579  -0.22269
 Alpha virt. eigenvalues --    0.01558   0.05594   0.10622   0.12013   0.12249
 Alpha virt. eigenvalues --    0.14066   0.14565   0.15927   0.16218   0.16506
 Alpha virt. eigenvalues --    0.18117   0.19320   0.20507   0.21708   0.23286

 Mulliken charges:
               1
     1  O   -0.414319
     2  C   -0.192012
     3  C    0.204066
     4  C   -0.397123
     5  C    0.408551
     6  O   -0.489213
     7  C   -0.320453
     8  C   -0.080226
     9  C   -0.148558
    10  H    0.294133
    11  H    0.125846
    12  H    0.102353
    13  H    0.109531
    14  H    0.089619
    15  H    0.288098
    16  H    0.112398
    17  H    0.119967
    18  H    0.096044
    19  H    0.091299
 Sum of Mulliken charges =   0.00000

 Dipole moment (field-independent basis, Debye):
    X=              0.3769    Y=             -1.9924    Z=              1.2728  Tot=              2.3941
 Quadrupole moment (field-independent basis, Debye-Ang):
   XX=            -49.1072   YY=            -55.7202   ZZ=            -52.9957
   XY=             -0.9184   XZ=              3.6159   YZ=              1.2258

  Exact polarizability:  87.693  -3.254  76.510   4.710   0.500  63.713
 Approx polarizability: 125.015  -9.467 117.778   7.763  -2.090  99.328

                      1                      2                      3
                      A                      A                      A
 Frequencies --    108.5224               195.4241               201.5277
 Red. masses --      3.0001                 2.6269                 5.3152
 Frc consts  --      0.0208                 0.0591                 0.1272
 IR Inten    --      1.8966                 2.6496                 2.5035

                      4                      5                      6
                      A                      A                      A
 Frequencies --    240.8764               317.3411               340.5263
 Red. masses --      3.0196                 1.3945                 2.1183
 Frc consts  --      0.1032                 0.0827                 0.1447
 IR Inten    --      0.5657                78.7407                23.9161

                      7                      8                      9
                      A                      A                      A
 Frequencies --    400.4080               433.9815               464.0025
 Red. masses --      3.9720                 2.8128                 1.9579
 Frc consts  --      0.3752                 0.3121                 0.2484
 IR Inten    --     14.6061                 4.3829                 4.0345

                     10                     11                     12
                      A                      A                      A
 Frequencies --    535.3581               555.7012               585.4744
 Red. masses --      2.6846                 1.1519                 3.3949
 Frc consts  --      0.4533                 0.2096                 0.6856
 IR Inten    --     10.1233                87.0564                20.6805

                     13                     14                     15
                      A                      A                      A
 Frequencies --    701.6426               736.8075               750.7643
 Red. masses --      2.8083                 3.1054                 1.6042
 Frc consts  --      0.8146                 0.9933                 0.5327
 IR Inten    --      6.6294                 4.0535                33.4293

                     16                     17                     18
                      A                      A                      A
 Frequencies --    765.6008               887.7374               916.1927
 Red. masses --      4.3727                 2.2607                 1.9287
 Frc consts  --      1.5101                 1.0497                 0.9539
 IR Inten    --      1.3426                17.5527                 5.5790

                     19                     20                     21
                      A                      A                      A
 Frequencies --    946.6039               951.8139               961.9205
 Red. masses --      1.6846                 1.4250                 1.5450
 Frc consts  --      0.8894                 0.7606                 0.8423
 IR Inten    --     13.3893                 1.6257                 6.2190

                     22                     23                     24
                      A                      A                      A
 Frequencies --    999.4565              1013.5322              1040.9040
 Red. masses --      1.8126                 2.3379                 2.0898
 Frc consts  --      1.0668                 1.4150                 1.3340
 IR Inten    --     19.2493                32.1806                31.9455

                     25                     26                     27
                      A                      A                      A
 Frequencies --   1053.0926              1099.4974              1151.0305
 Red. masses --      1.8735                 1.7367                 1.3246
 Frc consts  --      1.2242                 1.2370                 1.0340
 IR Inten    --     10.6630                 2.0890                 0.3297

                     28                     29                     30
                      A                      A                      A
 Frequencies --   1166.0375              1186.7091              1222.5306
 Red. masses --      1.5664                 1.7983                 1.4120
 Frc consts  --      1.2548                 1.4921                 1.2434
 IR Inten    --     37.7802                 7.9331                36.9636

                     31                     32                     33
                      A                      A                      A
 Frequencies --   1242.2012              1309.1389              1353.3111
 Red. masses --      2.0334                 2.2143                 1.8608
 Frc consts  --      1.8487                 2.2359                 2.0079
 IR Inten    --     35.8609                14.2428                60.1192

                     34                     35                     36
                      A                      A                      A
 Frequencies --   1366.7719              1384.9518              1412.8295
 Red. masses --      1.8872                 1.3254                 1.2952
 Frc consts  --      2.0771                 1.4978                 1.5232
 IR Inten    --      3.0523                 1.0312                57.3438

                     37                     38                     39
                      A                      A                      A
 Frequencies --   1448.6484              1469.4965              1482.0024
 Red. masses --      1.4632                 1.3995                 1.2682
 Frc consts  --      1.8092                 1.7806                 1.6411
 IR Inten    --     13.4014                25.7593                15.1856

                     40                     41                     42
                      A                      A                      A
 Frequencies --   1504.2952              1665.9731              2991.3002
 Red. masses --      1.0897                 6.3233                 1.0681
 Frc consts  --      1.4528                10.3403                 5.6310
 IR Inten    --      1.4512                 1.9388                64.6462

                     43                     44                     45
                      A                      A                      A
 Frequencies --   3026.6995              3058.7755              3067.2938
 Red. masses --      1.0595                 1.1020                 1.0952
 Frc consts  --      5.7184                 6.0745                 6.0709
 IR Inten    --     29.2948                14.8963                25.0128

                     46                     47                     48
                      A                      A                      A
 Frequencies --   3108.0905              3174.5128              3197.9801
 Red. masses --      1.0533                 1.0858                 1.1165
 Frc consts  --      5.9948                 6.4467                 6.7278
 IR Inten    --     19.1641                 8.7263                13.8196

                     49                     50                     51
                      A                      A                      A
 Frequencies --   3204.4017              3720.5405              3825.3621
 Red. masses --      1.1019                 1.0654                 1.0662
 Frc consts  --      6.6661                 8.6891                 9.1925
 IR Inten    --     23.1200               120.2680                26.2602

 - Thermochemistry -
 -------------------
 Temperature   298.150 Kelvin.  Pressure   1.00000 Atm.
 Atom     1 has atomic number  8 and mass  15.99491

 Molecular mass:   126.06808 amu.
 Principal axes and moments of inertia in atomic units:
                           1         2         3
     Eigenvalues --   664.682851157.443121488.47089
           X            0.99978  -0.01842   0.00981
           Y            0.01825   0.99969   0.01722
           Z           -0.01013  -0.01704   0.99980
 This molecule is an asymmetric top.
 Rotational symmetry number  1.
 Warning -- assumption of classical behavior for rotation
           may cause significant error
 Rotational temperatures (Kelvin)      0.13031     0.07483     0.05819
 Rotational constants (GHZ):           2.71519     1.55925     1.21248
 Zero-point vibrational energy     418367.6 (Joules/Mol)
                                   99.99225 (Kcal/Mol)
 Warning -- explicit consideration of  12 degrees of freedom as
           vibrations may cause significant error
 Vibrational temperatures:    156.14   281.17   289.95   346.57   456.58
          (Kelvin)            489.94   576.10   624.40   667.60   770.26
                              799.53   842.37  1009.51  1060.10  1080.18
                             1101.53  1277.25  1318.20  1361.95  1369.45
                             1383.99  1437.99  1458.25  1497.63  1515.16
                             1581.93  1656.07  1677.67  1707.41  1758.95
                             1787.25  1883.56  1947.11  1966.48  1992.63
                             2032.74  2084.28  2114.28  2132.27  2164.34
                             2396.96  4303.81  4354.74  4400.89  4413.15
                             4471.84  4567.41  4601.17  4610.41  5353.02
                             5503.84

 Zero-point correction=                           0.159348 (Hartree/Particle)
 Thermal correction to Energy=                    0.167633
 Thermal correction to Enthalpy=                  0.168577
 Thermal correction to Gibbs Free Energy=         0.127026
 Sum of electronic and zero-point Energies=           -423.013651
 Sum of electronic and thermal Energies=              -423.005366
 Sum of electronic and thermal Enthalpies=            -423.004422
 Sum of electronic and thermal Free Energies=         -423.045973

                     E (Thermal)             CV                S
                      KCal/Mol        Cal/Mol-Kelvin    Cal/Mol-Kelvin
 Total                  105.191             33.174             87.452
 Electronic               0.000              0.000              0.000
 Translational            0.889              2.981             40.409
 Rotational               0.889              2.981             28.528
 Vibrational            103.414             27.212             18.515
 Vibration     1          0.606              1.942              3.295
 Vibration     2          0.636              1.846              2.176
 Vibration     3          0.638              1.838              2.119
 Vibration     4          0.658              1.778              1.796
 Vibration     5          0.704              1.640              1.324
 Vibration     6          0.720              1.594              1.210
 Vibration     7          0.766              1.469              0.961
 Vibration     8          0.795              1.396              0.846
 Vibration     9          0.822              1.330              0.755
 Vibration    10          0.890              1.172              0.575
 Vibration    11          0.911              1.127              0.532
 Vibration    12          0.942              1.063              0.475

 Optimization completed.
    -- Stationary point found.
 Normal termination of Gaussian 09 at Tue Jan 28 10:11:03 2020.
