 Gaussian 09, Revision D.01,
 Gaussian 09:  ES64L-G09RevD.01 24-Apr-2013

 -----------------------------
 # b3lyp 6-31G(2df,p) opt Freq
 -----------------------------

 -----
 titel
 -----
 Symbolic Z-matrix:
 Charge =  0 Multiplicity = 1

 SCF Done:  E(RB3LYP) =  -423.182069389     A.U. after   14 cycles
 Optimization completed.
    -- Stationary point found.
 Normal termination of Gaussian 09 at Tue Jan 28 00:03:46 2020.

 ----------------------------------------------------------------------
 #N Geom=AllCheck Guess=TCheck SCRF=Check GenChk RB3LYP/6-31G(2df,p) Fr
 eq
 ----------------------------------------------------------------------

 Structure from the checkpoint file:  "/scratch/puck/g09_f1f1bfea-4151-4bb5-817c-71249bca3af5/Gau-188095.chk"
 -----
 titel
 -----
 Charge =  0 Multiplicity = 1

                         Standard orientation:
 ---------------------------------------------------------------------
 Center     Atomic      Atomic             Coordinates (Angstroms)
 Number     Number       Type             X           Y           Z
 ---------------------------------------------------------------------
      1          6           0       -2.927565   -0.280826   -0.050091
      2          6           0       -1.460374   -0.022621   -0.173467
      3          6           0       -0.835555    1.123808   -0.462415
      4          6           0        0.678423    0.992733   -0.454103
      5          8           0        1.312487    1.834156    0.496967
      6          6           0        0.896366   -0.499396   -0.132903
      7          6           0        2.139605   -1.205643   -0.587048
      8          8           0        0.438150   -0.783592    1.203806
      9          6           0       -0.428901   -1.088733    0.073384
     10          1           0       -3.183137   -0.622844    0.960615
     11          1           0       -3.512054    0.617000   -0.266464
     12          1           0       -3.251589   -1.071126   -0.738888
     13          1           0       -1.317839    2.083522   -0.614281
     14          1           0        1.121589    1.257820   -1.421403
     15          1           0        1.027496    1.499725    1.358211
     16          1           0        3.024740   -0.691176   -0.197290
     17          1           0        2.153096   -2.237811   -0.228454
     18          1           0        2.207028   -1.210051   -1.680055
     19          1           0       -0.646429   -2.145492   -0.058322
 ---------------------------------------------------------------------

 SCF Done:  E(RB3LYP) =  -423.182069389     A.U. after    1 cycles

 The electronic state is 1-A.
 Alpha  occ. eigenvalues --  -19.15015 -19.13102 -10.23670 -10.23616 -10.23338
 Alpha  occ. eigenvalues --  -10.19707 -10.19002 -10.18418 -10.17941  -1.06949
 Alpha  occ. eigenvalues --   -1.01073  -0.82194  -0.75790  -0.72283  -0.66715
 Alpha  occ. eigenvalues --   -0.64096  -0.57473  -0.54370  -0.50051  -0.47828
 Alpha  occ. eigenvalues --   -0.44886  -0.43267  -0.42578  -0.41753  -0.40997
 Alpha  occ. eigenvalues --   -0.40596  -0.37680  -0.37245  -0.36940  -0.32880
 Alpha  occ. eigenvalues --   -0.30789  -0.28422  -0.25150  -0.24054
 Alpha virt. eigenvalues --   -0.00271   0.09674   0.10467   0.10877   0.11699
 Alpha virt. eigenvalues --    0.13018   0.13551   0.14653   0.16673   0.16868
 Alpha virt. eigenvalues --    0.17327   0.17532   0.19948   0.21490   0.22326

 Mulliken charges:
               1
     1  C   -0.499524
     2  C    0.337620
     3  C   -0.239562
     4  C    0.043975
     5  O   -0.436030
     6  C    0.382379
     7  C   -0.498474
     8  O   -0.310600
     9  C   -0.134995
    10  H    0.137259
    11  H    0.129616
    12  H    0.128826
    13  H    0.100981
    14  H    0.087143
    15  H    0.286295
    16  H    0.139088
    17  H    0.128807
    18  H    0.123766
    19  H    0.093427
 Sum of Mulliken charges =   0.00000

 Dipole moment (field-independent basis, Debye):
    X=             -1.4250    Y=             -1.2988    Z=             -1.3458  Tot=              2.3513
 Quadrupole moment (field-independent basis, Debye-Ang):
   XX=            -50.8252   YY=            -54.2861   ZZ=            -53.5048
   XY=             -2.2273   XZ=             -1.3888   YZ=              1.2954

  Exact polarizability:  91.394   4.463  79.031  -2.209  -2.947  59.857
 Approx polarizability: 119.655  16.091 122.900  -2.173  -8.513  99.655

                      1                      2                      3
                      A                      A                      A
 Frequencies --    130.2438               146.9523               179.9958
 Red. masses --      3.0996                 2.6895                 1.1343
 Frc consts  --      0.0310                 0.0342                 0.0217
 IR Inten    --      1.6355                 2.2433                 1.0079

                      4                      5                      6
                      A                      A                      A
 Frequencies --    196.9584               235.2516               246.1172
 Red. masses --      1.1413                 2.8685                 3.1725
 Frc consts  --      0.0261                 0.0935                 0.1132
 IR Inten    --      0.0138                 2.0033                 2.2257

                      7                      8                      9
                      A                      A                      A
 Frequencies --    315.5547               383.4062               457.7596
 Red. masses --      2.8813                 3.3927                 1.7473
 Frc consts  --      0.1690                 0.2938                 0.2157
 IR Inten    --      0.9320                 2.9468                11.1583

                     10                     11                     12
                      A                      A                      A
 Frequencies --    492.3877               521.3211               595.1507
 Red. masses --      1.6881                 4.0810                 4.2049
 Frc consts  --      0.2411                 0.6535                 0.8775
 IR Inten    --     76.0233                 2.0380                12.1075

                     13                     14                     15
                      A                      A                      A
 Frequencies --    599.6206               651.5167               763.9696
 Red. masses --      3.9872                 3.6639                 4.3239
 Frc consts  --      0.8446                 0.9163                 1.4869
 IR Inten    --     10.7499                 1.4716                 4.5954

                     16                     17                     18
                      A                      A                      A
 Frequencies --    822.8565               875.4715               882.8109
 Red. masses --      2.4211                 2.5711                 1.7192
 Frc consts  --      0.9658                 1.1610                 0.7894
 IR Inten    --      6.7383                45.3925                14.3896

                     19                     20                     21
                      A                      A                      A
 Frequencies --    917.9571               985.7822              1005.5270
 Red. masses --      3.0936                 2.4096                 1.4444
 Frc consts  --      1.5359                 1.3796                 0.8605
 IR Inten    --      5.3121                16.7108                 3.1084

                     22                     23                     24
                      A                      A                      A
 Frequencies --   1026.7327              1059.6579              1067.4798
 Red. masses --      1.6945                 1.7344                 3.4024
 Frc consts  --      1.0525                 1.1474                 2.2843
 IR Inten    --     20.5928                 4.6876                90.0285

                     25                     26                     27
                      A                      A                      A
 Frequencies --   1074.3521              1106.5591              1186.3647
 Red. masses --      1.7902                 1.7738                 2.1775
 Frc consts  --      1.2174                 1.2797                 1.8057
 IR Inten    --      1.8253                 3.9755                 6.8847

                     28                     29                     30
                      A                      A                      A
 Frequencies --   1220.5335              1256.6091              1276.5963
 Red. masses --      1.8364                 1.3678                 1.3676
 Frc consts  --      1.6118                 1.2726                 1.3132
 IR Inten    --      9.6733                 8.4975                10.3256

                     31                     32                     33
                      A                      A                      A
 Frequencies --   1314.1445              1340.4193              1405.1751
 Red. masses --      1.9053                 2.3274                 1.2953
 Frc consts  --      1.9386                 2.4638                 1.5068
 IR Inten    --      3.9037                 6.0504                 2.6201

                     34                     35                     36
                      A                      A                      A
 Frequencies --   1413.9869              1432.3090              1461.3830
 Red. masses --      1.2991                 1.2889                 2.2459
 Frc consts  --      1.5304                 1.5579                 2.8260
 IR Inten    --      0.7799                75.5954                15.9417

                     37                     38                     39
                      A                      A                      A
 Frequencies --   1478.8706              1484.8947              1487.2625
 Red. masses --      1.0449                 1.1601                 1.0772
 Frc consts  --      1.3464                 1.5071                 1.4039
 IR Inten    --      7.0329                 7.4554                10.8701

                     40                     41                     42
                      A                      A                      A
 Frequencies --   1497.4485              1706.7488              3020.4220
 Red. masses --      1.1889                 7.1526                 1.0380
 Frc consts  --      1.5707                12.2759                 5.5796
 IR Inten    --      2.5691                 4.9528                25.2113

                     43                     44                     45
                      A                      A                      A
 Frequencies --   3035.4041              3043.5963              3067.9173
 Red. masses --      1.0388                 1.0808                 1.0986
 Frc consts  --      5.6394                 5.8987                 6.0920
 IR Inten    --     11.1948                39.2435                15.3815

                     46                     47                     48
                      A                      A                      A
 Frequencies --   3100.3424              3115.9080              3124.0734
 Red. masses --      1.1006                 1.0992                 1.1014
 Frc consts  --      6.2328                 6.2878                 6.3334
 IR Inten    --     14.1348                16.0155                12.3661

                     49                     50                     51
                      A                      A                      A
 Frequencies --   3151.9414              3191.6379              3761.1828
 Red. masses --      1.0912                 1.0942                 1.0651
 Frc consts  --      6.3870                 6.5673                 8.8777
 IR Inten    --     23.8143                11.2265                19.0881

 - Thermochemistry -
 -------------------
 Temperature   298.150 Kelvin.  Pressure   1.00000 Atm.
 Atom     1 has atomic number  6 and mass  12.00000

 Molecular mass:   126.06808 amu.
 Principal axes and moments of inertia in atomic units:
                           1         2         3
     Eigenvalues --   690.870701221.621001586.93149
           X            0.99942  -0.03045  -0.01541
           Y            0.03073   0.99935   0.01871
           Z            0.01483  -0.01917   0.99971
 This molecule is an asymmetric top.
 Rotational symmetry number  1.
 Warning -- assumption of classical behavior for rotation
           may cause significant error
 Rotational temperatures (Kelvin)      0.12537     0.07090     0.05458
 Rotational constants (GHZ):           2.61227     1.47733     1.13725
 Zero-point vibrational energy     414605.1 (Joules/Mol)
                                   99.09300 (Kcal/Mol)
 Warning -- explicit consideration of  13 degrees of freedom as
           vibrations may cause significant error
 Vibrational temperatures:    187.39   211.43   258.97   283.38   338.47
          (Kelvin)            354.11   454.01   551.64   658.61   708.44
                              750.06   856.29   862.72   937.39  1099.18
                             1183.91  1259.61  1270.17  1320.73  1418.32
                             1446.73  1477.24  1524.61  1535.86  1545.75
                             1592.09  1706.91  1756.07  1807.98  1836.74
                             1890.76  1928.56  2021.73  2034.41  2060.77
                             2102.60  2127.76  2136.43  2139.84  2154.49
                             2455.63  4345.71  4367.26  4379.05  4414.04
                             4460.70  4483.09  4494.84  4534.93  4592.05
                             5411.50

 Zero-point correction=                           0.157915 (Hartree/Particle)
 Thermal correction to Energy=                    0.166786
 Thermal correction to Enthalpy=                  0.167730
 Thermal correction to Gibbs Free Energy=         0.124850
 Sum of electronic and zero-point Energies=           -423.024155
 Sum of electronic and thermal Energies=              -423.015283
 Sum of electronic and thermal Enthalpies=            -423.014339
 Sum of electronic and thermal Free Energies=         -423.057219

                     E (Thermal)             CV                S
                      KCal/Mol        Cal/Mol-Kelvin    Cal/Mol-Kelvin
 Total                  104.660             33.939             90.249
 Electronic               0.000              0.000              0.000
 Translational            0.889              2.981             40.409
 Rotational               0.889              2.981             28.684
 Vibrational            102.882             27.977             21.156
 Vibration     1          0.612              1.923              2.942
 Vibration     2          0.617              1.906              2.711
 Vibration     3          0.629              1.867              2.328
 Vibration     4          0.636              1.844              2.161
 Vibration     5          0.655              1.787              1.839
 Vibration     6          0.661              1.769              1.758
 Vibration     7          0.703              1.644              1.333
 Vibration     8          0.753              1.506              1.026
 Vibration     9          0.816              1.344              0.773
 Vibration    10          0.848              1.267              0.677
 Vibration    11          0.876              1.203              0.607
 Vibration    12          0.953              1.042              0.458
 Vibration    13          0.958              1.033              0.450

 Optimization completed.
    -- Stationary point found.
 Normal termination of Gaussian 09 at Tue Jan 28 00:49:52 2020.
