 Gaussian 09, Revision D.01,
 Gaussian 09:  ES64L-G09RevD.01 24-Apr-2013

 -----------------------------
 # b3lyp 6-31G(2df,p) opt Freq
 -----------------------------

 -----
 titel
 -----
 Symbolic Z-matrix:
 Charge =  0 Multiplicity = 1

 SCF Done:  E(RB3LYP) =  -423.134553660     A.U. after   14 cycles
 Optimization completed.
    -- Stationary point found.
 Normal termination of Gaussian 09 at Tue Jan 28 10:10:23 2020.

 ----------------------------------------------------------------------
 #N Geom=AllCheck Guess=TCheck SCRF=Check GenChk RB3LYP/6-31G(2df,p) Fr
 eq
 ----------------------------------------------------------------------

 Structure from the checkpoint file:  "/scratch/puck/g09_57e6dd7a-256f-417d-8f9b-8bf91d819c32/Gau-97808.chk"
 -----
 titel
 -----
 Charge =  0 Multiplicity = 1

                         Standard orientation:
 ---------------------------------------------------------------------
 Center     Atomic      Atomic             Coordinates (Angstroms)
 Number     Number       Type             X           Y           Z
 ---------------------------------------------------------------------
      1          8           0       -2.761953   -0.068631   -0.512585
      2          6           0       -1.929756    0.098474    0.622703
      3          6           0       -0.480792    0.129788    0.211450
      4          6           0        0.136248    1.339206   -0.533100
      5          6           0        1.515038    1.002367    0.098725
      6          6           0        2.181471   -0.240155   -0.553110
      7          6           0        1.166319   -1.146061    0.178593
      8          8           0       -0.129329   -1.113630   -0.466346
      9          6           0        0.785498    0.035710    1.113404
     10          1           0       -2.431233   -0.849565   -0.972859
     11          1           0       -2.216999    1.044424    1.094188
     12          1           0       -2.081545   -0.708474    1.357568
     13          1           0        0.050787    1.346001   -1.622348
     14          1           0       -0.260075    2.277750   -0.131398
     15          1           0        2.157127    1.831461    0.393505
     16          1           0        2.211040   -0.306006   -1.644274
     17          1           0        3.187976   -0.395993   -0.150188
     18          1           0        1.449341   -2.157659    0.475767
     19          1           0        0.819677    0.060171    2.199500
 ---------------------------------------------------------------------

 SCF Done:  E(RB3LYP) =  -423.134553660     A.U. after    1 cycles

 The electronic state is 1-A.
 Alpha  occ. eigenvalues --  -19.13549 -19.13026 -10.23709 -10.23580 -10.22388
 Alpha  occ. eigenvalues --  -10.19528 -10.19233 -10.18421 -10.18145  -1.04880
 Alpha  occ. eigenvalues --   -1.00941  -0.84931  -0.76482  -0.69221  -0.66951
 Alpha  occ. eigenvalues --   -0.60787  -0.58471  -0.53111  -0.50381  -0.48069
 Alpha  occ. eigenvalues --   -0.47728  -0.45247  -0.43157  -0.42581  -0.40758
 Alpha  occ. eigenvalues --   -0.37778  -0.37385  -0.34334  -0.32791  -0.31354
 Alpha  occ. eigenvalues --   -0.28932  -0.28046  -0.26309  -0.23969
 Alpha virt. eigenvalues --    0.06265   0.09137   0.09887   0.10485   0.12701
 Alpha virt. eigenvalues --    0.13055   0.14543   0.15242   0.16304   0.16881
 Alpha virt. eigenvalues --    0.17336   0.18181   0.18821   0.20285   0.21101

 Mulliken charges:
               1
     1  O   -0.420208
     2  C   -0.162779
     3  C    0.438104
     4  C   -0.266857
     5  C   -0.055070
     6  C   -0.236901
     7  C    0.111636
     8  O   -0.359132
     9  C   -0.172134
    10  H    0.296558
    11  H    0.105023
    12  H    0.087737
    13  H    0.105190
    14  H    0.101416
    15  H    0.070872
    16  H    0.102492
    17  H    0.101678
    18  H    0.077951
    19  H    0.074424
 Sum of Mulliken charges =   0.00000

 Dipole moment (field-independent basis, Debye):
    X=              2.0765    Y=              0.1846    Z=              1.2642  Tot=              2.4381
 Quadrupole moment (field-independent basis, Debye-Ang):
   XX=            -57.1719   YY=            -51.9582   ZZ=            -51.6906
   XY=              0.6196   XZ=             -1.0222   YZ=              0.4377

  Exact polarizability:  83.389  -2.605  71.959  -1.185  -0.485  67.475
 Approx polarizability: 110.915  -3.046 108.185   1.988   1.848 104.011

                      1                      2                      3
                      A                      A                      A
 Frequencies --     76.9313               146.5401               260.3900
 Red. masses --      3.9393                 4.2496                 2.2957
 Frc consts  --      0.0137                 0.0538                 0.0917
 IR Inten    --      4.0445                 0.4014                 0.7350

                      4                      5                      6
                      A                      A                      A
 Frequencies --    316.8597               368.4560               394.0633
 Red. masses --      2.3819                 2.1042                 3.0866
 Frc consts  --      0.1409                 0.1683                 0.2824
 IR Inten    --      2.6891                10.0307                 7.1298

                      7                      8                      9
                      A                      A                      A
 Frequencies --    436.2616               456.1376               652.8413
 Red. masses --      1.2081                 2.5602                 3.5293
 Frc consts  --      0.1355                 0.3138                 0.8862
 IR Inten    --    116.5549                 0.2710                11.8507

                     10                     11                     12
                      A                      A                      A
 Frequencies --    682.8916               749.0653               799.1807
 Red. masses --      3.8639                 3.5859                 2.2111
 Frc consts  --      1.0617                 1.1855                 0.8321
 IR Inten    --      0.3943                 8.3822                 2.5514

                     13                     14                     15
                      A                      A                      A
 Frequencies --    829.3933               855.1472               883.5482
 Red. masses --      1.6783                 2.0230                 2.0628
 Frc consts  --      0.6802                 0.8716                 0.9488
 IR Inten    --      1.1251                 8.4160                 3.6934

                     16                     17                     18
                      A                      A                      A
 Frequencies --    904.5689               917.9025               950.7206
 Red. masses --      2.5388                 1.9188                 2.0093
 Frc consts  --      1.2240                 0.9525                 1.0700
 IR Inten    --     33.5261                 4.0089                25.8650

                     19                     20                     21
                      A                      A                      A
 Frequencies --    976.0830               992.0498              1019.2233
 Red. masses --      3.6472                 2.3390                 2.3381
 Frc consts  --      2.0473                 1.3563                 1.4310
 IR Inten    --      8.4402                14.8290                51.3419

                     22                     23                     24
                      A                      A                      A
 Frequencies --   1047.1854              1071.7689              1113.3847
 Red. masses --      2.6372                 2.5122                 1.7000
 Frc consts  --      1.7039                 1.7002                 1.2416
 IR Inten    --     40.3339                38.7493                 3.9738

                     25                     26                     27
                      A                      A                      A
 Frequencies --   1116.5348              1120.9472              1147.9014
 Red. masses --      2.1952                 1.5824                 2.0400
 Frc consts  --      1.6124                 1.1715                 1.5838
 IR Inten    --      1.6806                17.6023                 4.8805

                     28                     29                     30
                      A                      A                      A
 Frequencies --   1164.3275              1204.6768              1221.6955
 Red. masses --      1.3879                 1.4157                 1.8435
 Frc consts  --      1.1086                 1.2105                 1.6211
 IR Inten    --      2.0252                 1.9931                 2.7334

                     31                     32                     33
                      A                      A                      A
 Frequencies --   1244.6782              1257.8634              1273.9349
 Red. masses --      1.3034                 1.8319                 1.9097
 Frc consts  --      1.1897                 1.7078                 1.8261
 IR Inten    --      8.5654                 3.7777                 8.5622

                     34                     35                     36
                      A                      A                      A
 Frequencies --   1305.2547              1320.8682              1342.9657
 Red. masses --      1.5881                 1.5941                 1.7597
 Frc consts  --      1.5941                 1.6386                 1.8699
 IR Inten    --      7.0349                33.8326                 2.1951

                     37                     38                     39
                      A                      A                      A
 Frequencies --   1378.7861              1435.0390              1462.8701
 Red. masses --      1.3356                 1.3833                 1.1165
 Frc consts  --      1.4960                 1.6784                 1.4077
 IR Inten    --      9.1845                56.0608                 1.2325

                     40                     41                     42
                      A                      A                      A
 Frequencies --   1474.6489              1496.1500              2976.6245
 Red. masses --      1.1184                 1.0933                 1.0694
 Frc consts  --      1.4330                 1.4419                 5.5825
 IR Inten    --      2.0793                 0.7324                55.9801

                     43                     44                     45
                      A                      A                      A
 Frequencies --   3043.8154              3048.0454              3073.0087
 Red. masses --      1.0583                 1.0601                 1.0925
 Frc consts  --      5.7767                 5.8028                 6.0787
 IR Inten    --     29.9630                22.9879                29.6419

                     46                     47                     48
                      A                      A                      A
 Frequencies --   3089.3338              3103.1489              3109.7629
 Red. masses --      1.0902                 1.1064                 1.1012
 Frc consts  --      6.1301                 6.2771                 6.2745
 IR Inten    --     62.3732                19.2354                21.6880

                     49                     50                     51
                      A                      A                      A
 Frequencies --   3114.5748              3149.8178              3790.5270
 Red. masses --      1.0949                 1.0939                 1.0656
 Frc consts  --      6.2576                 6.3946                 9.0212
 IR Inten    --     44.7771                25.1395                25.7407

 - Thermochemistry -
 -------------------
 Temperature   298.150 Kelvin.  Pressure   1.00000 Atm.
 Atom     1 has atomic number  8 and mass  15.99491

 Molecular mass:   126.06808 amu.
 Principal axes and moments of inertia in atomic units:
                           1         2         3
     Eigenvalues --   492.531741307.969471443.84945
           X            0.99991  -0.00181  -0.01366
           Y            0.00143   0.99961  -0.02771
           Z            0.01371   0.02769   0.99952
 This molecule is an asymmetric top.
 Rotational symmetry number  1.
 Warning -- assumption of classical behavior for rotation
           may cause significant error
 Rotational temperatures (Kelvin)      0.17585     0.06622     0.05999
 Rotational constants (GHZ):           3.66421     1.37980     1.24995
 Zero-point vibrational energy     420896.5 (Joules/Mol)
                                  100.59667 (Kcal/Mol)
 Warning -- explicit consideration of   8 degrees of freedom as
           vibrations may cause significant error
 Vibrational temperatures:    110.69   210.84   374.64   455.89   530.13
          (Kelvin)            566.97   627.68   656.28   939.29   982.53
                             1077.74  1149.84  1193.31  1230.36  1271.23
                             1301.47  1320.66  1367.87  1404.36  1427.34
                             1466.43  1506.66  1542.03  1601.91  1606.44
                             1612.79  1651.57  1675.21  1733.26  1757.75
                             1790.81  1809.78  1832.91  1877.97  1900.43
                             1932.23  1983.76  2064.70  2104.74  2121.69
                             2152.62  4282.69  4379.37  4385.45  4421.37
                             4444.86  4464.73  4474.25  4481.17  4531.88
                             5453.72

 Zero-point correction=                           0.160311 (Hartree/Particle)
 Thermal correction to Energy=                    0.167815
 Thermal correction to Enthalpy=                  0.168759
 Thermal correction to Gibbs Free Energy=         0.128299
 Sum of electronic and zero-point Energies=           -422.974243
 Sum of electronic and thermal Energies=              -422.966739
 Sum of electronic and thermal Enthalpies=            -422.965795
 Sum of electronic and thermal Free Energies=         -423.006255

                     E (Thermal)             CV                S
                      KCal/Mol        Cal/Mol-Kelvin    Cal/Mol-Kelvin
 Total                  105.305             30.061             85.155
 Electronic               0.000              0.000              0.000
 Translational            0.889              2.981             40.409
 Rotational               0.889              2.981             28.322
 Vibrational            103.528             24.100             16.425
 Vibration     1          0.599              1.965              3.968
 Vibration     2          0.617              1.906              2.717
 Vibration     3          0.668              1.745              1.659
 Vibration     4          0.704              1.641              1.326
 Vibration     5          0.741              1.537              1.086
 Vibration     6          0.761              1.483              0.985
 Vibration     7          0.797              1.391              0.838
 Vibration     8          0.814              1.347              0.777

 Optimization completed.
    -- Stationary point found.
 Normal termination of Gaussian 09 at Tue Jan 28 10:55:25 2020.
