 Gaussian 09, Revision D.01,
 Gaussian 09:  ES64L-G09RevD.01 24-Apr-2013

 -----------------------------
 # b3lyp 6-31G(2df,p) opt Freq
 -----------------------------

 -----
 titel
 -----
 Symbolic Z-matrix:
 Charge =  0 Multiplicity = 1

 SCF Done:  E(RB3LYP) =  -423.190363726     A.U. after   14 cycles
 Optimization completed.
    -- Stationary point found.
 Normal termination of Gaussian 09 at Mon Jan 27 13:16:28 2020.

 ----------------------------------------------------------------------
 #N Geom=AllCheck Guess=TCheck SCRF=Check GenChk RB3LYP/6-31G(2df,p) Fr
 eq
 ----------------------------------------------------------------------

 Structure from the checkpoint file:  "/scratch/puck/g09_24fa2620-0644-42a5-8fa1-d9c483fcbf93/Gau-169588.chk"
 -----
 titel
 -----
 Charge =  0 Multiplicity = 1

                         Standard orientation:
 ---------------------------------------------------------------------
 Center     Atomic      Atomic             Coordinates (Angstroms)
 Number     Number       Type             X           Y           Z
 ---------------------------------------------------------------------
      1          8           0        2.993150   -0.894595   -0.621960
      2          6           0        2.115477   -0.456366    0.084053
      3          6           0        1.165941    0.597672   -0.328337
      4          6           0        0.627514    1.554770    0.748022
      5          6           0       -0.288345    0.553572    0.172602
      6          6           0       -1.445660    0.847615   -0.790044
      7          6           0       -2.445401   -0.296767   -0.494160
      8          6           0       -1.579900   -1.308671    0.268820
      9          8           0       -0.665829   -0.505122    1.012785
     10          1           0        1.962126   -0.835324    1.117880
     11          1           0        1.337279    0.997998   -1.322390
     12          1           0        0.972149    1.379973    1.762514
     13          1           0        0.515976    2.597614    0.473225
     14          1           0       -1.885447    1.830607   -0.602490
     15          1           0       -1.105205    0.829925   -1.828323
     16          1           0       -3.254973    0.058540    0.148895
     17          1           0       -2.890971   -0.718108   -1.397912
     18          1           0       -2.132062   -1.926231    0.980200
     19          1           0       -1.035194   -1.968206   -0.423933
 ---------------------------------------------------------------------

 SCF Done:  E(RB3LYP) =  -423.190363726     A.U. after    1 cycles

 The electronic state is 1-A.
 Alpha  occ. eigenvalues --  -19.15495 -19.12230 -10.25906 -10.25812 -10.23708
 Alpha  occ. eigenvalues --  -10.20317 -10.20051 -10.19800 -10.19689  -1.05770
 Alpha  occ. eigenvalues --   -1.02943  -0.86901  -0.79137  -0.71061  -0.65891
 Alpha  occ. eigenvalues --   -0.61575  -0.58040  -0.55429  -0.51315  -0.49946
 Alpha  occ. eigenvalues --   -0.47787  -0.45532  -0.42879  -0.42095  -0.40420
 Alpha  occ. eigenvalues --   -0.39700  -0.37741  -0.37527  -0.36455  -0.34160
 Alpha  occ. eigenvalues --   -0.31787  -0.30381  -0.25576  -0.23383
 Alpha virt. eigenvalues --   -0.01256   0.07204   0.09096   0.10480   0.11526
 Alpha virt. eigenvalues --    0.12909   0.13999   0.14499   0.15460   0.16580
 Alpha virt. eigenvalues --    0.17230   0.18420   0.19059   0.20206   0.21675

 Mulliken charges:
               1
     1  O   -0.278722
     2  C    0.165860
     3  C   -0.182846
     4  C   -0.381271
     5  C    0.443372
     6  C   -0.310214
     7  C   -0.211051
     8  C   -0.095403
     9  O   -0.275318
    10  H    0.080085
    11  H    0.102057
    12  H    0.135340
    13  H    0.128678
    14  H    0.116986
    15  H    0.119371
    16  H    0.115679
    17  H    0.109757
    18  H    0.114925
    19  H    0.102714
 Sum of Mulliken charges =   0.00000

 Dipole moment (field-independent basis, Debye):
    X=             -3.5807    Y=              1.5696    Z=              0.0312  Tot=              3.9098
 Quadrupole moment (field-independent basis, Debye-Ang):
   XX=            -60.7583   YY=            -51.0694   ZZ=            -53.6599
   XY=              5.1611   XZ=              4.7472   YZ=             -0.7710

  Exact polarizability:  89.460  -2.574  75.115  -1.852   0.684  67.742
 Approx polarizability: 120.600  -8.932 108.563 -10.313   4.433 107.488

                      1                      2                      3
                      A                      A                      A
 Frequencies --     33.6638                97.1759               140.0158
 Red. masses --      2.7608                 4.5562                 3.3431
 Frc consts  --      0.0018                 0.0253                 0.0386
 IR Inten    --      1.3730                 3.2637                 1.6623

                      4                      5                      6
                      A                      A                      A
 Frequencies --    202.3126               248.2005               344.8642
 Red. masses --      2.1420                 2.3668                 3.3154
 Frc consts  --      0.0517                 0.0859                 0.2323
 IR Inten    --      2.9717                 4.9310                 1.0268

                      7                      8                      9
                      A                      A                      A
 Frequencies --    374.8363               452.2470               524.5302
 Red. masses --      2.2506                 4.3808                 3.5107
 Frc consts  --      0.1863                 0.5279                 0.5691
 IR Inten    --      3.1162                10.3951                 0.4866

                     10                     11                     12
                      A                      A                      A
 Frequencies --    566.2300               628.8156               760.1772
 Red. masses --      4.4243                 2.0480                 5.2485
 Frc consts  --      0.8358                 0.4771                 1.7870
 IR Inten    --      9.6163                 1.0235                 7.8267

                     13                     14                     15
                      A                      A                      A
 Frequencies --    804.3184               853.7406               871.3351
 Red. masses --      1.9568                 1.2877                 2.0488
 Frc consts  --      0.7458                 0.5530                 0.9165
 IR Inten    --     14.9117                14.8144                34.2454

                     16                     17                     18
                      A                      A                      A
 Frequencies --    889.3044               916.0725               930.4046
 Red. masses --      1.8144                 1.9855                 2.4115
 Frc consts  --      0.8455                 0.9817                 1.2299
 IR Inten    --      8.4226                11.9561                 6.5345

                     19                     20                     21
                      A                      A                      A
 Frequencies --    967.1958              1016.0224              1042.0623
 Red. masses --      2.3870                 1.9102                 2.0410
 Frc consts  --      1.3156                 1.1618                 1.3058
 IR Inten    --      2.5401                 9.0990                26.3139

                     22                     23                     24
                      A                      A                      A
 Frequencies --   1060.4165              1070.2815              1075.4258
 Red. masses --      1.6127                 2.1920                 2.1460
 Frc consts  --      1.0685                 1.4794                 1.4623
 IR Inten    --     60.2799                44.4155                37.6067

                     25                     26                     27
                      A                      A                      A
 Frequencies --   1120.9634              1173.0949              1196.7286
 Red. masses --      1.7018                 1.9628                 1.7254
 Frc consts  --      1.2599                 1.5914                 1.4559
 IR Inten    --      8.6060                32.3452                25.1684

                     28                     29                     30
                      A                      A                      A
 Frequencies --   1216.5120              1226.3055              1264.1808
 Red. masses --      1.3501                 1.6420                 1.2179
 Frc consts  --      1.1772                 1.4549                 1.1468
 IR Inten    --     27.6256                 7.2087                 6.8407

                     31                     32                     33
                      A                      A                      A
 Frequencies --   1275.8023              1308.9961              1339.0892
 Red. masses --      1.6165                 1.3509                 1.3931
 Frc consts  --      1.5502                 1.3638                 1.4719
 IR Inten    --     15.8438                 2.8419                10.8505

                     34                     35                     36
                      A                      A                      A
 Frequencies --   1382.4771              1393.7618              1442.5783
 Red. masses --      1.7672                 1.4739                 1.2924
 Frc consts  --      1.9900                 1.6870                 1.5846
 IR Inten    --     20.2107                 3.5147                 5.6881

                     37                     38                     39
                      A                      A                      A
 Frequencies --   1479.7083              1486.4914              1501.8949
 Red. masses --      1.5606                 1.0826                 1.0948
 Frc consts  --      2.0133                 1.4094                 1.4550
 IR Inten    --     22.4237                 1.1279                 2.5153

                     40                     41                     42
                      A                      A                      A
 Frequencies --   1520.1812              1807.6117              2896.5904
 Red. masses --      1.1238                 9.7393                 1.0825
 Frc consts  --      1.5302                18.7495                 5.3513
 IR Inten    --      1.3099               262.5155                68.2160

                     43                     44                     45
                      A                      A                      A
 Frequencies --   2991.2894              3060.5905              3068.6482
 Red. masses --      1.0708                 1.0594                 1.0625
 Frc consts  --      5.6452                 5.8467                 5.8951
 IR Inten    --     49.2942                14.9400                27.5938

                     46                     47                     48
                      A                      A                      A
 Frequencies --   3099.5999              3109.1099              3122.8054
 Red. masses --      1.1039                 1.0942                 1.1060
 Frc consts  --      6.2488                 6.2316                 6.3547
 IR Inten    --      8.7765                24.9781                34.3184

                     49                     50                     51
                      A                      A                      A
 Frequencies --   3131.2689              3168.0456              3223.0559
 Red. masses --      1.0542                 1.0898                 1.1169
 Frc consts  --      6.0897                 6.4441                 6.8362
 IR Inten    --      7.1780                 5.0685                 2.5845

 - Thermochemistry -
 -------------------
 Temperature   298.150 Kelvin.  Pressure   1.00000 Atm.
 Atom     1 has atomic number  8 and mass  15.99491

 Molecular mass:   126.06808 amu.
 Principal axes and moments of inertia in atomic units:
                           1         2         3
     Eigenvalues --   587.424951587.820711779.66376
           X            0.99953   0.02144   0.02192
           Y           -0.02097   0.99956  -0.02107
           Z           -0.02236   0.02060   0.99954
 This molecule is an asymmetric top.
 Rotational symmetry number  1.
 Warning -- assumption of classical behavior for rotation
           may cause significant error
 Rotational temperatures (Kelvin)      0.14745     0.05455     0.04867
 Rotational constants (GHZ):           3.07229     1.13662     1.01409
 Zero-point vibrational energy     417957.5 (Joules/Mol)
                                   99.89423 (Kcal/Mol)
 Warning -- explicit consideration of  10 degrees of freedom as
           vibrations may cause significant error
 Vibrational temperatures:     48.43   139.81   201.45   291.08   357.10
          (Kelvin)            496.18   539.31   650.68   754.68   814.68
                              904.72  1093.72  1157.23  1228.34  1253.66
                             1279.51  1318.02  1338.64  1391.58  1461.83
                             1499.29  1525.70  1539.89  1547.30  1612.81
                             1687.82  1721.82  1750.29  1764.38  1818.87
                             1835.59  1883.35  1926.65  1989.07  2005.31
                             2075.55  2128.97  2138.73  2160.89  2187.20
                             2600.75  4167.54  4303.79  4403.50  4415.09
                             4459.63  4473.31  4493.01  4505.19  4558.11
                             4637.25

 Zero-point correction=                           0.159192 (Hartree/Particle)
 Thermal correction to Energy=                    0.167653
 Thermal correction to Enthalpy=                  0.168597
 Thermal correction to Gibbs Free Energy=         0.125018
 Sum of electronic and zero-point Energies=           -423.031172
 Sum of electronic and thermal Energies=              -423.022711
 Sum of electronic and thermal Enthalpies=            -423.021766
 Sum of electronic and thermal Free Energies=         -423.065346

                     E (Thermal)             CV                S
                      KCal/Mol        Cal/Mol-Kelvin    Cal/Mol-Kelvin
 Total                  105.204             31.419             91.721
 Electronic               0.000              0.000              0.000
 Translational            0.889              2.981             40.409
 Rotational               0.889              2.981             28.897
 Vibrational            103.426             25.457             22.415
 Vibration     1          0.594              1.983              5.601
 Vibration     2          0.603              1.951              3.510
 Vibration     3          0.615              1.913              2.804
 Vibration     4          0.639              1.837              2.112
 Vibration     5          0.662              1.766              1.743
 Vibration     6          0.723              1.586              1.190
 Vibration     7          0.746              1.524              1.060
 Vibration     8          0.811              1.356              0.789
 Vibration     9          0.879              1.196              0.600
 Vibration    10          0.922              1.104              0.512

 Optimization completed.
    -- Stationary point found.
 Normal termination of Gaussian 09 at Mon Jan 27 13:58:52 2020.
