 Gaussian 09, Revision D.01,
 Gaussian 09:  ES64L-G09RevD.01 24-Apr-2013

 -----------------------------
 # b3lyp 6-31G(2df,p) opt Freq
 -----------------------------

 -----
 titel
 -----
 Symbolic Z-matrix:
 Charge =  0 Multiplicity = 1

 SCF Done:  E(RB3LYP) =  -423.120454102     A.U. after   14 cycles
 Optimization completed.
    -- Stationary point found.
 Normal termination of Gaussian 09 at Mon Jan 27 12:08:21 2020.

 ----------------------------------------------------------------------
 #N Geom=AllCheck Guess=TCheck SCRF=Check GenChk RB3LYP/6-31G(2df,p) Fr
 eq
 ----------------------------------------------------------------------

 Structure from the checkpoint file:  "/scratch/puck/g09_56ecce07-5760-482f-b38d-be66b5a009d0/Gau-71561.chk"
 -----
 titel
 -----
 Charge =  0 Multiplicity = 1

                         Standard orientation:
 ---------------------------------------------------------------------
 Center     Atomic      Atomic             Coordinates (Angstroms)
 Number     Number       Type             X           Y           Z
 ---------------------------------------------------------------------
      1          6           0       -2.900585    0.283129   -0.401934
      2          8           0       -2.511634   -0.964464    0.176296
      3          6           0       -1.657750    0.166357    0.371330
      4          6           0       -0.305308    0.114554   -0.280815
      5          6           0        0.522515    1.440227   -0.172136
      6          6           0        1.646178    0.670750    0.551772
      7          8           0        2.606119    0.092153   -0.356888
      8          6           0        1.941156   -1.193889   -0.317147
      9          6           0        0.796110   -0.631941    0.536553
     10          1           0       -2.851375    0.329232   -1.489321
     11          1           0       -3.776548    0.753443    0.042812
     12          1           0       -1.665289    0.549175    1.395145
     13          1           0       -0.418437   -0.272064   -1.298010
     14          1           0        0.822902    1.910850   -1.110194
     15          1           0        0.036894    2.188378    0.463393
     16          1           0        2.122859    1.121899    1.426358
     17          1           0        1.679263   -1.562574   -1.317097
     18          1           0        2.561226   -1.944837    0.189390
     19          1           0        0.478727   -1.190147    1.416528
 ---------------------------------------------------------------------

 SCF Done:  E(RB3LYP) =  -423.120454102     A.U. after    1 cycles

 The electronic state is 1-A.
 Alpha  occ. eigenvalues --  -19.15130 -19.13166 -10.24048 -10.23558 -10.23422
 Alpha  occ. eigenvalues --  -10.23085 -10.19789 -10.19326 -10.18670  -1.07132
 Alpha  occ. eigenvalues --   -1.03865  -0.83374  -0.71826  -0.69947  -0.65596
 Alpha  occ. eigenvalues --   -0.63442  -0.59260  -0.53491  -0.51346  -0.49801
 Alpha  occ. eigenvalues --   -0.47566  -0.46437  -0.45053  -0.42056  -0.40850
 Alpha  occ. eigenvalues --   -0.38691  -0.36714  -0.35254  -0.34426  -0.31599
 Alpha  occ. eigenvalues --   -0.29329  -0.28485  -0.26762  -0.24435
 Alpha virt. eigenvalues --    0.06919   0.08975   0.09514   0.10020   0.10764
 Alpha virt. eigenvalues --    0.12022   0.12486   0.14421   0.15021   0.15542
 Alpha virt. eigenvalues --    0.17576   0.18458   0.19074   0.19671   0.19775

 Mulliken charges:
               1
     1  C   -0.187972
     2  O   -0.241502
     3  C    0.076753
     4  C   -0.004026
     5  C   -0.269510
     6  C    0.125398
     7  O   -0.294329
     8  C   -0.086639
     9  C   -0.092005
    10  H    0.113503
    11  H    0.115412
    12  H    0.089555
    13  H    0.077843
    14  H    0.114432
    15  H    0.100406
    16  H    0.075754
    17  H    0.101963
    18  H    0.101588
    19  H    0.083376
 Sum of Mulliken charges =   0.00000

 Dipole moment (field-independent basis, Debye):
    X=             -0.8684    Y=              1.1005    Z=              0.4100  Tot=              1.4606
 Quadrupole moment (field-independent basis, Debye-Ang):
   XX=            -59.7338   YY=            -53.0734   ZZ=            -50.8874
   XY=             -6.3745   XZ=              3.1592   YZ=              1.1339

  Exact polarizability:  88.258  -4.504  71.450   3.446   1.826  66.558
 Approx polarizability: 112.097  -1.361 108.266   3.577   1.864 101.988

                      1                      2                      3
                      A                      A                      A
 Frequencies --     66.8519                73.2375               164.4401
 Red. masses --      3.9217                 3.6282                 3.4190
 Frc consts  --      0.0103                 0.0115                 0.0545
 IR Inten    --      3.8415                 2.6277                 3.3589

                      4                      5                      6
                      A                      A                      A
 Frequencies --    223.5736               303.1043               391.2068
 Red. masses --      2.6072                 4.3253                 2.2332
 Frc consts  --      0.0768                 0.2341                 0.2014
 IR Inten    --      1.3022                 0.2729                 1.1507

                      7                      8                      9
                      A                      A                      A
 Frequencies --    401.6925               472.1019               686.4480
 Red. masses --      2.6796                 3.6087                 3.2652
 Frc consts  --      0.2547                 0.4739                 0.9065
 IR Inten    --      2.3420                 8.3826                 2.8080

                     10                     11                     12
                      A                      A                      A
 Frequencies --    775.1407               817.0612               825.9866
 Red. masses --      1.9681                 1.8324                 2.3040
 Frc consts  --      0.6967                 0.7207                 0.9262
 IR Inten    --      3.0548                14.0611                 2.2200

                     13                     14                     15
                      A                      A                      A
 Frequencies --    862.2999               885.2129               910.9694
 Red. masses --      5.1340                 2.1516                 2.6609
 Frc consts  --      2.2492                 0.9934                 1.3010
 IR Inten    --     11.9547                 9.6302                22.1403

                     16                     17                     18
                      A                      A                      A
 Frequencies --    935.1313               970.5153               982.3717
 Red. masses --      3.2800                 2.1939                 1.9833
 Frc consts  --      1.6899                 1.2175                 1.1277
 IR Inten    --     20.5500                11.1519                 2.3382

                     19                     20                     21
                      A                      A                      A
 Frequencies --    993.6339              1028.9374              1050.7763
 Red. masses --      2.3998                 3.2493                 2.1226
 Frc consts  --      1.3960                 2.0268                 1.3808
 IR Inten    --     28.8215                39.1513                 6.0225

                     22                     23                     24
                      A                      A                      A
 Frequencies --   1064.6900              1104.2257              1122.4702
 Red. masses --      2.1794                 1.3985                 1.6212
 Frc consts  --      1.4556                 1.0047                 1.2035
 IR Inten    --     21.4961                 2.2723                 1.3254

                     25                     26                     27
                      A                      A                      A
 Frequencies --   1153.0091              1156.6686              1171.1282
 Red. masses --      1.3034                 1.3407                 1.3488
 Frc consts  --      1.0209                 1.0568                 1.0899
 IR Inten    --      1.3569                 0.3416                 3.9278

                     28                     29                     30
                      A                      A                      A
 Frequencies --   1178.4788              1199.8444              1233.0263
 Red. masses --      1.5885                 1.8930                 1.6333
 Frc consts  --      1.2998                 1.6057                 1.4631
 IR Inten    --      8.4601                 1.2548                 0.2614

                     31                     32                     33
                      A                      A                      A
 Frequencies --   1249.3114              1261.5364              1272.1126
 Red. masses --      1.4118                 1.4059                 1.5339
 Frc consts  --      1.2983                 1.3182                 1.4625
 IR Inten    --      1.7875                 6.7949                 1.9669

                     34                     35                     36
                      A                      A                      A
 Frequencies --   1296.8130              1308.7241              1334.4234
 Red. masses --      1.5894                 1.3304                 1.6006
 Frc consts  --      1.5748                 1.3426                 1.6793
 IR Inten    --      3.8756                11.2315                 5.5307

                     37                     38                     39
                      A                      A                      A
 Frequencies --   1362.6239              1452.3365              1462.8511
 Red. masses --      1.4128                 1.6219                 1.1530
 Frc consts  --      1.5455                 2.0156                 1.4537
 IR Inten    --      6.7523                13.0756                 3.3275

                     40                     41                     42
                      A                      A                      A
 Frequencies --   1523.3828              1530.2602              3006.5198
 Red. masses --      1.1038                 1.3671                 1.0551
 Frc consts  --      1.5093                 1.8862                 5.6194
 IR Inten    --      1.1930                 3.3355                84.3434

                     43                     44                     45
                      A                      A                      A
 Frequencies --   3048.0626              3050.1128              3059.7422
 Red. masses --      1.0643                 1.1096                 1.0852
 Frc consts  --      5.8258                 6.0821                 5.9858
 IR Inten    --     22.8347                30.4048                16.1545

                     46                     47                     48
                      A                      A                      A
 Frequencies --   3070.3198              3078.0324              3082.4758
 Red. masses --      1.0878                 1.0747                 1.0628
 Frc consts  --      6.0417                 5.9990                 5.9498
 IR Inten    --     51.0050                45.0251                23.5856

                     49                     50                     51
                      A                      A                      A
 Frequencies --   3119.7228              3120.6359              3167.6198
 Red. masses --      1.0903                 1.1034                 1.1195
 Frc consts  --      6.2524                 6.3312                 6.6181
 IR Inten    --     26.2293                17.2746                28.2128

 - Thermochemistry -
 -------------------
 Temperature   298.150 Kelvin.  Pressure   1.00000 Atm.
 Atom     1 has atomic number  6 and mass  12.00000

 Molecular mass:   126.06808 amu.
 Principal axes and moments of inertia in atomic units:
                           1         2         3
     Eigenvalues --   413.875021795.468682002.85568
           X            0.99972  -0.02254   0.00718
           Y            0.02240   0.99958   0.01856
           Z           -0.00760  -0.01840   0.99980
 This molecule is an asymmetric top.
 Rotational symmetry number  1.
 Rotational temperatures (Kelvin)      0.20928     0.04824     0.04325
 Rotational constants (GHZ):           4.36059     1.00516     0.90108
 Zero-point vibrational energy     419062.9 (Joules/Mol)
                                  100.15845 (Kcal/Mol)
 Warning -- explicit consideration of   8 degrees of freedom as
           vibrations may cause significant error
 Vibrational temperatures:     96.18   105.37   236.59   321.67   436.10
          (Kelvin)            562.86   577.95   679.25   987.64  1115.25
                             1175.57  1188.41  1240.66  1273.62  1310.68
                             1345.44  1396.35  1413.41  1429.62  1480.41
                             1511.83  1531.85  1588.73  1614.98  1658.92
                             1664.19  1684.99  1695.57  1726.31  1774.05
                             1797.48  1815.07  1830.28  1865.82  1882.96
                             1919.94  1960.51  2089.59  2104.71  2191.81
                             2201.70  4325.71  4385.48  4388.43  4402.28
                             4417.50  4428.60  4434.99  4488.58  4489.89
                             4557.49

 Zero-point correction=                           0.159613 (Hartree/Particle)
 Thermal correction to Energy=                    0.167497
 Thermal correction to Enthalpy=                  0.168442
 Thermal correction to Gibbs Free Energy=         0.126307
 Sum of electronic and zero-point Energies=           -422.960841
 Sum of electronic and thermal Energies=              -422.952957
 Sum of electronic and thermal Enthalpies=            -422.952013
 Sum of electronic and thermal Free Energies=         -422.994147

                     E (Thermal)             CV                S
                      KCal/Mol        Cal/Mol-Kelvin    Cal/Mol-Kelvin
 Total                  105.106             29.698             88.679
 Electronic               0.000              0.000              0.000
 Translational            0.889              2.981             40.409
 Rotational               0.889              2.981             28.789
 Vibrational            103.329             23.737             19.482
 Vibration     1          0.598              1.970              4.244
 Vibration     2          0.599              1.967              4.064
 Vibration     3          0.623              1.886              2.498
 Vibration     4          0.649              1.805              1.930
 Vibration     5          0.695              1.668              1.400
 Vibration     6          0.759              1.489              0.996
 Vibration     7          0.767              1.466              0.956
 Vibration     8          0.829              1.312              0.732

 Normal termination of Gaussian 09 at Mon Jan 27 12:50:29 2020.
