 Gaussian 09, Revision D.01,
 Gaussian 09:  ES64L-G09RevD.01 24-Apr-2013

 -----------------------------
 # b3lyp 6-31G(2df,p) opt Freq
 -----------------------------

 -----
 titel
 -----
 Symbolic Z-matrix:
 Charge =  0 Multiplicity = 1

 SCF Done:  E(RB3LYP) =  -423.158130104     A.U. after   13 cycles
 Optimization completed.
    -- Stationary point found.
 Normal termination of Gaussian 09 at Tue Jan 28 03:30:35 2020.

 ----------------------------------------------------------------------
 #N Geom=AllCheck Guess=TCheck SCRF=Check GenChk RB3LYP/6-31G(2df,p) Fr
 eq
 ----------------------------------------------------------------------

 Structure from the checkpoint file:  "/scratch/puck/g09_9f877883-e175-4408-8d5b-1879131a8c9e/Gau-89357.chk"
 -----
 titel
 -----
 Charge =  0 Multiplicity = 1

                         Standard orientation:
 ---------------------------------------------------------------------
 Center     Atomic      Atomic             Coordinates (Angstroms)
 Number     Number       Type             X           Y           Z
 ---------------------------------------------------------------------
      1          8           0       -2.548969    0.607196    0.157707
      2          6           0       -1.418215   -0.234436    0.329561
      3          6           0       -0.893187   -0.852910   -1.001043
      4          6           0        0.632943   -0.752266   -0.897420
      5          6           0        1.167377   -1.529232    0.351918
      6          6           0        1.116326   -0.226877    1.148800
      7          6           0       -0.202607    0.518899    0.872739
      8          6           0        0.905289    0.580654   -0.121616
      9          8           0        1.437689    1.759777   -0.597996
     10          1           0       -2.279139    1.340392   -0.407097
     11          1           0       -1.761704   -1.007409    1.024100
     12          1           0       -1.246648   -1.876020   -1.161305
     13          1           0       -1.263712   -0.242720   -1.834238
     14          1           0        1.171355   -0.918962   -1.831028
     15          1           0        0.558276   -2.371568    0.698932
     16          1           0        2.195694   -1.874001    0.212055
     17          1           0        1.685128    0.010649    2.040460
     18          1           0       -0.376086    1.374860    1.515734
     19          1           0        2.359516    1.606002   -0.832926
 ---------------------------------------------------------------------

 SCF Done:  E(RB3LYP) =  -423.158130104     A.U. after    1 cycles

 The electronic state is 1-A.
 Alpha  occ. eigenvalues --  -19.15398 -19.12803 -10.23489 -10.22627 -10.19004
 Alpha  occ. eigenvalues --  -10.18979 -10.18543 -10.18277 -10.17693  -1.03837
 Alpha  occ. eigenvalues --   -1.01069  -0.90209  -0.75198  -0.72954  -0.65303
 Alpha  occ. eigenvalues --   -0.59977  -0.56454  -0.55821  -0.52697  -0.48100
 Alpha  occ. eigenvalues --   -0.46776  -0.44005  -0.41399  -0.40926  -0.39649
 Alpha  occ. eigenvalues --   -0.37985  -0.37478  -0.35947  -0.32819  -0.31361
 Alpha  occ. eigenvalues --   -0.30439  -0.26330  -0.25915  -0.23648
 Alpha virt. eigenvalues --    0.07341   0.08683   0.09611   0.10931   0.11884
 Alpha virt. eigenvalues --    0.14025   0.14704   0.15093   0.16100   0.18117
 Alpha virt. eigenvalues --    0.18774   0.18980   0.20111   0.21938   0.22838

 Mulliken charges:
               1
     1  O   -0.438304
     2  C    0.134528
     3  C   -0.248763
     4  C   -0.116263
     5  C   -0.231845
     6  C   -0.160211
     7  C   -0.121054
     8  C    0.361843
     9  O   -0.461403
    10  H    0.276572
    11  H    0.089121
    12  H    0.099832
    13  H    0.093975
    14  H    0.066244
    15  H    0.093225
    16  H    0.097003
    17  H    0.086263
    18  H    0.092910
    19  H    0.286328
 Sum of Mulliken charges =   0.00000

 Dipole moment (field-independent basis, Debye):
    X=              2.4406    Y=             -0.5659    Z=             -0.7261  Tot=              2.6084
 Quadrupole moment (field-independent basis, Debye-Ang):
   XX=            -53.9609   YY=            -53.5663   ZZ=            -51.8883
   XY=              0.2252   XZ=              0.5225   YZ=             -0.3687

  Exact polarizability:  78.651  -1.706  73.375   0.819  -0.297  69.522
 Approx polarizability: 111.086  -2.464 109.590  -1.281  -4.394 105.855

                      1                      2                      3
                      A                      A                      A
 Frequencies --    101.1858               203.6544               304.7041
 Red. masses --      4.0247                 2.8264                 1.8578
 Frc consts  --      0.0243                 0.0691                 0.1016
 IR Inten    --      1.0636                 1.6563                21.1386

                      4                      5                      6
                      A                      A                      A
 Frequencies --    316.4439               344.1118               378.7645
 Red. masses --      1.5012                 1.2227                 3.0014
 Frc consts  --      0.0886                 0.0853                 0.2537
 IR Inten    --     71.1204                 2.8259                63.7431

                      7                      8                      9
                      A                      A                      A
 Frequencies --    397.4091               425.8166               498.4587
 Red. masses --      3.0508                 2.5943                 2.8138
 Frc consts  --      0.2839                 0.2771                 0.4119
 IR Inten    --     31.7438                16.3569                 1.1228

                     10                     11                     12
                      A                      A                      A
 Frequencies --    596.5715               624.0361               689.6303
 Red. masses --      3.7091                 3.2991                 3.8782
 Frc consts  --      0.7778                 0.7569                 1.0867
 IR Inten    --     12.2717                 2.7350                 7.2290

                     13                     14                     15
                      A                      A                      A
 Frequencies --    760.9799               827.0103               856.5066
 Red. masses --      3.7529                 2.2844                 2.7019
 Frc consts  --      1.2804                 0.9205                 1.1678
 IR Inten    --      0.5533                 2.9545                 2.5910

                     16                     17                     18
                      A                      A                      A
 Frequencies --    876.7376               897.9874               929.7381
 Red. masses --      1.8061                 2.4594                 2.4072
 Frc consts  --      0.8180                 1.1685                 1.2260
 IR Inten    --      5.0989                 0.0559                20.6507

                     19                     20                     21
                      A                      A                      A
 Frequencies --    972.2367               999.7526              1021.6764
 Red. masses --      1.6339                 1.5813                 1.7059
 Frc consts  --      0.9100                 0.9312                 1.0491
 IR Inten    --      9.7551                 1.3160                 1.1891

                     22                     23                     24
                      A                      A                      A
 Frequencies --   1028.6993              1049.9350              1072.9955
 Red. masses --      2.1684                 1.6563                 2.9279
 Frc consts  --      1.3519                 1.0758                 1.9861
 IR Inten    --     12.4753                 1.7891                49.2205

                     25                     26                     27
                      A                      A                      A
 Frequencies --   1110.4956              1129.8873              1132.8428
 Red. masses --      2.1254                 1.3614                 1.3402
 Frc consts  --      1.5443                 1.0240                 1.0134
 IR Inten    --     53.1038                 3.4132                 4.5360

                     28                     29                     30
                      A                      A                      A
 Frequencies --   1149.0197              1210.3795              1222.4946
 Red. masses --      1.8645                 1.5077                 2.0354
 Frc consts  --      1.4503                 1.3014                 1.7923
 IR Inten    --     10.4493                10.2362                15.0065

                     31                     32                     33
                      A                      A                      A
 Frequencies --   1261.5223              1272.3904              1283.6084
 Red. masses --      1.9177                 1.4108                 1.6553
 Frc consts  --      1.7982                 1.3457                 1.6069
 IR Inten    --     70.5385                 0.9904                31.4414

                     34                     35                     36
                      A                      A                      A
 Frequencies --   1300.3699              1310.7771              1324.6041
 Red. masses --      1.5958                 1.4972                 1.5259
 Frc consts  --      1.5899                 1.5156                 1.5775
 IR Inten    --      1.1438                30.2372                43.1089

                     37                     38                     39
                      A                      A                      A
 Frequencies --   1343.4577              1437.3775              1474.5749
 Red. masses --      1.4533                 1.2210                 1.9342
 Frc consts  --      1.5454                 1.4863                 2.4780
 IR Inten    --     24.2033                61.6066                24.7312

                     40                     41                     42
                      A                      A                      A
 Frequencies --   1482.7605              1504.9109              3030.3190
 Red. masses --      1.3187                 1.2484                 1.0635
 Frc consts  --      1.7082                 1.6658                 5.7539
 IR Inten    --     13.5981                10.8056                32.7368

                     43                     44                     45
                      A                      A                      A
 Frequencies --   3035.4711              3058.5328              3086.3377
 Red. masses --      1.0605                 1.0860                 1.1018
 Frc consts  --      5.7570                 5.9855                 6.1837
 IR Inten    --     40.4977                22.5231                17.6458

                     46                     47                     48
                      A                      A                      A
 Frequencies --   3091.0887              3107.3646              3174.0028
 Red. masses --      1.1023                 1.0896                 1.0910
 Frc consts  --      6.2057                 6.1988                 6.4758
 IR Inten    --     43.3711                41.7752                10.4332

                     49                     50                     51
                      A                      A                      A
 Frequencies --   3185.0252              3791.8083              3792.7499
 Red. masses --      1.0914                 1.0660                 1.0658
 Frc consts  --      6.5232                 9.0305                 9.0334
 IR Inten    --     14.2327                20.2369                12.5194

 - Thermochemistry -
 -------------------
 Temperature   298.150 Kelvin.  Pressure   1.00000 Atm.
 Atom     1 has atomic number  8 and mass  15.99491

 Molecular mass:   126.06808 amu.
 Principal axes and moments of inertia in atomic units:
                           1         2         3
     Eigenvalues --   718.612081130.887611329.71211
           X            0.99976  -0.01676   0.01417
           Y            0.01639   0.99954   0.02545
           Z           -0.01459  -0.02521   0.99958
 This molecule is an asymmetric top.
 Rotational symmetry number  1.
 Warning -- assumption of classical behavior for rotation
           may cause significant error
 Rotational temperatures (Kelvin)      0.12053     0.07659     0.06514
 Rotational constants (GHZ):           2.51143     1.59586     1.35724
 Zero-point vibrational energy     421559.3 (Joules/Mol)
                                  100.75510 (Kcal/Mol)
 Warning -- explicit consideration of  10 degrees of freedom as
           vibrations may cause significant error
 Vibrational temperatures:    145.58   293.01   438.40   455.29   495.10
          (Kelvin)            544.96   571.78   612.65   717.17   858.33
                              897.85   992.22  1094.88  1189.88  1232.32
                             1261.43  1292.00  1337.68  1398.83  1438.42
                             1469.96  1480.07  1510.62  1543.80  1597.75
                             1625.65  1629.91  1653.18  1741.46  1758.89
                             1815.05  1830.68  1846.82  1870.94  1885.91
                             1905.81  1932.93  2068.06  2121.58  2133.36
                             2165.23  4359.95  4367.36  4400.54  4440.55
                             4447.38  4470.80  4566.68  4582.54  5455.56
                             5456.91

 Zero-point correction=                           0.160563 (Hartree/Particle)
 Thermal correction to Energy=                    0.168254
 Thermal correction to Enthalpy=                  0.169199
 Thermal correction to Gibbs Free Energy=         0.128753
 Sum of electronic and zero-point Energies=           -422.997567
 Sum of electronic and thermal Energies=              -422.989876
 Sum of electronic and thermal Enthalpies=            -422.988931
 Sum of electronic and thermal Free Energies=         -423.029378

                     E (Thermal)             CV                S
                      KCal/Mol        Cal/Mol-Kelvin    Cal/Mol-Kelvin
 Total                  105.581             31.446             85.126
 Electronic               0.000              0.000              0.000
 Translational            0.889              2.981             40.409
 Rotational               0.889              2.981             28.471
 Vibrational            103.804             25.484             16.247
 Vibration     1          0.604              1.948              3.431
 Vibration     2          0.639              1.835              2.100
 Vibration     3          0.696              1.665              1.391
 Vibration     4          0.703              1.642              1.328
 Vibration     5          0.723              1.587              1.193
 Vibration     6          0.749              1.515              1.044
 Vibration     7          0.764              1.476              0.972
 Vibration     8          0.788              1.414              0.872
 Vibration     9          0.854              1.253              0.662
 Vibration    10          0.954              1.039              0.456

 Normal termination of Gaussian 09 at Tue Jan 28 04:16:09 2020.
