 Gaussian 09, Revision D.01,
 Gaussian 09:  ES64L-G09RevD.01 24-Apr-2013

 -----------------------------
 # b3lyp 6-31G(2df,p) opt Freq
 -----------------------------

 -----
 titel
 -----
 Symbolic Z-matrix:
 Charge =  0 Multiplicity = 1

 SCF Done:  E(RB3LYP) =  -423.137770483     A.U. after   13 cycles
 Optimization completed.
    -- Stationary point found.
 Normal termination of Gaussian 09 at Mon Jan 27 23:07:02 2020.

 ----------------------------------------------------------------------
 #N Geom=AllCheck Guess=TCheck SCRF=Check GenChk RB3LYP/6-31G(2df,p) Fr
 eq
 ----------------------------------------------------------------------

 Structure from the checkpoint file:  "/scratch/puck/g09_4743018d-f093-45ef-a9df-9fd7cc929d52/Gau-18429.chk"
 -----
 titel
 -----
 Charge =  0 Multiplicity = 1

                         Standard orientation:
 ---------------------------------------------------------------------
 Center     Atomic      Atomic             Coordinates (Angstroms)
 Number     Number       Type             X           Y           Z
 ---------------------------------------------------------------------
      1          8           0       -0.681468    1.976087   -0.069034
      2          6           0       -0.650807    0.800896    0.694464
      3          6           0       -1.795266   -0.213190    0.552134
      4          6           0       -1.851942   -0.726899   -0.851127
      5          6           0       -0.792207   -1.280397    0.065894
      6          6           0        0.347977   -0.291075    0.181318
      7          6           0        1.668456   -0.575071    0.915708
      8          6           0        2.339102   -0.022533   -0.355948
      9          8           0        1.059654    0.091598   -1.026231
     10          1           0       -0.084492    1.812262   -0.814806
     11          1           0       -0.466802    1.052913    1.746237
     12          1           0       -2.614786   -0.332763    1.249489
     13          1           0       -2.667371   -1.408574   -1.068605
     14          1           0       -1.574161   -0.084234   -1.680563
     15          1           0       -0.733258   -2.333981    0.312202
     16          1           0        1.829271   -0.013204    1.837465
     17          1           0        1.856957   -1.634721    1.099898
     18          1           0        2.826462    0.952527   -0.243798
     19          1           0        3.010817   -0.702080   -0.890055
 ---------------------------------------------------------------------

 SCF Done:  E(RB3LYP) =  -423.137770483     A.U. after    1 cycles

 The electronic state is 1-A.
 Alpha  occ. eigenvalues --  -19.14400 -19.12318 -10.24133 -10.23831 -10.22693
 Alpha  occ. eigenvalues --  -10.19469 -10.19358 -10.19016 -10.18793  -1.04935
 Alpha  occ. eigenvalues --   -1.00649  -0.88783  -0.75378  -0.71206  -0.66193
 Alpha  occ. eigenvalues --   -0.60447  -0.56888  -0.54339  -0.51101  -0.50234
 Alpha  occ. eigenvalues --   -0.47977  -0.45989  -0.44023  -0.41239  -0.41071
 Alpha  occ. eigenvalues --   -0.38387  -0.37609  -0.34169  -0.32337  -0.32067
 Alpha  occ. eigenvalues --   -0.29632  -0.26925  -0.25364  -0.25236
 Alpha virt. eigenvalues --    0.06338   0.09513   0.09762   0.10460   0.11241
 Alpha virt. eigenvalues --    0.13351   0.14123   0.15767   0.16278   0.16798
 Alpha virt. eigenvalues --    0.17711   0.18897   0.19935   0.21438   0.22292

 Mulliken charges:
               1
     1  O   -0.448864
     2  C    0.060911
     3  C   -0.066090
     4  C   -0.293461
     5  C   -0.120490
     6  C    0.415620
     7  C   -0.374090
     8  C   -0.072933
     9  O   -0.326720
    10  H    0.290538
    11  H    0.073252
    12  H    0.086945
    13  H    0.114159
    14  H    0.123506
    15  H    0.083597
    16  H    0.116419
    17  H    0.115053
    18  H    0.110642
    19  H    0.112007
 Sum of Mulliken charges =   0.00000

 Dipole moment (field-independent basis, Debye):
    X=              1.2939    Y=             -1.9556    Z=              1.0877  Tot=              2.5849
 Quadrupole moment (field-independent basis, Debye-Ang):
   XX=            -49.0547   YY=            -55.9009   ZZ=            -52.9205
   XY=              3.0936   XZ=              0.5514   YZ=             -1.0114

  Exact polarizability:  86.270   1.877  70.271   0.043   0.522  67.107
 Approx polarizability: 112.613  -0.976 105.746  -1.849   0.364 104.232

                      1                      2                      3
                      A                      A                      A
 Frequencies --     88.5945                96.8724               235.8103
 Red. masses --      2.3471                 3.9617                 3.5953
 Frc consts  --      0.0109                 0.0219                 0.1178
 IR Inten    --      1.0987                 2.2286                 7.5549

                      4                      5                      6
                      A                      A                      A
 Frequencies --    248.6093               273.8278               430.2766
 Red. masses --      2.9493                 3.7868                 3.8240
 Frc consts  --      0.1074                 0.1673                 0.4171
 IR Inten    --      2.7930                 3.7506                 2.6252

                      7                      8                      9
                      A                      A                      A
 Frequencies --    446.8253               491.4105               556.8481
 Red. masses --      1.4878                 1.7564                 3.9378
 Frc consts  --      0.1750                 0.2499                 0.7194
 IR Inten    --     30.6964                19.6604                 9.6893

                     10                     11                     12
                      A                      A                      A
 Frequencies --    613.1968               754.4491               774.4581
 Red. masses --      3.5351                 2.7074                 1.3047
 Frc consts  --      0.7832                 0.9079                 0.4611
 IR Inten    --      1.4463                 4.4606                 3.7684

                     13                     14                     15
                      A                      A                      A
 Frequencies --    787.5424               837.2184               863.7730
 Red. masses --      2.0808                 1.9871                 3.5670
 Frc consts  --      0.7604                 0.8206                 1.5680
 IR Inten    --     16.1447                14.5853                25.3058

                     16                     17                     18
                      A                      A                      A
 Frequencies --    909.8777               932.5553               970.5389
 Red. masses --      1.8056                 2.2049                 2.0949
 Frc consts  --      0.8807                 1.1298                 1.1626
 IR Inten    --      7.2196                 3.0211                 8.8064

                     19                     20                     21
                      A                      A                      A
 Frequencies --    983.2621               990.9270              1006.5422
 Red. masses --      1.8722                 4.0319                 2.2292
 Frc consts  --      1.0665                 2.3326                 1.3306
 IR Inten    --     21.7623                25.0166                77.4889

                     22                     23                     24
                      A                      A                      A
 Frequencies --   1016.6835              1054.2678              1080.8701
 Red. masses --      1.9387                 1.2054                 1.3774
 Frc consts  --      1.1807                 0.7894                 0.9481
 IR Inten    --     41.9252                 2.4675                 4.2480

                     25                     26                     27
                      A                      A                      A
 Frequencies --   1099.8636              1130.4338              1151.1892
 Red. masses --      2.9437                 3.1142                 1.7440
 Frc consts  --      2.0981                 2.3447                 1.3617
 IR Inten    --     20.6861               109.5592                10.6636

                     28                     29                     30
                      A                      A                      A
 Frequencies --   1161.0196              1190.7309              1210.0833
 Red. masses --      1.4207                 1.7183                 1.6587
 Frc consts  --      1.1283                 1.4354                 1.4311
 IR Inten    --      1.0263                 0.4670                13.4887

                     31                     32                     33
                      A                      A                      A
 Frequencies --   1221.7048              1226.2576              1263.6349
 Red. masses --      1.8136                 1.3754                 1.5649
 Frc consts  --      1.5948                 1.2185                 1.4723
 IR Inten    --      2.7948                 5.8748                 8.8828

                     34                     35                     36
                      A                      A                      A
 Frequencies --   1320.3770              1346.5596              1350.2671
 Red. masses --      2.1591                 1.4648                 1.8378
 Frc consts  --      2.2178                 1.5648                 1.9742
 IR Inten    --      6.1288                 4.3876                26.7692

                     37                     38                     39
                      A                      A                      A
 Frequencies --   1374.0930              1427.4174              1485.7924
 Red. masses --      1.7317                 1.2661                 1.1068
 Frc consts  --      1.9264                 1.5200                 1.4395
 IR Inten    --      6.6189                88.4213                 3.6510

                     40                     41                     42
                      A                      A                      A
 Frequencies --   1496.0297              1528.3183              3026.5613
 Red. masses --      1.1973                 1.1104                 1.0856
 Frc consts  --      1.5788                 1.5282                 5.8590
 IR Inten    --      3.9113                 0.8717                43.3219

                     43                     44                     45
                      A                      A                      A
 Frequencies --   3032.1966              3073.8562              3079.7739
 Red. masses --      1.0565                 1.0647                 1.1047
 Frc consts  --      5.7233                 5.9269                 6.1733
 IR Inten    --     77.1132                23.1026                28.5338

                     46                     47                     48
                      A                      A                      A
 Frequencies --   3129.8469              3130.2721              3178.5151
 Red. masses --      1.1065                 1.0560                 1.0908
 Frc consts  --      6.3862                 6.0965                 6.4927
 IR Inten    --     17.0355                17.8181                16.7614

                     49                     50                     51
                      A                      A                      A
 Frequencies --   3193.2302              3214.7452              3706.5124
 Red. masses --      1.0980                 1.1139                 1.0654
 Frc consts  --      6.5963                 6.7825                 8.6236
 IR Inten    --     13.1542                 9.7479                62.9248

 - Thermochemistry -
 -------------------
 Temperature   298.150 Kelvin.  Pressure   1.00000 Atm.
 Atom     1 has atomic number  8 and mass  15.99491

 Molecular mass:   126.06808 amu.
 Principal axes and moments of inertia in atomic units:
                           1         2         3
     Eigenvalues --   641.920831148.915891348.71999
           X            0.99959   0.02336   0.01639
           Y           -0.02320   0.99968  -0.00965
           Z           -0.01661   0.00926   0.99982
 This molecule is an asymmetric top.
 Rotational symmetry number  1.
 Warning -- assumption of classical behavior for rotation
           may cause significant error
 Rotational temperatures (Kelvin)      0.13493     0.07539     0.06422
 Rotational constants (GHZ):           2.81147     1.57082     1.33811
 Zero-point vibrational energy     419856.5 (Joules/Mol)
                                  100.34810 (Kcal/Mol)
 Warning -- explicit consideration of  10 degrees of freedom as
           vibrations may cause significant error
 Vibrational temperatures:    127.47   139.38   339.28   357.69   393.98
          (Kelvin)            619.07   642.88   707.03   801.18   882.25
                             1085.48  1114.27  1133.10  1204.57  1242.78
                             1309.11  1341.74  1396.39  1414.69  1425.72
                             1448.19  1462.78  1516.85  1555.13  1582.46
                             1626.44  1656.30  1670.45  1713.19  1741.04
                             1757.76  1764.31  1818.09  1899.73  1937.40
                             1942.73  1977.01  2053.73  2137.72  2152.45
                             2198.91  4354.54  4362.65  4422.59  4431.10
                             4503.15  4503.76  4573.17  4594.34  4625.30
                             5332.84

 Zero-point correction=                           0.159915 (Hartree/Particle)
 Thermal correction to Energy=                    0.167769
 Thermal correction to Enthalpy=                  0.168713
 Thermal correction to Gibbs Free Energy=         0.127418
 Sum of electronic and zero-point Energies=           -422.977856
 Sum of electronic and thermal Energies=              -422.970002
 Sum of electronic and thermal Enthalpies=            -422.969057
 Sum of electronic and thermal Free Energies=         -423.010353

                     E (Thermal)             CV                S
                      KCal/Mol        Cal/Mol-Kelvin    Cal/Mol-Kelvin
 Total                  105.277             30.822             86.913
 Electronic               0.000              0.000              0.000
 Translational            0.889              2.981             40.409
 Rotational               0.889              2.981             28.388
 Vibrational            103.499             24.861             18.116
 Vibration     1          0.601              1.957              3.691
 Vibration     2          0.603              1.951              3.516
 Vibration     3          0.655              1.786              1.834
 Vibration     4          0.662              1.765              1.740
 Vibration     5          0.676              1.722              1.572
 Vibration     6          0.791              1.404              0.858
 Vibration     7          0.806              1.368              0.805
 Vibration     8          0.847              1.269              0.680
 Vibration     9          0.912              1.125              0.530
 Vibration    10          0.973              1.004              0.428

 Optimization completed.
    -- Stationary point found.
 Normal termination of Gaussian 09 at Mon Jan 27 23:55:18 2020.
