 Gaussian 09, Revision D.01,
 Gaussian 09:  ES64L-G09RevD.01 24-Apr-2013

 -----------------------------
 # b3lyp 6-31G(2df,p) opt Freq
 -----------------------------

 -----
 titel
 -----
 Symbolic Z-matrix:
 Charge =  0 Multiplicity = 1

 SCF Done:  E(RB3LYP) =  -423.121662921     A.U. after   13 cycles
 Optimization completed.
    -- Stationary point found.
 Normal termination of Gaussian 09 at Mon Jan 27 18:12:37 2020.

 ----------------------------------------------------------------------
 #N Geom=AllCheck Guess=TCheck SCRF=Check GenChk RB3LYP/6-31G(2df,p) Fr
 eq
 ----------------------------------------------------------------------

 Structure from the checkpoint file:  "/scratch/puck/g09_e6d08bca-28a0-40ab-942c-3e7d790d889c/Gau-42175.chk"
 -----
 titel
 -----
 Charge =  0 Multiplicity = 1

                         Standard orientation:
 ---------------------------------------------------------------------
 Center     Atomic      Atomic             Coordinates (Angstroms)
 Number     Number       Type             X           Y           Z
 ---------------------------------------------------------------------
      1          6           0       -1.125922    1.923645   -0.423144
      2          6           0       -0.098041    0.834743   -0.345476
      3          6           0        1.326814    0.835753   -0.905494
      4          6           0        1.530953   -0.473993   -0.108193
      5          8           0        0.661445   -1.418826   -0.785015
      6          6           0       -0.448378   -0.695891   -0.243488
      7          6           0       -1.809330   -1.296825   -0.327133
      8          6           0        0.325918   -0.038004    0.841500
      9          8           0        0.103829    0.016899    2.191641
     10          1           0       -0.719771    2.881711   -0.077021
     11          1           0       -1.477697    2.069062   -1.451135
     12          1           0       -1.999649    1.697547    0.196996
     13          1           0        1.471252    0.757194   -1.987918
     14          1           0        1.914827    1.665795   -0.500825
     15          1           0        2.507667   -0.879994    0.146737
     16          1           0       -2.542762   -0.664612    0.179828
     17          1           0       -2.119578   -1.413156   -1.371072
     18          1           0       -1.823525   -2.282727    0.147508
     19          1           0        0.454958    0.848026    2.532469
 ---------------------------------------------------------------------

 SCF Done:  E(RB3LYP) =  -423.121662921     A.U. after    1 cycles

 The electronic state is 1-A.
 Alpha  occ. eigenvalues --  -19.16240 -19.12851 -10.23367 -10.23329 -10.23319
 Alpha  occ. eigenvalues --  -10.19378 -10.18478 -10.18261 -10.18180  -1.06156
 Alpha  occ. eigenvalues --   -1.03534  -0.84994  -0.75846  -0.72107  -0.68819
 Alpha  occ. eigenvalues --   -0.62254  -0.56952  -0.51671  -0.50331  -0.47722
 Alpha  occ. eigenvalues --   -0.45731  -0.44331  -0.41327  -0.40664  -0.40103
 Alpha  occ. eigenvalues --   -0.39741  -0.39137  -0.36721  -0.35755  -0.33714
 Alpha  occ. eigenvalues --   -0.32250  -0.26013  -0.23713  -0.22240
 Alpha virt. eigenvalues --    0.06057   0.09420   0.09885   0.10862   0.13406
 Alpha virt. eigenvalues --    0.14186   0.14314   0.15337   0.16033   0.16834
 Alpha virt. eigenvalues --    0.17900   0.18352   0.20186   0.21757   0.22698

 Mulliken charges:
               1
     1  C   -0.510605
     2  C    0.155330
     3  C   -0.279190
     4  C   -0.007736
     5  O   -0.319735
     6  C    0.372767
     7  C   -0.512102
     8  C    0.220905
     9  O   -0.449125
    10  H    0.115609
    11  H    0.126756
    12  H    0.124177
    13  H    0.098225
    14  H    0.090774
    15  H    0.085381
    16  H    0.130211
    17  H    0.130730
    18  H    0.136602
    19  H    0.291028
 Sum of Mulliken charges =   0.00000

 Dipole moment (field-independent basis, Debye):
    X=             -0.0445    Y=              2.4386    Z=              0.6711  Tot=              2.5296
 Quadrupole moment (field-independent basis, Debye-Ang):
   XX=            -49.5584   YY=            -53.8104   ZZ=            -53.9832
   XY=              2.1620   XZ=              2.6130   YZ=              1.8090

  Exact polarizability:  79.330   1.880  76.897   0.476  -0.211  70.503
 Approx polarizability: 109.784   1.835 112.743   0.859   2.068 109.101

                      1                      2                      3
                      A                      A                      A
 Frequencies --    143.2080               157.2553               171.5017
 Red. masses --      1.3484                 1.5973                 1.4554
 Frc consts  --      0.0163                 0.0233                 0.0252
 IR Inten    --      1.0334                 1.6629                 0.2134

                      4                      5                      6
                      A                      A                      A
 Frequencies --    179.2301               244.4273               275.8861
 Red. masses --      2.0607                 2.3881                 2.5121
 Frc consts  --      0.0390                 0.0841                 0.1127
 IR Inten    --      2.1312                 0.2388                 5.4696

                      7                      8                      9
                      A                      A                      A
 Frequencies --    323.5103               365.9762               389.9540
 Red. masses --      1.3119                 2.7215                 2.7385
 Frc consts  --      0.0809                 0.2148                 0.2453
 IR Inten    --     77.3072                 1.0844                24.8432

                     10                     11                     12
                      A                      A                      A
 Frequencies --    484.4589               564.9619               604.9683
 Red. masses --      2.9957                 3.3992                 4.0485
 Frc consts  --      0.4143                 0.6392                 0.8730
 IR Inten    --      1.5040                 0.6650                 1.5837

                     13                     14                     15
                      A                      A                      A
 Frequencies --    647.0397               673.7174               739.2831
 Red. masses --      3.5583                 4.8874                 4.5157
 Frc consts  --      0.8777                 1.3070                 1.4541
 IR Inten    --      5.3072                10.9588                 3.0318

                     16                     17                     18
                      A                      A                      A
 Frequencies --    827.9202               859.4219               904.2237
 Red. masses --      4.4804                 2.9067                 2.0413
 Frc consts  --      1.8094                 1.2649                 0.9834
 IR Inten    --     14.8422                 4.4951                 7.6830

                     19                     20                     21
                      A                      A                      A
 Frequencies --    921.4044               941.7304               981.3216
 Red. masses --      1.9892                 3.6119                 1.9180
 Frc consts  --      0.9950                 1.8873                 1.0882
 IR Inten    --      9.4979                37.2396                 6.9703

                     22                     23                     24
                      A                      A                      A
 Frequencies --   1024.8417              1076.0918              1095.3917
 Red. masses --      1.8321                 1.5342                 1.6044
 Frc consts  --      1.1337                 1.0467                 1.1343
 IR Inten    --      4.5856                10.7937                13.2236

                     25                     26                     27
                      A                      A                      A
 Frequencies --   1127.7511              1146.4442              1159.9020
 Red. masses --      1.8675                 1.6496                 2.1551
 Frc consts  --      1.3994                 1.2774                 1.7083
 IR Inten    --     14.8908                 5.3921                 8.0133

                     28                     29                     30
                      A                      A                      A
 Frequencies --   1199.4691              1235.7520              1275.6301
 Red. masses --      2.0624                 1.9009                 1.4804
 Frc consts  --      1.7482                 1.7103                 1.4193
 IR Inten    --     53.0152                 1.5061                78.9613

                     31                     32                     33
                      A                      A                      A
 Frequencies --   1283.4988              1320.6699              1364.2535
 Red. masses --      1.7962                 3.1854                 2.5578
 Frc consts  --      1.7434                 3.2734                 2.8049
 IR Inten    --     63.0433                11.6810                15.9777

                     34                     35                     36
                      A                      A                      A
 Frequencies --   1412.0250              1420.4139              1469.8177
 Red. masses --      1.5039                 1.3047                 1.0550
 Frc consts  --      1.7667                 1.5510                 1.3428
 IR Inten    --      4.4902                 2.8324                 2.2089

                     37                     38                     39
                      A                      A                      A
 Frequencies --   1485.3795              1488.0785              1492.0079
 Red. masses --      1.1857                 1.0768                 1.1438
 Frc consts  --      1.5414                 1.4048                 1.5002
 IR Inten    --      0.7591                 6.3562                 0.9829

                     40                     41                     42
                      A                      A                      A
 Frequencies --   1496.0875              1537.7675              3020.1064
 Red. masses --      1.1257                 2.7508                 1.0361
 Frc consts  --      1.4845                 3.8326                 5.5678
 IR Inten    --      1.0169                29.7157                38.3711

                     43                     44                     45
                      A                      A                      A
 Frequencies --   3038.4527              3040.1887              3075.5192
 Red. masses --      1.0386                 1.0534                 1.1004
 Frc consts  --      5.6496                 5.7362                 6.1325
 IR Inten    --     39.5882                29.7584                22.4457

                     46                     47                     48
                      A                      A                      A
 Frequencies --   3092.8080              3097.2176              3102.1347
 Red. masses --      1.0996                 1.1086                 1.1011
 Frc consts  --      6.1972                 6.2656                 6.2431
 IR Inten    --     18.2020                28.1715                16.6853

                     49                     50                     51
                      A                      A                      A
 Frequencies --   3123.2243              3144.1200              3775.2350
 Red. masses --      1.0993                 1.0928                 1.0662
 Frc consts  --      6.3179                 6.3649                 8.9532
 IR Inten    --     14.7289                37.8766                17.3479

 - Thermochemistry -
 -------------------
 Temperature   298.150 Kelvin.  Pressure   1.00000 Atm.
 Atom     1 has atomic number  6 and mass  12.00000

 Molecular mass:   126.06808 amu.
 Principal axes and moments of inertia in atomic units:
                           1         2         3
     Eigenvalues --   970.01089 990.711521065.73774
           X           -0.57492   0.81556   0.06587
           Y            0.81312   0.57845  -0.06502
           Z            0.09113  -0.01617   0.99571
 This molecule is an asymmetric top.
 Rotational symmetry number  1.
 Warning -- assumption of classical behavior for rotation
           may cause significant error
 Rotational temperatures (Kelvin)      0.08929     0.08743     0.08127
 Rotational constants (GHZ):           1.86054     1.82166     1.69342
 Zero-point vibrational energy     412841.3 (Joules/Mol)
                                   98.67145 (Kcal/Mol)
 Warning -- explicit consideration of  12 degrees of freedom as
           vibrations may cause significant error
 Vibrational temperatures:    206.04   226.26   246.75   257.87   351.68
          (Kelvin)            396.94   465.46   526.56   561.06   697.03
                              812.85   870.41   930.94   969.33  1063.66
                             1191.19  1236.51  1300.97  1325.69  1354.94
                             1411.90  1474.52  1548.25  1576.02  1622.58
                             1649.48  1668.84  1725.77  1777.97  1835.34
                             1846.67  1900.15  1962.85  2031.59  2043.66
                             2114.74  2137.13  2141.01  2146.66  2152.53
                             2212.50  4345.25  4371.65  4374.15  4424.98
                             4449.86  4456.20  4463.27  4493.62  4523.68
                             5431.71

 Zero-point correction=                           0.157243 (Hartree/Particle)
 Thermal correction to Energy=                    0.166083
 Thermal correction to Enthalpy=                  0.167028
 Thermal correction to Gibbs Free Energy=         0.124375
 Sum of electronic and zero-point Energies=           -422.964420
 Sum of electronic and thermal Energies=              -422.955580
 Sum of electronic and thermal Enthalpies=            -422.954635
 Sum of electronic and thermal Free Energies=         -422.997288

                     E (Thermal)             CV                S
                      KCal/Mol        Cal/Mol-Kelvin    Cal/Mol-Kelvin
 Total                  104.219             33.911             89.769
 Electronic               0.000              0.000              0.000
 Translational            0.889              2.981             40.409
 Rotational               0.889              2.981             28.417
 Vibrational            102.441             27.949             20.943
 Vibration     1          0.616              1.910              2.761
 Vibration     2          0.621              1.895              2.583
 Vibration     3          0.626              1.878              2.419
 Vibration     4          0.629              1.868              2.336
 Vibration     5          0.660              1.772              1.770
 Vibration     6          0.678              1.718              1.559
 Vibration     7          0.708              1.628              1.292
 Vibration     8          0.739              1.542              1.097
 Vibration     9          0.758              1.492              1.000
 Vibration    10          0.841              1.285              0.698
 Vibration    11          0.921              1.107              0.514
 Vibration    12          0.964              1.021              0.441

 Normal termination of Gaussian 09 at Mon Jan 27 19:01:17 2020.
