 Gaussian 09, Revision D.01,
 Gaussian 09:  ES64L-G09RevD.01 24-Apr-2013

 -----------------------------
 # b3lyp 6-31G(2df,p) opt Freq
 -----------------------------

 -----
 titel
 -----
 Symbolic Z-matrix:
 Charge =  0 Multiplicity = 1

 SCF Done:  E(RB3LYP) =  -423.179518114     A.U. after   14 cycles
 SCF Done:  E(RB3LYP) =  -423.179517432     A.U. after    7 cycles
 SCF Done:  E(RB3LYP) =  -423.179518161     A.U. after    7 cycles
 Optimization completed.
    -- Stationary point found.
 Normal termination of Gaussian 09 at Mon Jan 27 14:23:40 2020.

 ----------------------------------------------------------------------
 #N Geom=AllCheck Guess=TCheck SCRF=Check GenChk RB3LYP/6-31G(2df,p) Fr
 eq
 ----------------------------------------------------------------------

 Structure from the checkpoint file:  "/scratch/puck/g09_d92ef7f0-d91a-4b2f-a17a-80c02f109ba9/Gau-3680.chk"
 -----
 titel
 -----
 Charge =  0 Multiplicity = 1

                         Standard orientation:
 ---------------------------------------------------------------------
 Center     Atomic      Atomic             Coordinates (Angstroms)
 Number     Number       Type             X           Y           Z
 ---------------------------------------------------------------------
      1          8           0       -2.755084    0.926512    0.256230
      2          6           0       -2.581761   -0.123833   -0.308919
      3          6           0       -1.307364   -0.934029   -0.266841
      4          6           0       -0.171365   -0.323067    0.562233
      5          6           0        1.062628   -1.258452    0.631521
      6          8           0        1.915475   -0.902483   -0.456202
      7          6           0        1.694073    0.456266   -0.742513
      8          6           0        1.732923    1.447236    0.390720
      9          6           0        0.404846    0.913368   -0.120422
     10          1           0       -3.395503   -0.584594   -0.915740
     11          1           0       -1.585210   -1.927818    0.116477
     12          1           0       -0.988392   -1.112690   -1.304367
     13          1           0       -0.545467   -0.104147    1.566869
     14          1           0        1.588892   -1.129946    1.587041
     15          1           0        0.813933   -2.318854    0.527108
     16          1           0        2.029648    0.720030   -1.738110
     17          1           0        2.102702    1.133024    1.360931
     18          1           0        1.969824    2.475376    0.139251
     19          1           0       -0.277442    1.592451   -0.614359
 ---------------------------------------------------------------------

 SCF Done:  E(RB3LYP) =  -423.179518161     A.U. after    1 cycles

 The electronic state is 1-A.
 Alpha  occ. eigenvalues --  -19.14484 -19.14179 -10.27679 -10.23223 -10.23046
 Alpha  occ. eigenvalues --  -10.20134 -10.20012 -10.18877 -10.18361  -1.05140
 Alpha  occ. eigenvalues --   -1.04306  -0.84850  -0.79847  -0.72063  -0.64574
 Alpha  occ. eigenvalues --   -0.58569  -0.57412  -0.55972  -0.51797  -0.48883
 Alpha  occ. eigenvalues --   -0.47052  -0.46662  -0.43248  -0.42186  -0.41351
 Alpha  occ. eigenvalues --   -0.40028  -0.38639  -0.37218  -0.34113  -0.32972
 Alpha  occ. eigenvalues --   -0.32705  -0.28224  -0.25616  -0.23160
 Alpha virt. eigenvalues --   -0.02310   0.08997   0.09402   0.10224   0.11986
 Alpha virt. eigenvalues --    0.13295   0.13902   0.14354   0.16152   0.16498
 Alpha virt. eigenvalues --    0.17491   0.18156   0.19257   0.21896   0.22580

 Mulliken charges:
               1
     1  O   -0.237631
     2  C    0.152059
     3  C   -0.304782
     4  C   -0.011186
     5  C   -0.123693
     6  O   -0.258717
     7  C    0.122541
     8  C   -0.347532
     9  C   -0.062461
    10  H    0.080304
    11  H    0.122704
    12  H    0.136204
    13  H    0.092857
    14  H    0.099465
    15  H    0.105083
    16  H    0.099609
    17  H    0.116780
    18  H    0.115610
    19  H    0.102786
 Sum of Mulliken charges =   0.00000

 Dipole moment (field-independent basis, Debye):
    X=             -0.2133    Y=             -1.2719    Z=             -0.3616  Tot=              1.3394
 Quadrupole moment (field-independent basis, Debye-Ang):
   XX=            -59.4767   YY=            -52.8941   ZZ=            -51.0215
   XY=              8.4683   XZ=              3.6974   YZ=             -2.8580

  Exact polarizability:  81.659   3.978  77.160   2.749   1.230  64.935
 Approx polarizability: 106.448  -0.639 118.181  -0.659   7.474 102.528

                      1                      2                      3
                      A                      A                      A
 Frequencies --     62.9512               108.4771               149.0162
 Red. masses --      5.0829                 3.8968                 3.3789
 Frc consts  --      0.0119                 0.0270                 0.0442
 IR Inten    --      5.8555                 7.1079                 3.8412

                      4                      5                      6
                      A                      A                      A
 Frequencies --    194.7096               252.8150               337.3273
 Red. masses --      2.3907                 2.8869                 2.7360
 Frc consts  --      0.0534                 0.1087                 0.1834
 IR Inten    --      1.6283                 1.1137                 5.9418

                      7                      8                      9
                      A                      A                      A
 Frequencies --    371.7861               466.8337               639.0974
 Red. masses --      2.4836                 2.4676                 2.2533
 Frc consts  --      0.2023                 0.3168                 0.5422
 IR Inten    --      2.7629                 0.3748                 4.4203

                     10                     11                     12
                      A                      A                      A
 Frequencies --    677.7662               729.5436               744.0616
 Red. masses --      3.7340                 2.2242                 2.6814
 Frc consts  --      1.0106                 0.6975                 0.8746
 IR Inten    --      7.9784                 7.9247                 6.6796

                     13                     14                     15
                      A                      A                      A
 Frequencies --    799.5755               817.7069               853.4482
 Red. masses --      2.0609                 1.6899                 2.9220
 Frc consts  --      0.7763                 0.6658                 1.2540
 IR Inten    --     14.9824                 5.3082                 9.2071

                     16                     17                     18
                      A                      A                      A
 Frequencies --    897.6509               935.3362               963.6068
 Red. masses --      2.1943                 2.3367                 2.2881
 Frc consts  --      1.0418                 1.2044                 1.2518
 IR Inten    --      7.7849                 8.6571                26.0041

                     19                     20                     21
                      A                      A                      A
 Frequencies --    979.1129               989.6414              1017.7252
 Red. masses --      2.0764                 1.6692                 1.6998
 Frc consts  --      1.1728                 0.9632                 1.0373
 IR Inten    --      6.8830                 3.4876                19.2564

                     22                     23                     24
                      A                      A                      A
 Frequencies --   1051.8787              1063.4934              1097.5255
 Red. masses --      1.7207                 1.8225                 1.3084
 Frc consts  --      1.1217                 1.2145                 0.9286
 IR Inten    --      5.2400                 8.4578                 0.4080

                     25                     26                     27
                      A                      A                      A
 Frequencies --   1120.7837              1140.2584              1163.3047
 Red. masses --      1.7142                 2.1915                 3.0626
 Frc consts  --      1.2687                 1.6788                 2.4419
 IR Inten    --      3.0098                 4.9905                66.4403

                     28                     29                     30
                      A                      A                      A
 Frequencies --   1204.5835              1218.7444              1245.9763
 Red. masses --      1.5792                 1.3618                 1.1756
 Frc consts  --      1.3501                 1.1917                 1.0753
 IR Inten    --      4.9474                 1.5527                 4.5936

                     31                     32                     33
                      A                      A                      A
 Frequencies --   1261.1037              1310.8450              1333.1918
 Red. masses --      1.7051                 1.2743                 1.5156
 Frc consts  --      1.5977                 1.2901                 1.5872
 IR Inten    --     13.3146                 0.7097                 4.2458

                     34                     35                     36
                      A                      A                      A
 Frequencies --   1362.4099              1391.8708              1403.3087
 Red. masses --      1.5923                 1.7575                 1.4451
 Frc consts  --      1.7413                 2.0061                 1.6767
 IR Inten    --      4.4580                 8.3598                13.9189

                     37                     38                     39
                      A                      A                      A
 Frequencies --   1422.3317              1442.7155              1480.2218
 Red. masses --      1.1503                 1.1317                 1.2763
 Frc consts  --      1.3711                 1.3879                 1.6476
 IR Inten    --     12.9363                13.5840                 8.1194

                     40                     41                     42
                      A                      A                      A
 Frequencies --   1526.8534              1827.9409              2863.6485
 Red. masses --      1.0882                 9.9587                 1.0826
 Frc consts  --      1.4947                19.6054                 5.2305
 IR Inten    --      1.4205               127.2152               153.8302

                     43                     44                     45
                      A                      A                      A
 Frequencies --   3003.7336              3007.4532              3033.5943
 Red. masses --      1.0628                 1.0690                 1.0950
 Frc consts  --      5.6495                 5.6966                 5.9370
 IR Inten    --     27.6325                43.4946                 2.5714

                     46                     47                     48
                      A                      A                      A
 Frequencies --   3069.2207              3078.2555              3133.4721
 Red. masses --      1.0848                 1.0970                 1.0543
 Frc consts  --      6.0211                 6.1243                 6.0989
 IR Inten    --     28.4837                33.1221                12.0063

                     49                     50                     51
                      A                      A                      A
 Frequencies --   3186.4580              3200.3632              3219.0799
 Red. masses --      1.0912                 1.0955                 1.1133
 Frc consts  --      6.5278                 6.6108                 6.7972
 IR Inten    --     14.9551                 2.9718                11.7415

 - Thermochemistry -
 -------------------
 Temperature   298.150 Kelvin.  Pressure   1.00000 Atm.
 Atom     1 has atomic number  8 and mass  15.99491

 Molecular mass:   126.06808 amu.
 Principal axes and moments of inertia in atomic units:
                           1         2         3
     Eigenvalues --   550.460961554.439661843.34552
           X            0.99913   0.03839   0.01614
           Y           -0.03807   0.99909  -0.01940
           Z           -0.01687   0.01877   0.99968
 This molecule is an asymmetric top.
 Rotational symmetry number  1.
 Warning -- assumption of classical behavior for rotation
           may cause significant error
 Rotational temperatures (Kelvin)      0.15735     0.05572     0.04699
 Rotational constants (GHZ):           3.27860     1.16102     0.97906
 Zero-point vibrational energy     417812.6 (Joules/Mol)
                                   99.85960 (Kcal/Mol)
 Warning -- explicit consideration of   8 degrees of freedom as
           vibrations may cause significant error
 Vibrational temperatures:     90.57   156.07   214.40   280.14   363.74
          (Kelvin)            485.34   534.92   671.67   919.52   975.15
                             1049.65  1070.54  1150.41  1176.50  1227.92
                             1291.52  1345.74  1386.41  1408.72  1423.87
                             1464.28  1513.42  1530.13  1579.09  1612.56
                             1640.58  1673.73  1733.12  1753.50  1792.68
                             1814.44  1886.01  1918.16  1960.20  2002.59
                             2019.05  2046.42  2075.74  2129.71  2196.80
                             2630.00  4120.15  4321.70  4327.05  4364.66
                             4415.92  4428.92  4508.36  4584.60  4604.60
                             4631.53

 Zero-point correction=                           0.159136 (Hartree/Particle)
 Thermal correction to Energy=                    0.167362
 Thermal correction to Enthalpy=                  0.168307
 Thermal correction to Gibbs Free Energy=         0.125691
 Sum of electronic and zero-point Energies=           -423.020382
 Sum of electronic and thermal Energies=              -423.012156
 Sum of electronic and thermal Enthalpies=            -423.011212
 Sum of electronic and thermal Free Energies=         -423.053827

                     E (Thermal)             CV                S
                      KCal/Mol        Cal/Mol-Kelvin    Cal/Mol-Kelvin
 Total                  105.022             30.916             89.692
 Electronic               0.000              0.000              0.000
 Translational            0.889              2.981             40.409
 Rotational               0.889              2.981             28.846
 Vibrational            103.244             24.955             20.437
 Vibration     1          0.597              1.972              4.362
 Vibration     2          0.606              1.942              3.296
 Vibration     3          0.618              1.904              2.685
 Vibration     4          0.635              1.847              2.183
 Vibration     5          0.664              1.758              1.711
 Vibration     6          0.718              1.601              1.225
 Vibration     7          0.743              1.530              1.072
 Vibration     8          0.824              1.324              0.746

 Optimization completed.
    -- Stationary point found.
 Normal termination of Gaussian 09 at Mon Jan 27 16:13:08 2020.
