 Gaussian 09, Revision D.01,
 Gaussian 09:  ES64L-G09RevD.01 24-Apr-2013

 -----------------------------
 # b3lyp 6-31G(2df,p) opt Freq
 -----------------------------

 -----
 titel
 -----
 Symbolic Z-matrix:
 Charge =  0 Multiplicity = 1

 SCF Done:  E(RB3LYP) =  -423.168970101     A.U. after   14 cycles
 Optimization completed.
    -- Stationary point found.
 Normal termination of Gaussian 09 at Tue Jan 28 14:13:35 2020.

 ----------------------------------------------------------------------
 #N Geom=AllCheck Guess=TCheck SCRF=Check GenChk RB3LYP/6-31G(2df,p) Fr
 eq
 ----------------------------------------------------------------------

 Structure from the checkpoint file:  "/scratch/puck/g09_232d2e41-0a06-4417-ba78-f4279561aa48/Gau-33732.chk"
 -----
 titel
 -----
 Charge =  0 Multiplicity = 1

                         Standard orientation:
 ---------------------------------------------------------------------
 Center     Atomic      Atomic             Coordinates (Angstroms)
 Number     Number       Type             X           Y           Z
 ---------------------------------------------------------------------
      1          8           0        3.773251   -0.412674   -0.137398
      2          6           0        2.428648   -0.577722    0.277801
      3          6           0        1.553510    0.634133   -0.061252
      4          6           0        0.107336    0.453791    0.355340
      5          6           0       -0.962383    1.197377   -0.359095
      6          6           0       -2.312887    0.962917    0.336160
      7          6           0       -2.133017   -0.547816    0.009351
      8          8           0       -2.873095   -1.487747    0.072401
      9          6           0       -0.789764   -0.324479   -0.615102
     10          1           0        4.155121    0.308306    0.373224
     11          1           0        2.059829   -1.463143   -0.249998
     12          1           0        2.362516   -0.796700    1.355911
     13          1           0        1.961062    1.522484    0.442233
     14          1           0        1.619387    0.826286   -1.138423
     15          1           0       -0.030415    0.271921    1.420995
     16          1           0       -0.752287    1.989916   -1.065347
     17          1           0       -2.388204    1.256644    1.387413
     18          1           0       -3.174578    1.357179   -0.210152
     19          1           0       -0.362339   -0.858733   -1.455101
 ---------------------------------------------------------------------

 SCF Done:  E(RB3LYP) =  -423.168970101     A.U. after    1 cycles

 The electronic state is 1-A.
 Alpha  occ. eigenvalues --  -19.14018 -19.12865 -10.26918 -10.23384 -10.21760
 Alpha  occ. eigenvalues --  -10.21500 -10.20577 -10.19788 -10.19753  -1.03963
 Alpha  occ. eigenvalues --   -1.02157  -0.91323  -0.78202  -0.71125  -0.65610
 Alpha  occ. eigenvalues --   -0.62115  -0.58633  -0.53646  -0.51284  -0.48591
 Alpha  occ. eigenvalues --   -0.47147  -0.45186  -0.44930  -0.42221  -0.40799
 Alpha  occ. eigenvalues --   -0.38820  -0.37822  -0.37239  -0.36266  -0.33570
 Alpha  occ. eigenvalues --   -0.30510  -0.28477  -0.27088  -0.24127
 Alpha virt. eigenvalues --   -0.00938   0.06834   0.08901   0.09687   0.10118
 Alpha virt. eigenvalues --    0.11523   0.12702   0.13672   0.15251   0.15659
 Alpha virt. eigenvalues --    0.16729   0.18333   0.19793   0.21487   0.21632

 Mulliken charges:
               1
     1  O   -0.414568
     2  C   -0.053405
     3  C   -0.255101
     4  C   -0.009714
     5  C   -0.076113
     6  C   -0.372944
     7  C    0.411595
     8  O   -0.314133
     9  C   -0.174516
    10  H    0.282047
    11  H    0.120422
    12  H    0.089974
    13  H    0.094638
    14  H    0.110781
    15  H    0.092910
    16  H    0.105322
    17  H    0.119269
    18  H    0.133741
    19  H    0.109796
 Sum of Mulliken charges =   0.00000

 Dipole moment (field-independent basis, Debye):
    X=              1.6216    Y=              3.3473    Z=              0.6453  Tot=              3.7750
 Quadrupole moment (field-independent basis, Debye-Ang):
   XX=            -62.9690   YY=            -55.9596   ZZ=            -50.9977
   XY=             -2.7154   XZ=              4.7385   YZ=              0.3609

  Exact polarizability:  96.095   3.698  73.591  -1.294   1.580  62.331
 Approx polarizability: 122.370  11.838 118.819  -2.298   3.354  98.148

                      1                      2                      3
                      A                      A                      A
 Frequencies --     77.8312                90.3466               104.6409
 Red. masses --      4.3328                 2.6277                 2.9380
 Frc consts  --      0.0155                 0.0126                 0.0190
 IR Inten    --      0.2012                 3.4195                 3.6304

                      4                      5                      6
                      A                      A                      A
 Frequencies --    157.9593               264.2609               292.6719
 Red. masses --      3.6992                 2.3534                 1.4509
 Frc consts  --      0.0544                 0.0968                 0.0732
 IR Inten    --      3.0534                11.4284                46.1934

                      7                      8                      9
                      A                      A                      A
 Frequencies --    326.5020               352.1879               467.5145
 Red. masses --      2.3244                 3.6107                 4.0703
 Frc consts  --      0.1460                 0.2639                 0.5242
 IR Inten    --     61.4186                 0.7567                 5.1264

                     10                     11                     12
                      A                      A                      A
 Frequencies --    504.8755               563.5782               649.4457
 Red. masses --      2.2351                 3.6647                 3.3799
 Frc consts  --      0.3357                 0.6858                 0.8399
 IR Inten    --      1.8586                 1.2803                 1.0227

                     13                     14                     15
                      A                      A                      A
 Frequencies --    754.9570               805.5346               838.5097
 Red. masses --      1.8385                 1.4732                 3.0729
 Frc consts  --      0.6174                 0.5632                 1.2730
 IR Inten    --     11.6552                10.9465                12.1045

                     16                     17                     18
                      A                      A                      A
 Frequencies --    868.4863               880.2840               971.5072
 Red. masses --      3.3548                 1.4376                 1.7600
 Frc consts  --      1.4909                 0.6563                 0.9787
 IR Inten    --      3.8740                 9.0447                 9.3883

                     19                     20                     21
                      A                      A                      A
 Frequencies --    989.2547              1013.4302              1027.8811
 Red. masses --      1.9263                 1.8825                 2.1093
 Frc consts  --      1.1107                 1.1391                 1.3130
 IR Inten    --     13.8719                32.9992                 7.3896

                     22                     23                     24
                      A                      A                      A
 Frequencies --   1035.8605              1053.7324              1082.4583
 Red. masses --      2.2298                 1.9953                 3.8167
 Frc consts  --      1.4097                 1.3053                 2.6348
 IR Inten    --     30.9768                43.6462                81.1999

                     25                     26                     27
                      A                      A                      A
 Frequencies --   1111.3273              1120.0276              1146.4274
 Red. masses --      1.3423                 1.9898                 1.4237
 Frc consts  --      0.9767                 1.4707                 1.1024
 IR Inten    --      2.9754                10.6188                 9.9046

                     28                     29                     30
                      A                      A                      A
 Frequencies --   1150.0774              1207.8373              1223.7092
 Red. masses --      1.4326                 1.4959                 1.8762
 Frc consts  --      1.1165                 1.2858                 1.6553
 IR Inten    --      0.7027                 3.6028                 9.0698

                     31                     32                     33
                      A                      A                      A
 Frequencies --   1254.8712              1286.9069              1306.7894
 Red. masses --      1.6968                 1.4597                 1.3740
 Frc consts  --      1.5743                 1.4243                 1.3824
 IR Inten    --     15.3455                 2.6735                 9.1046

                     34                     35                     36
                      A                      A                      A
 Frequencies --   1326.1776              1397.9498              1419.6125
 Red. masses --      1.2566                 1.2688                 1.3514
 Frc consts  --      1.3021                 1.4609                 1.6047
 IR Inten    --      5.4157                14.2836                27.6337

                     37                     38                     39
                      A                      A                      A
 Frequencies --   1429.6736              1459.0151              1483.9676
 Red. masses --      2.0249                 1.1351                 1.0845
 Frc consts  --      2.4385                 1.4236                 1.4071
 IR Inten    --     11.6181                 3.0512                 1.5899

                     40                     41                     42
                      A                      A                      A
 Frequencies --   1512.3966              1882.7319              2975.4199
 Red. masses --      1.0912                12.4007                 1.0711
 Frc consts  --      1.4705                25.8984                 5.5870
 IR Inten    --      0.6260               371.5379                50.7493

                     43                     44                     45
                      A                      A                      A
 Frequencies --   3007.9405              3055.3700              3061.6113
 Red. masses --      1.0652                 1.0587                 1.0908
 Frc consts  --      5.6783                 5.8230                 6.0240
 IR Inten    --     30.6532                21.3418                 7.8457

                     46                     47                     48
                      A                      A                      A
 Frequencies --   3083.0117              3104.3383              3111.3423
 Red. masses --      1.0957                 1.0890                 1.1056
 Frc consts  --      6.1359                 6.1831                 6.3057
 IR Inten    --     29.8468                25.1796                13.5459

                     49                     50                     51
                      A                      A                      A
 Frequencies --   3190.5963              3205.5181              3816.4105
 Red. masses --      1.0916                 1.0951                 1.0662
 Frc consts  --      6.5470                 6.6295                 9.1492
 IR Inten    --      5.8211                 5.7081                19.1729

 - Thermochemistry -
 -------------------
 Temperature   298.150 Kelvin.  Pressure   1.00000 Atm.
 Atom     1 has atomic number  8 and mass  15.99491

 Molecular mass:   126.06808 amu.
 Principal axes and moments of inertia in atomic units:
                           1         2         3
     Eigenvalues --   420.333392387.237242656.43093
           X            0.99990  -0.01368   0.00305
           Y            0.01368   0.99991   0.00150
           Z           -0.00307  -0.00146   0.99999
 This molecule is an asymmetric top.
 Rotational symmetry number  1.
 Rotational temperatures (Kelvin)      0.20606     0.03628     0.03261
 Rotational constants (GHZ):           4.29359     0.75600     0.67939
 Zero-point vibrational energy     415730.8 (Joules/Mol)
                                   99.36205 (Kcal/Mol)
 Warning -- explicit consideration of  11 degrees of freedom as
           vibrations may cause significant error
 Vibrational temperatures:    111.98   129.99   150.55   227.27   380.21
          (Kelvin)            421.09   469.76   506.72   672.65   726.40
                              810.86   934.41  1086.21  1158.98  1206.43
                             1249.56  1266.53  1397.78  1423.32  1458.10
                             1478.89  1490.37  1516.08  1557.41  1598.95
                             1611.47  1649.45  1654.70  1737.81  1760.64
                             1805.48  1851.57  1880.18  1908.07  2011.34
                             2042.50  2056.98  2099.19  2135.10  2176.00
                             2708.83  4280.96  4327.75  4395.99  4404.97
                             4435.76  4466.44  4476.52  4590.55  4612.02
                             5490.96

 Zero-point correction=                           0.158344 (Hartree/Particle)
 Thermal correction to Energy=                    0.167287
 Thermal correction to Enthalpy=                  0.168232
 Thermal correction to Gibbs Free Energy=         0.123971
 Sum of electronic and zero-point Energies=           -423.010627
 Sum of electronic and thermal Energies=              -423.001683
 Sum of electronic and thermal Enthalpies=            -423.000739
 Sum of electronic and thermal Free Energies=         -423.044999

                     E (Thermal)             CV                S
                      KCal/Mol        Cal/Mol-Kelvin    Cal/Mol-Kelvin
 Total                  104.974             33.008             93.155
 Electronic               0.000              0.000              0.000
 Translational            0.889              2.981             40.409
 Rotational               0.889              2.981             29.368
 Vibrational            103.197             27.047             23.378
 Vibration     1          0.599              1.964              3.945
 Vibration     2          0.602              1.956              3.653
 Vibration     3          0.605              1.946              3.366
 Vibration     4          0.621              1.894              2.574
 Vibration     5          0.671              1.738              1.633
 Vibration     6          0.688              1.687              1.458
 Vibration     7          0.710              1.623              1.277
 Vibration     8          0.729              1.571              1.156
 Vibration     9          0.825              1.322              0.745
 Vibration    10          0.860              1.239              0.646
 Vibration    11          0.919              1.110              0.517

 Optimization completed.
    -- Stationary point found.
 Normal termination of Gaussian 09 at Tue Jan 28 14:50:11 2020.
