 Gaussian 09, Revision D.01,
 Gaussian 09:  ES64L-G09RevD.01 24-Apr-2013

 -----------------------------
 # b3lyp 6-31G(2df,p) opt Freq
 -----------------------------

 -----
 titel
 -----
 Symbolic Z-matrix:
 Charge =  0 Multiplicity = 1

 SCF Done:  E(RB3LYP) =  -423.109610014     A.U. after   13 cycles
 Optimization completed.
    -- Stationary point found.
 Normal termination of Gaussian 09 at Tue Jan 28 12:49:13 2020.

 ----------------------------------------------------------------------
 #N Geom=AllCheck Guess=TCheck SCRF=Check GenChk RB3LYP/6-31G(2df,p) Fr
 eq
 ----------------------------------------------------------------------

 Structure from the checkpoint file:  "/scratch/puck/g09_7e5aed47-1c33-4224-907d-00cc299caa4a/Gau-10900.chk"
 -----
 titel
 -----
 Charge =  0 Multiplicity = 1

                         Standard orientation:
 ---------------------------------------------------------------------
 Center     Atomic      Atomic             Coordinates (Angstroms)
 Number     Number       Type             X           Y           Z
 ---------------------------------------------------------------------
      1          6           0       -1.581709    1.942926   -0.235692
      2          6           0       -1.045698    0.569435   -0.000433
      3          6           0       -1.492938   -0.606653    0.796985
      4          8           0       -1.429531   -1.549931   -0.274685
      5          6           0       -0.534439   -0.610097   -0.929250
      6          6           0        0.765714   -0.688598   -0.077801
      7          6           0        1.905960    0.182533   -0.582807
      8          8           0        2.906264    0.406972    0.401701
      9          6           0       -0.077100   -0.039135    1.019221
     10          1           0       -2.462757    1.922772   -0.887064
     11          1           0       -1.878733    2.403222    0.712906
     12          1           0       -0.835246    2.598779   -0.697722
     13          1           0       -2.244750   -0.729958    1.565918
     14          1           0       -0.542676   -0.681265   -2.016280
     15          1           0        1.114136   -1.715098    0.102042
     16          1           0        2.338975   -0.262663   -1.493597
     17          1           0        1.533000    1.177034   -0.851635
     18          1           0        3.272124   -0.449425    0.646021
     19          1           0        0.253326    0.377818    1.961948
 ---------------------------------------------------------------------

 SCF Done:  E(RB3LYP) =  -423.109610014     A.U. after    1 cycles

 The electronic state is 1-A.
 Alpha  occ. eigenvalues --  -19.13492 -19.13452 -10.24176 -10.23515 -10.22798
 Alpha  occ. eigenvalues --  -10.19980 -10.19083 -10.19044 -10.18884  -1.05945
 Alpha  occ. eigenvalues --   -1.01522  -0.86022  -0.75763  -0.72129  -0.66918
 Alpha  occ. eigenvalues --   -0.61971  -0.56203  -0.53623  -0.50389  -0.48944
 Alpha  occ. eigenvalues --   -0.47736  -0.44609  -0.42858  -0.41440  -0.40100
 Alpha  occ. eigenvalues --   -0.39595  -0.38384  -0.36180  -0.35148  -0.31388
 Alpha  occ. eigenvalues --   -0.29114  -0.26491  -0.25618  -0.22787
 Alpha virt. eigenvalues --    0.07577   0.07954   0.09894   0.10662   0.11795
 Alpha virt. eigenvalues --    0.12773   0.13427   0.14419   0.15385   0.16555
 Alpha virt. eigenvalues --    0.16924   0.19193   0.19471   0.20864   0.23773

 Mulliken charges:
               1
     1  C   -0.535345
     2  C    0.293014
     3  C    0.015618
     4  O   -0.295963
     5  C   -0.002947
     6  C   -0.035694
     7  C   -0.079109
     8  O   -0.417155
     9  C   -0.151303
    10  H    0.128582
    11  H    0.128148
    12  H    0.126523
    13  H    0.106306
    14  H    0.083714
    15  H    0.063991
    16  H    0.085761
    17  H    0.108523
    18  H    0.281898
    19  H    0.095439
 Sum of Mulliken charges =   0.00000

 Dipole moment (field-independent basis, Debye):
    X=              0.0674    Y=              0.4965    Z=             -0.0460  Tot=              0.5032
 Quadrupole moment (field-independent basis, Debye-Ang):
   XX=            -54.5855   YY=            -55.8594   ZZ=            -49.9722
   XY=             -8.2798   XZ=             -2.2475   YZ=             -1.3760

  Exact polarizability:  81.649  -3.825  71.989  -1.276  -0.681  70.410
 Approx polarizability: 110.656  -0.540 108.090   1.070  -0.389 109.036

                      1                      2                      3
                      A                      A                      A
 Frequencies --     85.4076               150.8606               184.4642
 Red. masses --      4.0041                 2.8342                 1.9730
 Frc consts  --      0.0172                 0.0380                 0.0396
 IR Inten    --      3.2972                 0.0960                 5.5477

                      4                      5                      6
                      A                      A                      A
 Frequencies --    206.6474               257.6587               286.3604
 Red. masses --      1.2357                 2.4630                 1.4548
 Frc consts  --      0.0311                 0.0963                 0.0703
 IR Inten    --      1.2390                11.0861                65.3736

                      7                      8                      9
                      A                      A                      A
 Frequencies --    331.7414               394.2240               532.6372
 Red. masses --      1.8636                 6.0025                 3.7771
 Frc consts  --      0.1208                 0.5496                 0.6314
 IR Inten    --     35.4207                 4.2736                13.1338

                     10                     11                     12
                      A                      A                      A
 Frequencies --    576.5804               612.2078               754.5843
 Red. masses --      3.2878                 3.1176                 3.1455
 Frc consts  --      0.6440                 0.6884                 1.0552
 IR Inten    --     10.1196                 3.0746                 1.3283

                     13                     14                     15
                      A                      A                      A
 Frequencies --    771.5540               829.2393               861.0569
 Red. masses --      4.5095                 2.2778                 2.0163
 Frc consts  --      1.5816                 0.9228                 0.8808
 IR Inten    --      6.0930                 8.5462                 5.6856

                     16                     17                     18
                      A                      A                      A
 Frequencies --    889.8958               924.0826               933.4129
 Red. masses --      1.8596                 2.0252                 2.3891
 Frc consts  --      0.8677                 1.0189                 1.2264
 IR Inten    --      8.2144                10.3361                33.9974

                     19                     20                     21
                      A                      A                      A
 Frequencies --    969.0672               996.7421              1024.8473
 Red. masses --      1.8928                 2.6260                 1.7668
 Frc consts  --      1.0473                 1.5372                 1.0934
 IR Inten    --     14.2451                14.2848                 2.0496

                     22                     23                     24
                      A                      A                      A
 Frequencies --   1036.4525              1049.5990              1088.3127
 Red. masses --      2.3513                 2.2216                 2.8469
 Frc consts  --      1.4882                 1.4420                 1.9867
 IR Inten    --     85.3924                15.5012                 4.9716

                     25                     26                     27
                      A                      A                      A
 Frequencies --   1101.3205              1120.1392              1151.8625
 Red. masses --      2.7563                 1.8278                 1.6261
 Frc consts  --      1.9697                 1.3512                 1.2712
 IR Inten    --     25.8287                 7.6764                 3.0101

                     28                     29                     30
                      A                      A                      A
 Frequencies --   1176.7288              1197.4059              1216.2268
 Red. masses --      2.0264                 1.3086                 1.7366
 Frc consts  --      1.6532                 1.1054                 1.5135
 IR Inten    --      1.0152                 6.9389                12.5909

                     31                     32                     33
                      A                      A                      A
 Frequencies --   1224.8589              1253.8768              1295.2430
 Red. masses --      1.5333                 1.7203                 1.4562
 Frc consts  --      1.3553                 1.5936                 1.4394
 IR Inten    --      2.4751                 2.9495                20.3990

                     34                     35                     36
                      A                      A                      A
 Frequencies --   1373.6031              1388.5056              1412.0302
 Red. masses --      1.4611                 1.3760                 1.2168
 Frc consts  --      1.6243                 1.5630                 1.4294
 IR Inten    --      7.8058                 5.3538                 3.7526

                     37                     38                     39
                      A                      A                      A
 Frequencies --   1424.1544              1462.5404              1483.3478
 Red. masses --      1.2762                 4.4637                 1.0634
 Frc consts  --      1.5250                 5.6256                 1.3786
 IR Inten    --     41.5309                 1.5745                 3.4523

                     40                     41                     42
                      A                      A                      A
 Frequencies --   1496.6751              1502.5589              2970.0755
 Red. masses --      1.0766                 1.0854                 1.0707
 Frc consts  --      1.4209                 1.4438                 5.5650
 IR Inten    --      3.7371                 1.7214                62.2852

                     43                     44                     45
                      A                      A                      A
 Frequencies --   3011.2964              3023.2553              3068.8547
 Red. masses --      1.0821                 1.0352                 1.0921
 Frc consts  --      5.7813                 5.5745                 6.0600
 IR Inten    --     54.0657                30.3755                41.4984

                     46                     47                     48
                      A                      A                      A
 Frequencies --   3084.5432              3093.9634              3128.9089
 Red. masses --      1.1013                 1.1001                 1.0921
 Frc consts  --      6.1734                 6.2046                 6.2992
 IR Inten    --     21.5140                16.3642                33.3153

                     49                     50                     51
                      A                      A                      A
 Frequencies --   3198.5399              3207.8979              3812.3251
 Red. masses --      1.0915                 1.0964                 1.0661
 Frc consts  --      6.5793                 6.6475                 9.1293
 IR Inten    --      5.4256                17.5277                18.4366

 - Thermochemistry -
 -------------------
 Temperature   298.150 Kelvin.  Pressure   1.00000 Atm.
 Atom     1 has atomic number  6 and mass  12.00000

 Molecular mass:   126.06808 amu.
 Principal axes and moments of inertia in atomic units:
                           1         2         3
     Eigenvalues --   647.228921367.139971624.25645
           X            0.99833  -0.05690  -0.01009
           Y            0.05664   0.99808  -0.02493
           Z            0.01149   0.02432   0.99964
 This molecule is an asymmetric top.
 Rotational symmetry number  1.
 Warning -- assumption of classical behavior for rotation
           may cause significant error
 Rotational temperatures (Kelvin)      0.13382     0.06335     0.05333
 Rotational constants (GHZ):           2.78841     1.32009     1.11112
 Zero-point vibrational energy     416470.2 (Joules/Mol)
                                   99.53876 (Kcal/Mol)
 Warning -- explicit consideration of  11 degrees of freedom as
           vibrations may cause significant error
 Vibrational temperatures:    122.88   217.05   265.40   297.32   370.71
          (Kelvin)            412.01   477.30   567.20   766.35   829.57
                              880.83  1085.68  1110.09  1193.09  1238.87
                             1280.36  1329.55  1342.97  1394.27  1434.09
                             1474.52  1491.22  1510.14  1565.84  1584.55
                             1611.63  1657.27  1693.05  1722.80  1749.88
                             1762.30  1804.05  1863.56  1976.31  1997.75
                             2031.59  2049.04  2104.27  2134.20  2153.38
                             2161.84  4273.27  4332.58  4349.78  4415.39
                             4437.96  4451.52  4501.80  4601.98  4615.44
                             5485.08

 Zero-point correction=                           0.158625 (Hartree/Particle)
 Thermal correction to Energy=                    0.167013
 Thermal correction to Enthalpy=                  0.167957
 Thermal correction to Gibbs Free Energy=         0.125623
 Sum of electronic and zero-point Energies=           -422.950985
 Sum of electronic and thermal Energies=              -422.942598
 Sum of electronic and thermal Enthalpies=            -422.941653
 Sum of electronic and thermal Free Energies=         -422.983987

                     E (Thermal)             CV                S
                      KCal/Mol        Cal/Mol-Kelvin    Cal/Mol-Kelvin
 Total                  104.802             32.102             89.099
 Electronic               0.000              0.000              0.000
 Translational            0.889              2.981             40.409
 Rotational               0.889              2.981             28.754
 Vibrational            103.024             26.140             19.937
 Vibration     1          0.601              1.959              3.763
 Vibration     2          0.618              1.902              2.661
 Vibration     3          0.631              1.861              2.283
 Vibration     4          0.641              1.830              2.073
 Vibration     5          0.667              1.750              1.678
 Vibration     6          0.684              1.699              1.495
 Vibration     7          0.714              1.612              1.252
 Vibration     8          0.761              1.483              0.984
 Vibration     9          0.888              1.178              0.581
 Vibration    10          0.933              1.082              0.492
 Vibration    11          0.971              1.006              0.429

 Optimization completed.
    -- Stationary point found.
 Normal termination of Gaussian 09 at Tue Jan 28 14:46:15 2020.
