 Gaussian 09, Revision D.01,
 Gaussian 09:  ES64L-G09RevD.01 24-Apr-2013

 -----------------------------
 # b3lyp 6-31G(2df,p) opt Freq
 -----------------------------

 -----
 titel
 -----
 Symbolic Z-matrix:
 Charge =  0 Multiplicity = 1

 SCF Done:  E(RB3LYP) =  -423.118183159     A.U. after   13 cycles
 Optimization completed.
    -- Stationary point found.
 Normal termination of Gaussian 09 at Mon Jan 27 17:54:48 2020.

 ----------------------------------------------------------------------
 #N Geom=AllCheck Guess=TCheck SCRF=Check GenChk RB3LYP/6-31G(2df,p) Fr
 eq
 ----------------------------------------------------------------------

 Structure from the checkpoint file:  "/scratch/puck/g09_a985cf5e-19ca-4461-a866-673c334d93a1/Gau-169740.chk"
 -----
 titel
 -----
 Charge =  0 Multiplicity = 1

                         Standard orientation:
 ---------------------------------------------------------------------
 Center     Atomic      Atomic             Coordinates (Angstroms)
 Number     Number       Type             X           Y           Z
 ---------------------------------------------------------------------
      1          8           0       -1.052394    1.851060   -0.224203
      2          6           0       -1.098851    0.508821    0.079172
      3          6           0       -2.347261   -0.110720    0.634005
      4          6           0       -1.693874   -0.719905   -0.582415
      5          8           0       -0.587213   -1.538219   -0.189937
      6          6           0        0.109723   -0.386469    0.383168
      7          6           0        1.359036   -0.062638   -0.381334
      8          6           0        2.403130    0.834066    0.248646
      9          6           0        2.683839   -0.631940    0.058528
     10          1           0       -0.366941    1.985676   -0.888842
     11          1           0       -2.349856   -0.647230    1.579925
     12          1           0       -3.239872    0.470937    0.421866
     13          1           0       -2.181169   -0.930580   -1.526714
     14          1           0        0.337665   -0.543300    1.446439
     15          1           0        1.208342    0.031303   -1.454176
     16          1           0        2.916163    1.547099   -0.386834
     17          1           0        2.219094    1.191816    1.256235
     18          1           0        3.388527   -0.927197   -0.710253
     19          1           0        2.690445   -1.268541    0.936856
 ---------------------------------------------------------------------

 SCF Done:  E(RB3LYP) =  -423.118183159     A.U. after    1 cycles

 The electronic state is 1-A.
 Alpha  occ. eigenvalues --  -19.15597 -19.13468 -10.24156 -10.23687 -10.23131
 Alpha  occ. eigenvalues --  -10.19805 -10.19411 -10.19159 -10.18504  -1.05676
 Alpha  occ. eigenvalues --   -1.02934  -0.86472  -0.82146  -0.71043  -0.60825
 Alpha  occ. eigenvalues --   -0.60119  -0.59607  -0.56722  -0.53773  -0.49231
 Alpha  occ. eigenvalues --   -0.48702  -0.46879  -0.43707  -0.40609  -0.39242
 Alpha  occ. eigenvalues --   -0.37415  -0.36977  -0.36414  -0.35115  -0.31691
 Alpha  occ. eigenvalues --   -0.30368  -0.27808  -0.26180  -0.22181
 Alpha virt. eigenvalues --    0.06386   0.08786   0.09506   0.10117   0.12674
 Alpha virt. eigenvalues --    0.13128   0.13716   0.14750   0.16129   0.16410
 Alpha virt. eigenvalues --    0.17519   0.19282   0.20950   0.22016   0.23723

 Mulliken charges:
               1
     1  O   -0.444995
     2  C    0.314840
     3  C   -0.338596
     4  C    0.006762
     5  O   -0.301933
     6  C    0.050748
     7  C   -0.000984
     8  C   -0.274011
     9  C   -0.276854
    10  H    0.290955
    11  H    0.112229
    12  H    0.121246
    13  H    0.106366
    14  H    0.075640
    15  H    0.084116
    16  H    0.114511
    17  H    0.121320
    18  H    0.117681
    19  H    0.120958
 Sum of Mulliken charges =   0.00000

 Dipole moment (field-independent basis, Debye):
    X=              1.0062    Y=              0.9349    Z=             -0.7303  Tot=              1.5556
 Quadrupole moment (field-independent basis, Debye-Ang):
   XX=            -50.6540   YY=            -58.7024   ZZ=            -49.4510
   XY=              1.8269   XZ=              0.0368   YZ=             -2.5762

  Exact polarizability:  92.260   1.750  69.125  -0.734  -0.242  65.921
 Approx polarizability: 115.682   2.140 108.992   0.438   2.063 101.900

                      1                      2                      3
                      A                      A                      A
 Frequencies --     63.7939               127.4697               145.4464
 Red. masses --      3.3296                 3.0868                 2.7348
 Frc consts  --      0.0080                 0.0296                 0.0341
 IR Inten    --      0.4162                 0.8968                 0.5674

                      4                      5                      6
                      A                      A                      A
 Frequencies --    276.3269               308.5011               329.8951
 Red. masses --      2.1402                 3.3984                 1.5554
 Frc consts  --      0.0963                 0.1906                 0.0997
 IR Inten    --     14.2718                 9.4080                74.0084

                      7                      8                      9
                      A                      A                      A
 Frequencies --    387.6766               421.8621               459.8557
 Red. masses --      3.2344                 2.7825                 2.5214
 Frc consts  --      0.2864                 0.2918                 0.3141
 IR Inten    --     22.0522                 7.1208                 1.5216

                     10                     11                     12
                      A                      A                      A
 Frequencies --    502.3058               652.4975               771.2919
 Red. masses --      3.5455                 4.3383                 1.0926
 Frc consts  --      0.5271                 1.0882                 0.3829
 IR Inten    --     15.2835                 6.2071                 0.4469

                     13                     14                     15
                      A                      A                      A
 Frequencies --    804.4008               834.2181               871.6496
 Red. masses --      2.3579                 1.4924                 1.8126
 Frc consts  --      0.8989                 0.6119                 0.8114
 IR Inten    --      5.9527                 5.3714                 4.1419

                     16                     17                     18
                      A                      A                      A
 Frequencies --    891.8360               906.2760               914.1809
 Red. masses --      3.7761                 1.9812                 2.9637
 Frc consts  --      1.7696                 0.9587                 1.4593
 IR Inten    --     10.3827                11.3890                26.6914

                     19                     20                     21
                      A                      A                      A
 Frequencies --    934.3725               965.4628               980.1729
 Red. masses --      2.7160                 3.2118                 1.6188
 Frc consts  --      1.3971                 1.7639                 0.9163
 IR Inten    --      5.5267                 2.3986                 0.7036

                     22                     23                     24
                      A                      A                      A
 Frequencies --   1016.6584              1018.6989              1062.1197
 Red. masses --      1.9165                 2.0928                 1.3245
 Frc consts  --      1.1671                 1.2796                 0.8803
 IR Inten    --     10.8488                88.2857                 7.9936

                     25                     26                     27
                      A                      A                      A
 Frequencies --   1081.2521              1084.3223              1099.4554
 Red. masses --      1.3461                 1.6951                 2.2278
 Frc consts  --      0.9272                 1.1743                 1.5867
 IR Inten    --      1.2270                11.8158                23.6585

                     28                     29                     30
                      A                      A                      A
 Frequencies --   1135.9587              1190.2695              1196.3396
 Red. masses --      1.1338                 1.9176                 1.4339
 Frc consts  --      0.8620                 1.6006                 1.2092
 IR Inten    --      2.5226                11.0882                 4.2837

                     31                     32                     33
                      A                      A                      A
 Frequencies --   1199.3202              1220.7725              1238.6011
 Red. masses --      1.7262                 1.7745                 1.4927
 Frc consts  --      1.4629                 1.5581                 1.3492
 IR Inten    --      6.0812                 2.1601                18.4155

                     34                     35                     36
                      A                      A                      A
 Frequencies --   1282.8559              1312.0105              1345.1485
 Red. masses --      1.7747                 1.3257                 2.1865
 Frc consts  --      1.7208                 1.3445                 2.3310
 IR Inten    --     46.9602                 6.3206               130.1310

                     37                     38                     39
                      A                      A                      A
 Frequencies --   1411.2764              1437.0163              1471.3559
 Red. masses --      1.5588                 1.6824                 1.0877
 Frc consts  --      1.8292                 2.0470                 1.3874
 IR Inten    --     13.7274                 7.8164                 1.6063

                     40                     41                     42
                      A                      A                      A
 Frequencies --   1491.5635              1505.7802              3013.5943
 Red. masses --      1.9164                 1.3948                 1.0845
 Frc consts  --      2.5120                 1.8633                 5.8028
 IR Inten    --     22.8755                 1.8341                39.3071

                     43                     44                     45
                      A                      A                      A
 Frequencies --   3106.2799              3133.5214              3134.7054
 Red. masses --      1.0547                 1.0722                 1.0584
 Frc consts  --      5.9963                 6.2031                 6.1277
 IR Inten    --     14.1326                17.1727                16.2452

                     46                     47                     48
                      A                      A                      A
 Frequencies --   3139.9321              3187.4634              3204.5016
 Red. masses --      1.0663                 1.0958                 1.1134
 Frc consts  --      6.1939                 6.5592                 6.7362
 IR Inten    --      4.9195                14.1991                 9.5973

                     49                     50                     51
                      A                      A                      A
 Frequencies --   3212.8416              3227.7826              3791.8544
 Red. masses --      1.1178                 1.1156                 1.0655
 Frc consts  --      6.7979                 6.8478                 9.0264
 IR Inten    --      0.5405                15.4769                18.8357

 - Thermochemistry -
 -------------------
 Temperature   298.150 Kelvin.  Pressure   1.00000 Atm.
 Atom     1 has atomic number  8 and mass  15.99491

 Molecular mass:   126.06808 amu.
 Principal axes and moments of inertia in atomic units:
                           1         2         3
     Eigenvalues --   560.856571425.010691787.15295
           X            0.99997   0.00724  -0.00266
           Y           -0.00728   0.99985  -0.01596
           Z            0.00254   0.01598   0.99987
 This molecule is an asymmetric top.
 Rotational symmetry number  1.
 Warning -- assumption of classical behavior for rotation
           may cause significant error
 Rotational temperatures (Kelvin)      0.15443     0.06078     0.04846
 Rotational constants (GHZ):           3.21783     1.26648     1.00984
 Zero-point vibrational energy     415718.7 (Joules/Mol)
                                   99.35916 (Kcal/Mol)
 Warning -- explicit consideration of  10 degrees of freedom as
           vibrations may cause significant error
 Vibrational temperatures:     91.79   183.40   209.26   397.57   443.86
          (Kelvin)            474.64   557.78   606.96   661.63   722.71
                              938.80  1109.72  1157.35  1200.25  1254.11
                             1283.15  1303.93  1315.30  1344.35  1389.08
                             1410.25  1462.74  1465.68  1528.15  1555.68
                             1560.10  1581.87  1634.39  1712.53  1721.26
                             1725.55  1756.42  1782.07  1845.74  1887.69
                             1935.37  2030.51  2067.54  2116.95  2146.02
                             2166.48  4335.88  4469.24  4508.43  4510.14
                             4517.66  4586.04  4610.56  4622.56  4644.05
                             5455.63

 Zero-point correction=                           0.158339 (Hartree/Particle)
 Thermal correction to Energy=                    0.166700
 Thermal correction to Enthalpy=                  0.167644
 Thermal correction to Gibbs Free Energy=         0.125150
 Sum of electronic and zero-point Energies=           -422.959844
 Sum of electronic and thermal Energies=              -422.951483
 Sum of electronic and thermal Enthalpies=            -422.950539
 Sum of electronic and thermal Free Energies=         -422.993033

                     E (Thermal)             CV                S
                      KCal/Mol        Cal/Mol-Kelvin    Cal/Mol-Kelvin
 Total                  104.606             32.420             89.436
 Electronic               0.000              0.000              0.000
 Translational            0.889              2.981             40.409
 Rotational               0.889              2.981             28.748
 Vibrational            102.828             26.459             20.280
 Vibration     1          0.597              1.972              4.336
 Vibration     2          0.611              1.926              2.984
 Vibration     3          0.617              1.908              2.731
 Vibration     4          0.678              1.717              1.556
 Vibration     5          0.698              1.658              1.370
 Vibration     6          0.713              1.616              1.261
 Vibration     7          0.756              1.497              1.009
 Vibration     8          0.784              1.423              0.886
 Vibration     9          0.818              1.339              0.767
 Vibration    10          0.858              1.245              0.652

 Optimization completed.
    -- Stationary point found.
 Normal termination of Gaussian 09 at Mon Jan 27 18:35:23 2020.
