 Gaussian 09, Revision D.01,
 Gaussian 09:  ES64L-G09RevD.01 24-Apr-2013

 -----------------------------
 # b3lyp 6-31G(2df,p) opt Freq
 -----------------------------

 -----
 titel
 -----
 Symbolic Z-matrix:
 Charge =  0 Multiplicity = 1

 SCF Done:  E(RB3LYP) =  -423.127108400     A.U. after   14 cycles
 Optimization completed.
    -- Stationary point found.
 Normal termination of Gaussian 09 at Mon Jan 27 17:10:28 2020.

 ----------------------------------------------------------------------
 #N Geom=AllCheck Guess=TCheck SCRF=Check GenChk RB3LYP/6-31G(2df,p) Fr
 eq
 ----------------------------------------------------------------------

 Structure from the checkpoint file:  "/scratch/puck/g09_9d62b8c4-6bd1-466c-b832-743aac7d5d5e/Gau-168107.chk"
 -----
 titel
 -----
 Charge =  0 Multiplicity = 1

                         Standard orientation:
 ---------------------------------------------------------------------
 Center     Atomic      Atomic             Coordinates (Angstroms)
 Number     Number       Type             X           Y           Z
 ---------------------------------------------------------------------
      1          6           0       -2.351230    1.396748    0.064637
      2          6           0       -1.413240    0.230982    0.048295
      3          6           0       -1.075952   -0.797136    1.164841
      4          6           0       -0.467611   -1.287152   -0.166390
      5          8           0       -1.732799   -0.921250   -0.840178
      6          6           0        0.054477    0.141585   -0.485401
      7          6           0        1.241581    0.785698    0.230596
      8          6           0        2.555323    0.318416   -0.361330
      9          8           0        3.445535   -0.197910    0.262474
     10          1           0       -1.983550    2.170810    0.745924
     11          1           0       -2.444071    1.829543   -0.936078
     12          1           0       -3.344189    1.084740    0.401764
     13          1           0       -0.413057   -0.500054    1.979562
     14          1           0       -1.930135   -1.379428    1.512470
     15          1           0       -0.031226   -2.254530   -0.413667
     16          1           0        0.091283    0.319290   -1.564776
     17          1           0        1.185656    1.874336    0.081216
     18          1           0        1.261003    0.590765    1.304551
     19          1           0        2.646319    0.482963   -1.460821
 ---------------------------------------------------------------------

 SCF Done:  E(RB3LYP) =  -423.127108400     A.U. after    1 cycles

 The electronic state is 1-A.
 Alpha  occ. eigenvalues --  -19.14376 -19.13320 -10.27653 -10.25865 -10.25117
 Alpha  occ. eigenvalues --  -10.20927 -10.20254 -10.19444 -10.19131  -1.05854
 Alpha  occ. eigenvalues --   -1.05065  -0.81548  -0.75959  -0.74406  -0.66943
 Alpha  occ. eigenvalues --   -0.61865  -0.58301  -0.53853  -0.48723  -0.47993
 Alpha  occ. eigenvalues --   -0.46931  -0.45760  -0.44063  -0.43213  -0.42065
 Alpha  occ. eigenvalues --   -0.39959  -0.37668  -0.37229  -0.34897  -0.32868
 Alpha  occ. eigenvalues --   -0.32562  -0.31642  -0.25618  -0.24034
 Alpha virt. eigenvalues --   -0.02562   0.08289   0.09472   0.10726   0.10952
 Alpha virt. eigenvalues --    0.12316   0.13140   0.13569   0.14455   0.15090
 Alpha virt. eigenvalues --    0.15465   0.16648   0.17828   0.18428   0.20308

 Mulliken charges:
               1
     1  C   -0.515773
     2  C    0.385675
     3  C   -0.269603
     4  C    0.039681
     5  O   -0.339525
     6  C   -0.013524
     7  C   -0.337826
     8  C    0.166306
     9  O   -0.235532
    10  H    0.128329
    11  H    0.135000
    12  H    0.138410
    13  H    0.100305
    14  H    0.109527
    15  H    0.099725
    16  H    0.085730
    17  H    0.123333
    18  H    0.124254
    19  H    0.075508
 Sum of Mulliken charges =   0.00000

 Dipole moment (field-independent basis, Debye):
    X=             -1.3332    Y=              1.9205    Z=              0.3430  Tot=              2.3629
 Quadrupole moment (field-independent basis, Debye-Ang):
   XX=            -65.8581   YY=            -50.8140   ZZ=            -53.3086
   XY=             -0.2343   XZ=             -5.7195   YZ=             -1.2544

  Exact polarizability:  89.445  -3.778  71.705  -1.295  -2.519  70.159
 Approx polarizability: 121.906  -6.187 107.666   6.349  -3.075 111.062

                      1                      2                      3
                      A                      A                      A
 Frequencies --     46.0304                61.9820               148.6302
 Red. masses --      5.0281                 3.5144                 2.7624
 Frc consts  --      0.0063                 0.0080                 0.0360
 IR Inten    --      3.4948                 5.4268                 1.8780

                      4                      5                      6
                      A                      A                      A
 Frequencies --    187.3373               233.6562               293.4422
 Red. masses --      1.0634                 2.7556                 2.6299
 Frc consts  --      0.0220                 0.0886                 0.1334
 IR Inten    --      0.0316                 1.0948                 0.9652

                      7                      8                      9
                      A                      A                      A
 Frequencies --    326.5545               409.2643               463.5516
 Red. masses --      2.7093                 3.0186                 3.1830
 Frc consts  --      0.1702                 0.2979                 0.4030
 IR Inten    --      1.5961                 2.8511                 7.7263

                     10                     11                     12
                      A                      A                      A
 Frequencies --    566.1673               609.3795               639.5271
 Red. masses --      2.0691                 3.3932                 3.4416
 Frc consts  --      0.3908                 0.7424                 0.8293
 IR Inten    --      3.2249                13.4523                 2.2600

                     13                     14                     15
                      A                      A                      A
 Frequencies --    708.6594               767.0747               819.2671
 Red. masses --      4.8332                 2.0285                 2.2535
 Frc consts  --      1.4301                 0.7032                 0.8912
 IR Inten    --     16.7732                 5.0820                 3.7801

                     16                     17                     18
                      A                      A                      A
 Frequencies --    868.0129               896.9621               914.4782
 Red. masses --      2.5000                 2.0990                 3.7397
 Frc consts  --      1.1098                 0.9950                 1.8426
 IR Inten    --     22.9232                 9.4045                 9.3800

                     19                     20                     21
                      A                      A                      A
 Frequencies --    963.7140              1012.4195              1017.7109
 Red. masses --      2.3358                 1.1136                 1.6996
 Frc consts  --      1.2781                 0.6725                 1.0371
 IR Inten    --      3.2398                 1.7674                13.8129

                     22                     23                     24
                      A                      A                      A
 Frequencies --   1036.8425              1086.1487              1089.0500
 Red. masses --      1.8245                 1.9238                 1.8466
 Frc consts  --      1.1556                 1.3372                 1.2904
 IR Inten    --     18.3398                11.1160                13.0172

                     25                     26                     27
                      A                      A                      A
 Frequencies --   1125.1443              1145.5270              1185.0619
 Red. masses --      3.3697                 1.6312                 1.5420
 Frc consts  --      2.5134                 1.2612                 1.2759
 IR Inten    --      9.5563                 6.6036                 2.7382

                     28                     29                     30
                      A                      A                      A
 Frequencies --   1201.5212              1221.7654              1232.6750
 Red. masses --      1.4407                 1.3935                 1.5123
 Frc consts  --      1.2254                 1.2255                 1.3539
 IR Inten    --     22.6315                 6.1264                 4.0760

                     31                     32                     33
                      A                      A                      A
 Frequencies --   1265.1207              1285.7059              1321.4070
 Red. masses --      1.9318                 1.4600                 2.2407
 Frc consts  --      1.8217                 1.4219                 2.3052
 IR Inten    --      9.7652                 1.8159                30.7581

                     34                     35                     36
                      A                      A                      A
 Frequencies --   1396.8851              1417.6210              1429.3274
 Red. masses --      1.3612                 1.7478                 1.1902
 Frc consts  --      1.5649                 2.0695                 1.4327
 IR Inten    --      5.2581                14.2459                 5.3151

                     37                     38                     39
                      A                      A                      A
 Frequencies --   1459.5299              1477.2170              1488.6049
 Red. masses --      1.1175                 1.0481                 1.0472
 Frc consts  --      1.4025                 1.3476                 1.3672
 IR Inten    --      8.4579                 3.1245                 5.1220

                     40                     41                     42
                      A                      A                      A
 Frequencies --   1502.7999              1835.9339              2857.2987
 Red. masses --      1.2320                10.0677                 1.0820
 Frc consts  --      1.6393                19.9938                 5.2047
 IR Inten    --      4.6229               188.1727               105.9430

                     43                     44                     45
                      A                      A                      A
 Frequencies --   3009.8989              3039.1905              3066.9813
 Red. masses --      1.0677                 1.0348                 1.0839
 Frc consts  --      5.6992                 5.6314                 6.0068
 IR Inten    --      9.9089                14.2073                22.2987

                     46                     47                     48
                      A                      A                      A
 Frequencies --   3074.8342              3112.6292              3116.2929
 Red. masses --      1.0566                 1.1008                 1.1016
 Frc consts  --      5.8858                 6.2839                 6.3032
 IR Inten    --     21.4602                11.4981                 7.1249

                     49                     50                     51
                      A                      A                      A
 Frequencies --   3118.2637              3125.3097              3149.8982
 Red. masses --      1.0921                 1.0936                 1.1100
 Frc consts  --      6.2569                 6.2935                 6.4890
 IR Inten    --     23.1315                41.5009                25.9949

 - Thermochemistry -
 -------------------
 Temperature   298.150 Kelvin.  Pressure   1.00000 Atm.
 Atom     1 has atomic number  6 and mass  12.00000

 Molecular mass:   126.06808 amu.
 Principal axes and moments of inertia in atomic units:
                           1         2         3
     Eigenvalues --   512.849751875.414332043.35855
           X            0.99979  -0.01461  -0.01471
           Y            0.01399   0.99906  -0.04102
           Z            0.01530   0.04081   0.99905
 This molecule is an asymmetric top.
 Rotational symmetry number  1.
 Warning -- assumption of classical behavior for rotation
           may cause significant error
 Rotational temperatures (Kelvin)      0.16889     0.04618     0.04239
 Rotational constants (GHZ):           3.51904     0.96232     0.88322
 Zero-point vibrational energy     411684.7 (Joules/Mol)
                                   98.39500 (Kcal/Mol)
 Warning -- explicit consideration of  11 degrees of freedom as
           vibrations may cause significant error
 Vibrational temperatures:     66.23    89.18   213.85   269.54   336.18
          (Kelvin)            422.20   469.84   588.84   666.95   814.59
                              876.76   920.14  1019.60  1103.65  1178.74
                             1248.88  1290.53  1315.73  1386.57  1456.64
                             1464.26  1491.78  1562.72  1566.90  1618.83
                             1648.16  1705.04  1728.72  1757.85  1773.54
                             1820.22  1849.84  1901.21  2009.80  2039.64
                             2056.48  2099.94  2125.38  2141.77  2162.19
                             2641.50  4111.01  4330.57  4372.71  4412.70
                             4424.00  4478.37  4483.64  4486.48  4496.62
                             4532.00

 Zero-point correction=                           0.156802 (Hartree/Particle)
 Thermal correction to Energy=                    0.165688
 Thermal correction to Enthalpy=                  0.166632
 Thermal correction to Gibbs Free Energy=         0.122208
 Sum of electronic and zero-point Energies=           -422.970306
 Sum of electronic and thermal Energies=              -422.961421
 Sum of electronic and thermal Enthalpies=            -422.960476
 Sum of electronic and thermal Free Energies=         -423.004901

                     E (Thermal)             CV                S
                      KCal/Mol        Cal/Mol-Kelvin    Cal/Mol-Kelvin
 Total                  103.971             32.750             93.499
 Electronic               0.000              0.000              0.000
 Translational            0.889              2.981             40.409
 Rotational               0.889              2.981             29.065
 Vibrational            102.193             26.788             24.025
 Vibration     1          0.595              1.979              4.981
 Vibration     2          0.597              1.972              4.393
 Vibration     3          0.618              1.904              2.690
 Vibration     4          0.632              1.857              2.254
 Vibration     5          0.654              1.789              1.851
 Vibration     6          0.688              1.686              1.454
 Vibration     7          0.710              1.622              1.277
 Vibration     8          0.774              1.450              0.929
 Vibration     9          0.821              1.331              0.756
 Vibration    10          0.922              1.104              0.512
 Vibration    11          0.968              1.012              0.434

 Optimization completed.
    -- Stationary point found.
 Normal termination of Gaussian 09 at Mon Jan 27 17:50:35 2020.
