 Gaussian 09, Revision D.01,
 Gaussian 09:  ES64L-G09RevD.01 24-Apr-2013

 -----------------------------
 # b3lyp 6-31G(2df,p) opt Freq
 -----------------------------

 -----
 titel
 -----
 Symbolic Z-matrix:
 Charge =  0 Multiplicity = 1

 SCF Done:  E(RB3LYP) =  -423.159175678     A.U. after   13 cycles
 Optimization completed.
    -- Stationary point found.
 Normal termination of Gaussian 09 at Tue Jan 28 01:54:38 2020.

 ----------------------------------------------------------------------
 #N Geom=AllCheck Guess=TCheck SCRF=Check GenChk RB3LYP/6-31G(2df,p) Fr
 eq
 ----------------------------------------------------------------------

 Structure from the checkpoint file:  "/scratch/puck/g09_0a4a211a-0f6a-4fa4-a7d3-93d88d6fb6a6/Gau-57356.chk"
 -----
 titel
 -----
 Charge =  0 Multiplicity = 1

                         Standard orientation:
 ---------------------------------------------------------------------
 Center     Atomic      Atomic             Coordinates (Angstroms)
 Number     Number       Type             X           Y           Z
 ---------------------------------------------------------------------
      1          8           0       -2.635133    0.714331   -0.421791
      2          6           0       -1.864877   -0.434826   -0.209494
      3          6           0       -1.242549   -0.687730    1.140989
      4          6           0       -0.393936   -0.223414   -0.025201
      5          6           0        0.634480   -1.164477   -0.668255
      6          6           0        1.949942   -0.428716   -0.504546
      7          8           0        2.189531    0.026445    0.833274
      8          6           0        1.685741    0.965794   -0.128266
      9          6           0        0.191719    1.195618   -0.027844
     10          1           0       -3.471458    0.602471    0.041924
     11          1           0       -2.176650   -1.303501   -0.792143
     12          1           0       -1.445861    0.037604    1.922602
     13          1           0       -1.142595   -1.712948    1.483959
     14          1           0        0.648672   -2.154211   -0.200258
     15          1           0        0.434808   -1.307599   -1.738847
     16          1           0        2.832832   -0.737379   -1.059176
     17          1           0        2.359029    1.782488   -0.377168
     18          1           0       -0.084496    1.767565    0.862227
     19          1           0       -0.152586    1.765815   -0.899278
 ---------------------------------------------------------------------

 SCF Done:  E(RB3LYP) =  -423.159175678     A.U. after    1 cycles

 The electronic state is 1-A.
 Alpha  occ. eigenvalues --  -19.14279 -19.14032 -10.23127 -10.22933 -10.22817
 Alpha  occ. eigenvalues --  -10.19514 -10.18610 -10.18160 -10.17901  -1.06315
 Alpha  occ. eigenvalues --   -1.02694  -0.85762  -0.76157  -0.72203  -0.62891
 Alpha  occ. eigenvalues --   -0.60575  -0.57559  -0.54340  -0.51711  -0.50639
 Alpha  occ. eigenvalues --   -0.45735  -0.44227  -0.43500  -0.42526  -0.40853
 Alpha  occ. eigenvalues --   -0.37700  -0.36381  -0.35560  -0.33337  -0.31780
 Alpha  occ. eigenvalues --   -0.29482  -0.27164  -0.26007  -0.24645
 Alpha virt. eigenvalues --    0.07799   0.10133   0.10767   0.11388   0.11915
 Alpha virt. eigenvalues --    0.13165   0.14208   0.14878   0.15329   0.16498
 Alpha virt. eigenvalues --    0.17611   0.18940   0.19870   0.21188   0.22759

 Mulliken charges:
               1
     1  O   -0.421310
     2  C    0.032025
     3  C   -0.365726
     4  C    0.349616
     5  C   -0.332420
     6  C    0.051606
     7  O   -0.258610
     8  C    0.042588
     9  C   -0.306828
    10  H    0.288227
    11  H    0.080024
    12  H    0.112652
    13  H    0.108516
    14  H    0.108950
    15  H    0.104009
    16  H    0.090322
    17  H    0.090724
    18  H    0.111118
    19  H    0.114517
 Sum of Mulliken charges =   0.00000

 Dipole moment (field-independent basis, Debye):
    X=             -1.3423    Y=             -0.5539    Z=             -0.7965  Tot=              1.6562
 Quadrupole moment (field-independent basis, Debye-Ang):
   XX=            -50.1804   YY=            -50.9135   ZZ=            -54.3570
   XY=              2.0319   XZ=             -6.8437   YZ=              1.5316

  Exact polarizability:  83.595  -0.088  74.555  -3.852   1.356  65.401
 Approx polarizability: 107.844  -2.732 111.000  -0.963   0.509 105.232

                      1                      2                      3
                      A                      A                      A
 Frequencies --     78.4371               163.0967               223.4842
 Red. masses --      3.5642                 4.5749                 3.6933
 Frc consts  --      0.0129                 0.0717                 0.1087
 IR Inten    --      3.0335                 0.7670                 5.0875

                      4                      5                      6
                      A                      A                      A
 Frequencies --    288.3018               329.5073               358.8943
 Red. masses --      1.2821                 1.9429                 3.1365
 Frc consts  --      0.0628                 0.1243                 0.2380
 IR Inten    --     82.3189                11.5956                12.7443

                      7                      8                      9
                      A                      A                      A
 Frequencies --    387.9912               458.3365               480.2061
 Red. masses --      1.9226                 2.2644                 3.9053
 Frc consts  --      0.1705                 0.2803                 0.5306
 IR Inten    --      2.1545                 5.1794                10.1971

                     10                     11                     12
                      A                      A                      A
 Frequencies --    594.2467               668.1197               770.0945
 Red. masses --      3.4365                 5.3216                 3.0334
 Frc consts  --      0.7150                 1.3996                 1.0599
 IR Inten    --      4.4616                 1.9154                 3.1922

                     13                     14                     15
                      A                      A                      A
 Frequencies --    821.7259               825.0993               861.7746
 Red. masses --      4.0794                 2.5038                 2.2579
 Frc consts  --      1.6230                 1.0043                 0.9880
 IR Inten    --      1.5922                 1.9783                30.1677

                     16                     17                     18
                      A                      A                      A
 Frequencies --    879.6068               918.3967               935.2882
 Red. masses --      2.0460                 1.5626                 2.5145
 Frc consts  --      0.9327                 0.7765                 1.2960
 IR Inten    --      2.0147                 0.8878                 6.2620

                     19                     20                     21
                      A                      A                      A
 Frequencies --    962.3840               986.3423              1009.9708
 Red. masses --      2.5909                 1.5335                 2.0581
 Frc consts  --      1.4138                 0.8790                 1.2369
 IR Inten    --     20.1409                 5.3739                 7.5391

                     22                     23                     24
                      A                      A                      A
 Frequencies --   1031.6242              1045.1921              1087.2729
 Red. masses --      1.3384                 1.4451                 1.9361
 Frc consts  --      0.8392                 0.9301                 1.3485
 IR Inten    --      5.6235                 6.8736                21.8456

                     25                     26                     27
                      A                      A                      A
 Frequencies --   1099.4431              1106.8311              1165.5035
 Red. masses --      2.2559                 1.2172                 2.2113
 Frc consts  --      1.6067                 0.8786                 1.7698
 IR Inten    --      4.0416                 1.8716                24.5436

                     28                     29                     30
                      A                      A                      A
 Frequencies --   1186.0581              1219.6364              1237.6669
 Red. masses --      1.3299                 1.4855                 2.0589
 Frc consts  --      1.1022                 1.3019                 1.8582
 IR Inten    --      0.7735                26.1741                 2.8982

                     31                     32                     33
                      A                      A                      A
 Frequencies --   1266.7952              1279.0812              1296.2284
 Red. masses --      1.3579                 1.5818                 1.4614
 Frc consts  --      1.2839                 1.5248                 1.4467
 IR Inten    --      9.1830                29.4777                13.1559

                     34                     35                     36
                      A                      A                      A
 Frequencies --   1302.5567              1339.0816              1356.4949
 Red. masses --      1.3305                 1.5475                 1.9057
 Frc consts  --      1.3301                 1.6349                 2.0660
 IR Inten    --     26.2070                 1.9219                 5.0625

                     37                     38                     39
                      A                      A                      A
 Frequencies --   1428.0995              1442.5190              1476.9707
 Red. masses --      1.3798                 3.0143                 1.0909
 Frc consts  --      1.6580                 3.6955                 1.4021
 IR Inten    --      4.5018                22.8111                 2.8241

                     40                     41                     42
                      A                      A                      A
 Frequencies --   1486.3154              1491.9580              3020.2026
 Red. masses --      1.1808                 1.6478                 1.0640
 Frc consts  --      1.5369                 2.1611                 5.7181
 IR Inten    --      4.4651                 4.8485                29.5354

                     43                     44                     45
                      A                      A                      A
 Frequencies --   3040.4622              3073.3319              3081.1061
 Red. masses --      1.0638                 1.0983                 1.0870
 Frc consts  --      5.7942                 6.1119                 6.0800
 IR Inten    --     19.4726                17.0091                37.7014

                     46                     47                     48
                      A                      A                      A
 Frequencies --   3090.4377              3121.1109              3137.7087
 Red. masses --      1.0990                 1.0546                 1.0867
 Frc consts  --      6.1842                 6.0525                 6.3035
 IR Inten    --     18.3371                11.4633                21.6392

                     49                     50                     51
                      A                      A                      A
 Frequencies --   3150.5922              3210.7438              3806.6599
 Red. masses --      1.0956                 1.1167                 1.0663
 Frc consts  --      6.4074                 6.7828                 9.1036
 IR Inten    --     50.2257                 9.6278                22.5121

 - Thermochemistry -
 -------------------
 Temperature   298.150 Kelvin.  Pressure   1.00000 Atm.
 Atom     1 has atomic number  8 and mass  15.99491

 Molecular mass:   126.06808 amu.
 Principal axes and moments of inertia in atomic units:
                           1         2         3
     Eigenvalues --   485.800731502.410961623.94014
           X            0.99968   0.00932  -0.02331
           Y           -0.00845   0.99926   0.03755
           Z            0.02364  -0.03734   0.99902
 This molecule is an asymmetric top.
 Rotational symmetry number  1.
 Warning -- assumption of classical behavior for rotation
           may cause significant error
 Rotational temperatures (Kelvin)      0.17829     0.05765     0.05334
 Rotational constants (GHZ):           3.71498     1.20123     1.11133
 Zero-point vibrational energy     419165.4 (Joules/Mol)
                                  100.18294 (Kcal/Mol)
 Warning -- explicit consideration of  10 degrees of freedom as
           vibrations may cause significant error
 Vibrational temperatures:    112.85   234.66   321.54   414.80   474.09
          (Kelvin)            516.37   558.23   659.44   690.91   854.99
                              961.27  1107.99  1182.28  1187.13  1239.90
                             1265.56  1321.37  1345.67  1384.65  1419.12
                             1453.12  1484.28  1503.80  1564.34  1581.85
                             1592.48  1676.90  1706.47  1754.78  1780.72
                             1822.63  1840.31  1864.98  1874.09  1926.64
                             1951.69  2054.71  2075.46  2125.03  2138.47
                             2146.59  4345.39  4374.54  4421.83  4433.02
                             4446.44  4490.58  4514.46  4532.99  4619.54
                             5476.93

 Zero-point correction=                           0.159652 (Hartree/Particle)
 Thermal correction to Energy=                    0.167551
 Thermal correction to Enthalpy=                  0.168495
 Thermal correction to Gibbs Free Energy=         0.127287
 Sum of electronic and zero-point Energies=           -422.999524
 Sum of electronic and thermal Energies=              -422.991625
 Sum of electronic and thermal Enthalpies=            -422.990681
 Sum of electronic and thermal Free Energies=         -423.031889

                     E (Thermal)             CV                S
                      KCal/Mol        Cal/Mol-Kelvin    Cal/Mol-Kelvin
 Total                  105.140             31.308             86.730
 Electronic               0.000              0.000              0.000
 Translational            0.889              2.981             40.409
 Rotational               0.889              2.981             28.562
 Vibrational            103.362             25.347             17.758
 Vibration     1          0.600              1.964              3.930
 Vibration     2          0.623              1.888              2.514
 Vibration     3          0.649              1.805              1.931
 Vibration     4          0.685              1.695              1.484
 Vibration     5          0.712              1.617              1.263
 Vibration     6          0.734              1.557              1.127
 Vibration     7          0.756              1.496              1.008
 Vibration     8          0.816              1.342              0.771
 Vibration     9          0.837              1.294              0.710
 Vibration    10          0.952              1.044              0.460

 Optimization completed.
    -- Stationary point found.
 Normal termination of Gaussian 09 at Tue Jan 28 02:42:14 2020.
