 Gaussian 09, Revision D.01,
 Gaussian 09:  ES64L-G09RevD.01 24-Apr-2013

 -----------------------------
 # b3lyp 6-31G(2df,p) opt Freq
 -----------------------------

 -----
 titel
 -----
 Symbolic Z-matrix:
 Charge =  0 Multiplicity = 1

 SCF Done:  E(RB3LYP) =  -423.157213187     A.U. after   15 cycles
 Optimization completed.
    -- Stationary point found.
 Normal termination of Gaussian 09 at Tue Jan 28 08:18:45 2020.

 ----------------------------------------------------------------------
 #N Geom=AllCheck Guess=TCheck SCRF=Check GenChk RB3LYP/6-31G(2df,p) Fr
 eq
 ----------------------------------------------------------------------

 Structure from the checkpoint file:  "/scratch/puck/g09_994eca5f-9cc1-48cf-ba3f-09ef3a1a3982/Gau-79840.chk"
 -----
 titel
 -----
 Charge =  0 Multiplicity = 1

                         Standard orientation:
 ---------------------------------------------------------------------
 Center     Atomic      Atomic             Coordinates (Angstroms)
 Number     Number       Type             X           Y           Z
 ---------------------------------------------------------------------
      1          6           0       -0.660967    2.430737   -0.002103
      2          6           0       -0.834502    0.948805   -0.392106
      3          6           0       -1.886248    0.264895    0.520763
      4          6           0       -2.194004   -1.160939    0.117441
      5          8           0       -3.305544   -1.589148   -0.062561
      6          6           0        0.450567    0.249082   -0.357530
      7          6           0        1.511368   -0.321488   -0.304468
      8          6           0        2.825801   -0.963474   -0.251580
      9          8           0        3.765265   -0.266704    0.554765
     10          1           0        0.058922    2.921642   -0.661881
     11          1           0       -1.616882    2.957559   -0.076981
     12          1           0       -0.296895    2.518294    1.025863
     13          1           0       -1.215844    0.916433   -1.422265
     14          1           0       -1.494793    0.247935    1.547323
     15          1           0       -2.820705    0.832852    0.517153
     16          1           0       -1.299899   -1.810924   -0.005097
     17          1           0        2.739325   -1.962161    0.190671
     18          1           0        3.202821   -1.104140   -1.277247
     19          1           0        3.794088    0.643619    0.242323
 ---------------------------------------------------------------------

 SCF Done:  E(RB3LYP) =  -423.157213187     A.U. after    1 cycles

 The electronic state is 1-A.
 Alpha  occ. eigenvalues --  -19.14562 -19.13980 -10.27117 -10.25710 -10.23153
 Alpha  occ. eigenvalues --  -10.20217 -10.19454 -10.18759 -10.18339  -1.04619
 Alpha  occ. eigenvalues --   -1.02736  -0.83590  -0.76490  -0.72753  -0.69550
 Alpha  occ. eigenvalues --   -0.63128  -0.58113  -0.53528  -0.50511  -0.48487
 Alpha  occ. eigenvalues --   -0.47168  -0.45002  -0.44411  -0.43611  -0.40529
 Alpha  occ. eigenvalues --   -0.39507  -0.38278  -0.37749  -0.36064  -0.35436
 Alpha  occ. eigenvalues --   -0.29309  -0.27216  -0.26426  -0.24601
 Alpha virt. eigenvalues --   -0.02352   0.02305   0.04397   0.08623   0.10432
 Alpha virt. eigenvalues --    0.11884   0.12338   0.13441   0.14434   0.14946
 Alpha virt. eigenvalues --    0.16627   0.17675   0.18303   0.20029   0.21236

 Mulliken charges:
               1
     1  C   -0.386288
     2  C   -0.156552
     3  C   -0.269111
     4  C    0.153511
     5  O   -0.241886
     6  C    0.083255
     7  C    0.023446
     8  C   -0.192321
     9  O   -0.399820
    10  H    0.126871
    11  H    0.122115
    12  H    0.130275
    13  H    0.117833
    14  H    0.129180
    15  H    0.120931
    16  H    0.089406
    17  H    0.142058
    18  H    0.119701
    19  H    0.287398
 Sum of Mulliken charges =   0.00000

 Dipole moment (field-independent basis, Debye):
    X=              1.3790    Y=              2.3480    Z=             -0.6469  Tot=              2.7988
 Quadrupole moment (field-independent basis, Debye-Ang):
   XX=            -66.0206   YY=            -51.8333   ZZ=            -53.0841
   XY=             -4.9371   XZ=             -5.0494   YZ=             -0.2664

  Exact polarizability: 107.049  -8.025  81.004   0.444   1.429  57.493
 Approx polarizability: 153.038 -15.039 111.910   5.603   1.028  87.775

                      1                      2                      3
                      A                      A                      A
 Frequencies --     11.3226                55.6180                61.9430
 Red. masses --      3.2353                 3.7687                 4.2330
 Frc consts  --      0.0002                 0.0069                 0.0096
 IR Inten    --      2.0533                 4.5448                 3.3782

                      4                      5                      6
                      A                      A                      A
 Frequencies --    102.6220               117.1101               192.9732
 Red. masses --      4.1990                 2.4717                 2.6076
 Frc consts  --      0.0261                 0.0200                 0.0572
 IR Inten    --      0.3693                 3.5820                 4.9168

                      7                      8                      9
                      A                      A                      A
 Frequencies --    228.2860               257.0169               291.9460
 Red. masses --      1.6003                 1.4393                 2.2392
 Frc consts  --      0.0491                 0.0560                 0.1124
 IR Inten    --      1.1462                 6.1201                36.1283

                     10                     11                     12
                      A                      A                      A
 Frequencies --    335.6584               361.0554               433.4590
 Red. masses --      1.8739                 2.8581                 5.2073
 Frc consts  --      0.1244                 0.2195                 0.5764
 IR Inten    --     68.1902                28.7745                 8.0007

                     13                     14                     15
                      A                      A                      A
 Frequencies --    503.1288               550.7742               589.1891
 Red. masses --      3.6517                 2.5881                 5.3435
 Frc consts  --      0.5446                 0.4626                 1.0929
 IR Inten    --      2.5515                 6.9873                 0.9340

                     16                     17                     18
                      A                      A                      A
 Frequencies --    715.9270               795.3591               915.2071
 Red. masses --      3.2858                 1.6697                 2.4815
 Frc consts  --      0.9923                 0.6223                 1.2246
 IR Inten    --     12.3416                 0.9935                 6.6640

                     19                     20                     21
                      A                      A                      A
 Frequencies --    961.5068               980.9009               996.2317
 Red. masses --      1.4184                 1.6199                 1.9567
 Frc consts  --      0.7726                 0.9183                 1.1442
 IR Inten    --      1.7628                42.8463                 4.7977

                     22                     23                     24
                      A                      A                      A
 Frequencies --   1042.4309              1078.3256              1096.3326
 Red. masses --      5.2102                 2.7605                 2.5415
 Frc consts  --      3.3358                 1.8912                 1.7998
 IR Inten    --     46.9470                50.6581                14.3386

                     25                     26                     27
                      A                      A                      A
 Frequencies --   1124.4661              1179.3826              1212.8862
 Red. masses --      2.1457                 2.2488                 1.1601
 Frc consts  --      1.5985                 1.8430                 1.0055
 IR Inten    --      5.4975                 7.5796                 9.7906

                     28                     29                     30
                      A                      A                      A
 Frequencies --   1220.4750              1289.6106              1334.5619
 Red. masses --      1.2169                 1.3317                 1.3206
 Frc consts  --      1.0680                 1.3049                 1.3858
 IR Inten    --     12.5101                 0.6807                 5.6745

                     31                     32                     33
                      A                      A                      A
 Frequencies --   1354.0310              1361.7606              1407.7189
 Red. masses --      1.5191                 1.2284                 1.2068
 Frc consts  --      1.6410                 1.3421                 1.4090
 IR Inten    --     35.9300                 2.2569                 1.4377

                     34                     35                     36
                      A                      A                      A
 Frequencies --   1417.8023              1427.2518              1456.7078
 Red. masses --      1.2294                 1.2012                 1.0924
 Frc consts  --      1.4560                 1.4417                 1.3658
 IR Inten    --     97.6063                 6.7805                 4.5226

                     37                     38                     39
                      A                      A                      A
 Frequencies --   1491.6072              1492.2126              1498.9985
 Red. masses --      1.0780                 1.0444                 1.0525
 Frc consts  --      1.4132                 1.3701                 1.3933
 IR Inten    --      0.5860                 5.5403                 1.1584

                     40                     41                     42
                      A                      A                      A
 Frequencies --   1831.7858              2354.5397              2896.5532
 Red. masses --      9.8989                11.8743                 1.0829
 Frc consts  --     19.5698                38.7856                 5.3532
 IR Inten    --    188.2966                 4.4216                79.2393

                     43                     44                     45
                      A                      A                      A
 Frequencies --   2977.1924              3006.8850              3025.7725
 Red. masses --      1.0713                 1.0797                 1.0648
 Frc consts  --      5.5946                 5.7516                 5.7435
 IR Inten    --     49.5152                 8.0491                10.6648

                     46                     47                     48
                      A                      A                      A
 Frequencies --   3042.0421              3063.1353              3102.5352
 Red. masses --      1.0344                 1.0885                 1.0986
 Frc consts  --      5.6397                 6.0175                 6.2307
 IR Inten    --     21.3973                15.4853                10.0837

                     49                     50                     51
                      A                      A                      A
 Frequencies --   3117.6012              3123.4621              3816.6469
 Red. masses --      1.1025                 1.1025                 1.0663
 Frc consts  --      6.3134                 6.3374                 9.1513
 IR Inten    --     27.4670                20.8489                19.8238

 - Thermochemistry -
 -------------------
 Temperature   298.150 Kelvin.  Pressure   1.00000 Atm.
 Atom     1 has atomic number  6 and mass  12.00000

 Molecular mass:   126.06808 amu.
 Principal axes and moments of inertia in atomic units:
                           1         2         3
     Eigenvalues --   744.838372541.918783132.62396
           X            0.99963  -0.02603  -0.00741
           Y            0.02608   0.99963   0.00740
           Z            0.00721  -0.00759   0.99995
 This molecule is an asymmetric top.
 Rotational symmetry number  1.
 Warning -- assumption of classical behavior for rotation
           may cause significant error
 Rotational temperatures (Kelvin)      0.11629     0.03407     0.02765
 Rotational constants (GHZ):           2.42300     0.70999     0.57611
 Zero-point vibrational energy     408536.4 (Joules/Mol)
                                   97.64254 (Kcal/Mol)
 Warning -- explicit consideration of  15 degrees of freedom as
           vibrations may cause significant error
 Vibrational temperatures:     16.29    80.02    89.12   147.65   168.50
          (Kelvin)            277.65   328.45   369.79   420.04   482.94
                              519.48   623.65   723.89   792.44   847.71
                             1030.06  1144.34  1316.78  1383.39  1411.30
                             1433.35  1499.82  1551.47  1577.38  1617.85
                             1696.87  1745.07  1755.99  1855.46  1920.13
                             1948.15  1959.27  2025.39  2039.90  2053.49
                             2095.88  2146.09  2146.96  2156.72  2635.53
                             3387.65  4167.49  4283.51  4326.23  4353.41
                             4376.81  4407.16  4463.85  4485.53  4493.96
                             5491.30

 Zero-point correction=                           0.155603 (Hartree/Particle)
 Thermal correction to Energy=                    0.166593
 Thermal correction to Enthalpy=                  0.167537
 Thermal correction to Gibbs Free Energy=         0.116458
 Sum of electronic and zero-point Energies=           -423.001610
 Sum of electronic and thermal Energies=              -422.990620
 Sum of electronic and thermal Enthalpies=            -422.989676
 Sum of electronic and thermal Free Energies=         -423.040756

                     E (Thermal)             CV                S
                      KCal/Mol        Cal/Mol-Kelvin    Cal/Mol-Kelvin
 Total                  104.539             36.948            107.506
 Electronic               0.000              0.000              0.000
 Translational            0.889              2.981             40.409
 Rotational               0.889              2.981             30.162
 Vibrational            102.761             30.986             36.935
 Vibration     1          0.593              1.987              7.764
 Vibration     2          0.596              1.975              4.607
 Vibration     3          0.597              1.972              4.394
 Vibration     4          0.605              1.947              3.404
 Vibration     5          0.608              1.935              3.148
 Vibration     6          0.635              1.850              2.199
 Vibration     7          0.651              1.798              1.892
 Vibration     8          0.667              1.751              1.682
 Vibration     9          0.687              1.689              1.463
 Vibration    10          0.717              1.604              1.233
 Vibration    11          0.735              1.552              1.118
 Vibration    12          0.794              1.397              0.847
 Vibration    13          0.858              1.243              0.650
 Vibration    14          0.906              1.138              0.543
 Vibration    15          0.946              1.055              0.469

 Optimization completed on the basis of negligible forces.
    -- Stationary point found.
 Normal termination of Gaussian 09 at Tue Jan 28 09:05:23 2020.
