 Gaussian 09, Revision D.01,
 Gaussian 09:  ES64L-G09RevD.01 24-Apr-2013

 -----------------------------
 # b3lyp 6-31G(2df,p) opt Freq
 -----------------------------

 -----
 titel
 -----
 Symbolic Z-matrix:
 Charge =  0 Multiplicity = 1

 SCF Done:  E(RB3LYP) =  -423.199721178     A.U. after   14 cycles
 Optimization completed.
    -- Stationary point found.
 Normal termination of Gaussian 09 at Mon Jan 27 16:14:28 2020.

 ----------------------------------------------------------------------
 #N Geom=AllCheck Guess=TCheck SCRF=Check GenChk RB3LYP/6-31G(2df,p) Fr
 eq
 ----------------------------------------------------------------------

 Structure from the checkpoint file:  "/scratch/puck/g09_79fde8fa-51ad-46ac-b09b-a57d3d3e145c/Gau-47086.chk"
 -----
 titel
 -----
 Charge =  0 Multiplicity = 1

                         Standard orientation:
 ---------------------------------------------------------------------
 Center     Atomic      Atomic             Coordinates (Angstroms)
 Number     Number       Type             X           Y           Z
 ---------------------------------------------------------------------
      1          6           0       -1.449131   -1.773996   -0.277003
      2          6           0       -1.092672   -0.331413    0.046283
      3          6           0       -1.962877    0.671180   -0.688190
      4          6           0       -0.569592    0.002516    1.388241
      5          6           0        0.441254    0.022957    0.236384
      6          6           0        0.946524    1.350009   -0.222456
      7          8           0        0.424405    2.411841    0.033216
      8          6           0        1.429420   -1.084636    0.133101
      9          8           0        2.451661   -1.028892   -0.508132
     10          1           0       -0.907583   -2.500265    0.331799
     11          1           0       -2.518465   -1.923830   -0.091208
     12          1           0       -1.263140   -2.003399   -1.331355
     13          1           0       -3.006639    0.513103   -0.393331
     14          1           0       -1.691151    1.700311   -0.457776
     15          1           0       -1.900112    0.525184   -1.771824
     16          1           0       -0.783234    0.984686    1.796672
     17          1           0       -0.450295   -0.792424    2.118676
     18          1           0        1.876126    1.290339   -0.817428
     19          1           0        1.178406   -1.996993    0.716933
 ---------------------------------------------------------------------

 SCF Done:  E(RB3LYP) =  -423.199721178     A.U. after    1 cycles

 The electronic state is 1-A.
 Alpha  occ. eigenvalues --  -19.14507 -19.14105 -10.28044 -10.27231 -10.24048
 Alpha  occ. eigenvalues --  -10.22026 -10.21292 -10.19942 -10.18737  -1.05443
 Alpha  occ. eigenvalues --   -1.04647  -0.89737  -0.76072  -0.71043  -0.69435
 Alpha  occ. eigenvalues --   -0.63034  -0.58099  -0.53152  -0.50503  -0.48672
 Alpha  occ. eigenvalues --   -0.45707  -0.45169  -0.44006  -0.43227  -0.41813
 Alpha  occ. eigenvalues --   -0.40738  -0.40005  -0.39408  -0.37424  -0.36380
 Alpha  occ. eigenvalues --   -0.32512  -0.29439  -0.27338  -0.24438
 Alpha virt. eigenvalues --   -0.03548  -0.02985   0.07695   0.09881   0.11197
 Alpha virt. eigenvalues --    0.12082   0.13209   0.14885   0.15194   0.17122
 Alpha virt. eigenvalues --    0.17675   0.18104   0.19483   0.20476   0.21482

 Mulliken charges:
               1
     1  C   -0.453858
     2  C    0.289901
     3  C   -0.463305
     4  C   -0.358250
     5  C    0.074640
     6  C    0.090355
     7  O   -0.279467
     8  C    0.096823
     9  O   -0.266228
    10  H    0.123001
    11  H    0.130532
    12  H    0.134558
    13  H    0.122542
    14  H    0.164625
    15  H    0.123033
    16  H    0.149547
    17  H    0.123666
    18  H    0.118738
    19  H    0.079145
 Sum of Mulliken charges =   0.00000

 Dipole moment (field-independent basis, Debye):
    X=             -2.6675    Y=             -2.1107    Z=              0.9137  Tot=              3.5222
 Quadrupole moment (field-independent basis, Debye-Ang):
   XX=            -57.9002   YY=            -59.3009   ZZ=            -51.5314
   XY=              2.7165   XZ=              2.2820   YZ=             -1.8426

  Exact polarizability:  88.846   0.099  81.411  -4.485  -1.837  65.216
 Approx polarizability: 134.357  -2.644 121.637 -14.356  -0.580 102.417

                      1                      2                      3
                      A                      A                      A
 Frequencies --     77.3716               124.5845               173.1941
 Red. masses --      4.6674                 3.5237                 2.8051
 Frc consts  --      0.0165                 0.0322                 0.0496
 IR Inten    --      4.3416                 5.0500                 7.1739

                      4                      5                      6
                      A                      A                      A
 Frequencies --    192.0454               215.6000               230.6996
 Red. masses --      1.2085                 1.2837                 6.5683
 Frc consts  --      0.0263                 0.0352                 0.2060
 IR Inten    --      0.3068                 2.0600                 9.8822

                      7                      8                      9
                      A                      A                      A
 Frequencies --    254.5286               315.7199               324.3050
 Red. masses --      2.0099                 1.9230                 3.0968
 Frc consts  --      0.0767                 0.1129                 0.1919
 IR Inten    --      1.0269                 1.8599                 1.1743

                     10                     11                     12
                      A                      A                      A
 Frequencies --    379.4321               421.6341               436.3401
 Red. masses --      2.2360                 2.3755                 2.6788
 Frc consts  --      0.1897                 0.2488                 0.3005
 IR Inten    --      0.2694                 2.3372                 4.9276

                     13                     14                     15
                      A                      A                      A
 Frequencies --    493.1225               627.6403               670.9029
 Red. masses --      3.7910                 4.5151                 4.8854
 Frc consts  --      0.5431                 1.0479                 1.2956
 IR Inten    --      9.8104                 7.7796                32.6807

                     16                     17                     18
                      A                      A                      A
 Frequencies --    752.8736               819.2678               931.6153
 Red. masses --      4.0328                 4.1886                 1.4360
 Frc consts  --      1.3468                 1.6564                 0.7343
 IR Inten    --      0.9452                42.2778                 3.9209

                     19                     20                     21
                      A                      A                      A
 Frequencies --    938.4297               973.0293              1008.0526
 Red. masses --      1.3575                 1.3270                 1.9157
 Frc consts  --      0.7044                 0.7403                 1.1469
 IR Inten    --     29.5806                 1.5300                39.3894

                     22                     23                     24
                      A                      A                      A
 Frequencies --   1025.4066              1050.0338              1063.7302
 Red. masses --      1.6941                 1.4021                 1.7170
 Frc consts  --      1.0495                 0.9108                 1.1447
 IR Inten    --     17.7901                 0.7051                 0.0236

                     25                     26                     27
                      A                      A                      A
 Frequencies --   1088.9454              1134.2250              1168.5340
 Red. masses --      1.4434                 1.6960                 2.7811
 Frc consts  --      1.0084                 1.2855                 2.2374
 IR Inten    --     13.1791                44.5463                38.9888

                     28                     29                     30
                      A                      A                      A
 Frequencies --   1241.8581              1312.8951              1359.7724
 Red. masses --      3.5771                 2.7592                 2.4414
 Frc consts  --      3.2503                 2.8021                 2.6597
 IR Inten    --     30.6470                33.5189                25.1915

                     31                     32                     33
                      A                      A                      A
 Frequencies --   1408.9489              1419.8670              1422.5782
 Red. masses --      1.2680                 1.2686                 1.2381
 Frc consts  --      1.4831                 1.5068                 1.4762
 IR Inten    --     10.0560                 0.5288                 1.8569

                     34                     35                     36
                      A                      A                      A
 Frequencies --   1439.7777              1472.9256              1486.6672
 Red. masses --      1.2603                 1.2247                 1.0519
 Frc consts  --      1.5393                 1.5654                 1.3697
 IR Inten    --      5.5490                12.2563                 5.2944

                     37                     38                     39
                      A                      A                      A
 Frequencies --   1487.6465              1510.7066              1513.4002
 Red. masses --      1.0465                 1.0677                 1.1321
 Frc consts  --      1.3646                 1.4357                 1.5278
 IR Inten    --      1.1484                 1.2580                10.1016

                     40                     41                     42
                      A                      A                      A
 Frequencies --   1791.5862              1804.9833              2882.9066
 Red. masses --     10.0207                10.2131                 1.0827
 Frc consts  --     18.9506                19.6044                 5.3019
 IR Inten    --    206.8725               179.9644                85.3665

                     43                     44                     45
                      A                      A                      A
 Frequencies --   2974.1977              3033.9195              3039.4710
 Red. masses --      1.0854                 1.0394                 1.0385
 Frc consts  --      5.6570                 5.6371                 5.6526
 IR Inten    --     47.1918                12.5343                36.4271

                     46                     47                     48
                      A                      A                      A
 Frequencies --   3090.9237              3097.6555              3122.7019
 Red. masses --      1.1004                 1.1003                 1.0577
 Frc consts  --      6.1943                 6.2204                 6.0770
 IR Inten    --      7.7867                24.0883                 4.4622

                     49                     50                     51
                      A                      A                      A
 Frequencies --   3129.6808              3160.8403              3218.7051
 Red. masses --      1.0959                 1.0971                 1.1164
 Frc consts  --      6.3247                 6.4578                 6.8147
 IR Inten    --     23.5787                 1.4397                 1.0050

 - Thermochemistry -
 -------------------
 Temperature   298.150 Kelvin.  Pressure   1.00000 Atm.
 Atom     1 has atomic number  6 and mass  12.00000

 Molecular mass:   126.06808 amu.
 Principal axes and moments of inertia in atomic units:
                           1         2         3
     Eigenvalues --   944.352931092.748091682.24193
           X            0.99465   0.10170   0.01836
           Y           -0.10147   0.99475  -0.01329
           Z           -0.01961   0.01136   0.99974
 This molecule is an asymmetric top.
 Rotational symmetry number  1.
 Warning -- assumption of classical behavior for rotation
           may cause significant error
 Rotational temperatures (Kelvin)      0.09172     0.07926     0.05149
 Rotational constants (GHZ):           1.91109     1.65156     1.07282
 Zero-point vibrational energy     408619.7 (Joules/Mol)
                                   97.66245 (Kcal/Mol)
 Warning -- explicit consideration of  13 degrees of freedom as
           vibrations may cause significant error
 Vibrational temperatures:    111.32   179.25   249.19   276.31   310.20
          (Kelvin)            331.92   366.21   454.25   466.60   545.92
                              606.64   627.80   709.49   903.03   965.28
                             1083.22  1178.74  1340.38  1350.19  1399.97
                             1450.36  1475.33  1510.76  1530.47  1566.75
                             1631.89  1681.26  1786.75  1888.96  1956.41
                             2027.16  2042.87  2046.77  2071.52  2119.21
                             2138.98  2140.39  2173.57  2177.44  2577.69
                             2596.97  4147.85  4279.20  4365.13  4373.12
                             4447.14  4456.83  4492.87  4502.91  4547.74
                             4630.99

 Zero-point correction=                           0.155635 (Hartree/Particle)
 Thermal correction to Energy=                    0.165414
 Thermal correction to Enthalpy=                  0.166358
 Thermal correction to Gibbs Free Energy=         0.121309
 Sum of electronic and zero-point Energies=           -423.044086
 Sum of electronic and thermal Energies=              -423.034307
 Sum of electronic and thermal Enthalpies=            -423.033363
 Sum of electronic and thermal Free Energies=         -423.078412

                     E (Thermal)             CV                S
                      KCal/Mol        Cal/Mol-Kelvin    Cal/Mol-Kelvin
 Total                  103.799             35.731             94.814
 Electronic               0.000              0.000              0.000
 Translational            0.889              2.981             40.409
 Rotational               0.889              2.981             28.942
 Vibrational            102.021             29.770             25.463
 Vibration     1          0.599              1.964              3.956
 Vibration     2          0.610              1.928              3.028
 Vibration     3          0.627              1.875              2.401
 Vibration     4          0.634              1.851              2.208
 Vibration     5          0.645              1.817              1.996
 Vibration     6          0.652              1.794              1.873
 Vibration     7          0.665              1.755              1.699
 Vibration     8          0.703              1.644              1.332
 Vibration     9          0.709              1.627              1.288
 Vibration    10          0.749              1.514              1.041
 Vibration    11          0.784              1.423              0.886
 Vibration    12          0.797              1.391              0.838
 Vibration    13          0.849              1.265              0.676

 Optimization completed.
    -- Stationary point found.
 Normal termination of Gaussian 09 at Mon Jan 27 16:56:59 2020.
