 Gaussian 09, Revision D.01,
 Gaussian 09:  ES64L-G09RevD.01 24-Apr-2013

 -----------------------------
 # b3lyp 6-31G(2df,p) opt Freq
 -----------------------------

 -----
 titel
 -----
 Symbolic Z-matrix:
 Charge =  0 Multiplicity = 1

 SCF Done:  E(RB3LYP) =  -423.149224140     A.U. after   13 cycles
 Optimization completed.
    -- Stationary point found.
 Normal termination of Gaussian 09 at Mon Jan 27 18:30:26 2020.

 ----------------------------------------------------------------------
 #N Geom=AllCheck Guess=TCheck SCRF=Check GenChk RB3LYP/6-31G(2df,p) Fr
 eq
 ----------------------------------------------------------------------

 Structure from the checkpoint file:  "/scratch/puck/g09_a03c06e4-6dc1-44ba-8e6d-f8d5da24906e/Gau-18518.chk"
 -----
 titel
 -----
 Charge =  0 Multiplicity = 1

                         Standard orientation:
 ---------------------------------------------------------------------
 Center     Atomic      Atomic             Coordinates (Angstroms)
 Number     Number       Type             X           Y           Z
 ---------------------------------------------------------------------
      1          6           0       -2.264348   -0.990687    0.136494
      2          6           0       -0.856023   -0.519310   -0.002195
      3          8           0       -0.071473   -1.047879   -1.079984
      4          6           0        0.787530    0.131145   -1.017027
      5          6           0        1.987283   -0.246190   -0.162744
      6          8           0        1.409600   -0.596964    1.102217
      7          6           0        0.095913   -0.085605    1.109253
      8          6           0       -0.183543    0.843241   -0.040355
      9          6           0       -0.640855    2.270206   -0.039280
     10          1           0       -2.838998   -0.790825   -0.773828
     11          1           0       -2.288165   -2.069373    0.326495
     12          1           0       -2.756045   -0.488115    0.974912
     13          1           0        0.990644    0.558937   -2.000435
     14          1           0        2.517708   -1.116253   -0.560799
     15          1           0        2.692827    0.592704   -0.051085
     16          1           0       -0.290691    0.107749    2.103859
     17          1           0       -1.080011    2.555664   -1.001819
     18          1           0       -1.398589    2.436503    0.733188
     19          1           0        0.190564    2.954952    0.166780
 ---------------------------------------------------------------------

 SCF Done:  E(RB3LYP) =  -423.149224140     A.U. after    1 cycles

 The electronic state is 1-A.
 Alpha  occ. eigenvalues --  -19.13835 -19.13417 -10.23973 -10.23863 -10.22976
 Alpha  occ. eigenvalues --  -10.22696 -10.19538 -10.19008 -10.18497  -1.07165
 Alpha  occ. eigenvalues --   -1.01105  -0.83215  -0.76249  -0.71917  -0.71212
 Alpha  occ. eigenvalues --   -0.61598  -0.58154  -0.51275  -0.50656  -0.49978
 Alpha  occ. eigenvalues --   -0.44520  -0.44007  -0.42713  -0.41449  -0.41054
 Alpha  occ. eigenvalues --   -0.40582  -0.39595  -0.37853  -0.35350  -0.33220
 Alpha  occ. eigenvalues --   -0.31416  -0.29337  -0.24349  -0.21025
 Alpha virt. eigenvalues --    0.08175   0.09143   0.10526   0.12119   0.12387
 Alpha virt. eigenvalues --    0.13971   0.14206   0.15154   0.15740   0.16343
 Alpha virt. eigenvalues --    0.17327   0.17613   0.18540   0.19786   0.21496

 Mulliken charges:
               1
     1  C   -0.505265
     2  C    0.398687
     3  O   -0.339708
     4  C    0.015811
     5  C   -0.079712
     6  O   -0.269593
     7  C   -0.013205
     8  C    0.152774
     9  C   -0.519981
    10  H    0.128970
    11  H    0.138335
    12  H    0.123324
    13  H    0.084100
    14  H    0.118626
    15  H    0.089641
    16  H    0.102058
    17  H    0.124632
    18  H    0.125006
    19  H    0.125500
 Sum of Mulliken charges =   0.00000

 Dipole moment (field-independent basis, Debye):
    X=             -0.8484    Y=              2.0993    Z=             -0.2159  Tot=              2.2746
 Quadrupole moment (field-independent basis, Debye-Ang):
   XX=            -50.2449   YY=            -54.2143   ZZ=            -53.8806
   XY=              1.3795   XZ=             -4.4251   YZ=             -0.8273

  Exact polarizability:  83.343   2.409  73.604  -3.686  -0.758  67.904
 Approx polarizability: 111.815   3.920 106.874  -2.990  -0.596 106.941

                      1                      2                      3
                      A                      A                      A
 Frequencies --    160.6298               169.6420               185.3835
 Red. masses --      2.1334                 1.1200                 1.0458
 Frc consts  --      0.0324                 0.0190                 0.0212
 IR Inten    --      0.3614                 0.1475                 0.3290

                      4                      5                      6
                      A                      A                      A
 Frequencies --    217.7573               241.7551               282.4077
 Red. masses --      2.8546                 2.6051                 2.5194
 Frc consts  --      0.0798                 0.0897                 0.1184
 IR Inten    --      1.4366                 3.1392                 0.8357

                      7                      8                      9
                      A                      A                      A
 Frequencies --    304.0333               437.5098               559.1134
 Red. masses --      3.8817                 3.1671                 4.2831
 Frc consts  --      0.2114                 0.3572                 0.7889
 IR Inten    --      1.5389                 3.0763                 0.9811

                     10                     11                     12
                      A                      A                      A
 Frequencies --    594.9405               632.3574               735.8061
 Red. masses --      3.5444                 3.5480                 3.5711
 Frc consts  --      0.7392                 0.8359                 1.1392
 IR Inten    --      2.0521                 3.6881                 3.5284

                     13                     14                     15
                      A                      A                      A
 Frequencies --    758.5503               779.5441               858.0906
 Red. masses --      4.6188                 5.3943                 3.1825
 Frc consts  --      1.5658                 1.9314                 1.3806
 IR Inten    --     18.3729                17.2181                16.3507

                     16                     17                     18
                      A                      A                      A
 Frequencies --    901.4121               917.2602               954.0875
 Red. masses --      2.2231                 2.5910                 2.2614
 Frc consts  --      1.0643                 1.2844                 1.2129
 IR Inten    --     15.9984                13.9479                 1.0215

                     19                     20                     21
                      A                      A                      A
 Frequencies --    967.0013               983.7376              1007.3783
 Red. masses --      2.2646                 1.6216                 1.8573
 Frc consts  --      1.2476                 0.9246                 1.1105
 IR Inten    --     17.4733                 8.5911                15.6113

                     22                     23                     24
                      A                      A                      A
 Frequencies --   1037.9128              1098.5002              1105.6090
 Red. masses --      2.2237                 2.3306                 2.1686
 Frc consts  --      1.4114                 1.6570                 1.5618
 IR Inten    --     22.5555                50.9937                35.8758

                     25                     26                     27
                      A                      A                      A
 Frequencies --   1114.6299              1168.9302              1184.3187
 Red. masses --      2.3755                 2.1965                 1.3029
 Frc consts  --      1.7389                 1.7683                 1.0767
 IR Inten    --     30.3660                22.4622                 0.9650

                     28                     29                     30
                      A                      A                      A
 Frequencies --   1219.4413              1238.3624              1272.3152
 Red. masses --      2.5072                 1.6941                 1.4163
 Frc consts  --      2.1966                 1.5307                 1.3508
 IR Inten    --     19.5584                 1.5025                 7.3523

                     31                     32                     33
                      A                      A                      A
 Frequencies --   1296.3509              1320.1013              1367.4521
 Red. masses --      2.2618                 2.1410                 1.4583
 Frc consts  --      2.2395                 2.1982                 1.6066
 IR Inten    --      6.6485                 6.0262                 0.3683

                     34                     35                     36
                      A                      A                      A
 Frequencies --   1408.3198              1415.6297              1471.7095
 Red. masses --      1.3567                 1.2283                 1.0785
 Frc consts  --      1.5854                 1.4503                 1.3762
 IR Inten    --      5.9564                 2.1033                 4.9887

                     37                     38                     39
                      A                      A                      A
 Frequencies --   1482.6198              1486.9216              1494.2188
 Red. masses --      1.6328                 1.0643                 1.0643
 Frc consts  --      2.1147                 1.3864                 1.4000
 IR Inten    --      2.3048                 5.4471                 1.6649

                     40                     41                     42
                      A                      A                      A
 Frequencies --   1499.1278              1510.4696              2978.6826
 Red. masses --      1.1008                 1.6944                 1.0694
 Frc consts  --      1.4576                 2.2777                 5.5905
 IR Inten    --      0.6853                 5.9200                74.6431

                     43                     44                     45
                      A                      A                      A
 Frequencies --   3021.7847              3032.1201              3081.1189
 Red. masses --      1.0359                 1.0350                 1.1008
 Frc consts  --      5.5733                 5.6061                 6.1571
 IR Inten    --     39.0858                22.8750                21.6717

                     46                     47                     48
                      A                      A                      A
 Frequencies --   3086.0044              3096.6486              3097.5872
 Red. masses --      1.0940                 1.0997                 1.1014
 Frc consts  --      6.1383                 6.2132                 6.2266
 IR Inten    --     23.5183                12.2985                14.3770

                     49                     50                     51
                      A                      A                      A
 Frequencies --   3103.3087              3111.2327              3180.1614
 Red. masses --      1.0907                 1.1004                 1.0917
 Frc consts  --      6.1891                 6.2757                 6.5049
 IR Inten    --     43.2769                16.5118                12.4406

 - Thermochemistry -
 -------------------
 Temperature   298.150 Kelvin.  Pressure   1.00000 Atm.
 Atom     1 has atomic number  6 and mass  12.00000

 Molecular mass:   126.06808 amu.
 Principal axes and moments of inertia in atomic units:
                           1         2         3
     Eigenvalues --   770.01352 997.272131212.60612
           X            0.99871   0.02748  -0.04261
           Y           -0.02834   0.99940  -0.01966
           Z            0.04205   0.02084   0.99890
 This molecule is an asymmetric top.
 Rotational symmetry number  1.
 Warning -- assumption of classical behavior for rotation
           may cause significant error
 Rotational temperatures (Kelvin)      0.11248     0.08685     0.07143
 Rotational constants (GHZ):           2.34378     1.80968     1.48832
 Zero-point vibrational energy     416479.8 (Joules/Mol)
                                   99.54106 (Kcal/Mol)
 Warning -- explicit consideration of  10 degrees of freedom as
           vibrations may cause significant error
 Vibrational temperatures:    231.11   244.08   266.73   313.30   347.83
          (Kelvin)            406.32   437.44   629.48   804.44   855.99
                              909.82  1058.66  1091.38  1121.59  1234.60
                             1296.93  1319.73  1372.72  1391.30  1415.38
                             1449.39  1493.32  1580.49  1590.72  1603.70
                             1681.83  1703.97  1754.50  1781.73  1830.58
                             1865.16  1899.33  1967.46  2026.26  2036.77
                             2117.46  2133.16  2139.35  2149.84  2156.91
                             2173.23  4285.65  4347.67  4362.54  4433.04
                             4440.07  4455.38  4456.73  4464.96  4476.36
                             4575.54

 Zero-point correction=                           0.158629 (Hartree/Particle)
 Thermal correction to Energy=                    0.166796
 Thermal correction to Enthalpy=                  0.167740
 Thermal correction to Gibbs Free Energy=         0.126355
 Sum of electronic and zero-point Energies=           -422.990595
 Sum of electronic and thermal Energies=              -422.982428
 Sum of electronic and thermal Enthalpies=            -422.981484
 Sum of electronic and thermal Free Energies=         -423.022869

                     E (Thermal)             CV                S
                      KCal/Mol        Cal/Mol-Kelvin    Cal/Mol-Kelvin
 Total                  104.666             31.597             87.102
 Electronic               0.000              0.000              0.000
 Translational            0.889              2.981             40.409
 Rotational               0.889              2.981             28.323
 Vibrational            102.889             25.635             18.370
 Vibration     1          0.622              1.891              2.542
 Vibration     2          0.625              1.880              2.439
 Vibration     3          0.631              1.860              2.274
 Vibration     4          0.646              1.814              1.978
 Vibration     5          0.658              1.776              1.790
 Vibration     6          0.681              1.706              1.519
 Vibration     7          0.695              1.666              1.395
 Vibration     8          0.798              1.388              0.834
 Vibration     9          0.915              1.120              0.526
 Vibration    10          0.953              1.043              0.458

 Optimization completed.
    -- Stationary point found.
 Normal termination of Gaussian 09 at Mon Jan 27 20:19:00 2020.
