 Gaussian 09, Revision D.01,
 Gaussian 09:  ES64L-G09RevD.01 24-Apr-2013

 -----------------------------
 # b3lyp 6-31G(2df,p) opt Freq
 -----------------------------

 -----
 titel
 -----
 Symbolic Z-matrix:
 Charge =  0 Multiplicity = 1

 SCF Done:  E(RB3LYP) =  -423.142521706     A.U. after   13 cycles
 Optimization completed.
    -- Stationary point found.
 Normal termination of Gaussian 09 at Tue Jan 28 09:59:37 2020.

 ----------------------------------------------------------------------
 #N Geom=AllCheck Guess=TCheck SCRF=Check GenChk RB3LYP/6-31G(2df,p) Fr
 eq
 ----------------------------------------------------------------------

 Structure from the checkpoint file:  "/scratch/puck/g09_c6253996-5819-4864-8102-ae822b070adc/Gau-21627.chk"
 -----
 titel
 -----
 Charge =  0 Multiplicity = 1

                         Standard orientation:
 ---------------------------------------------------------------------
 Center     Atomic      Atomic             Coordinates (Angstroms)
 Number     Number       Type             X           Y           Z
 ---------------------------------------------------------------------
      1          8           0       -2.447820   -0.745750   -0.131160
      2          6           0       -1.883225    0.552518   -0.126094
      3          6           0       -0.383877    0.491828   -0.020492
      4          6           0        0.579651    1.700313    0.029093
      5          6           0        1.631412    0.614379   -0.241628
      6          6           0        1.332741   -0.570673    0.772395
      7          6           0        1.080163   -1.508883   -0.428015
      8          6           0        0.582241   -0.209609   -1.073977
      9          8           0       -0.003004   -0.225295    1.178931
     10          1           0       -2.049293   -1.203588    0.618855
     11          1           0       -2.174595    1.035731   -1.064119
     12          1           0       -2.277632    1.165008    0.701898
     13          1           0        0.473468    2.361830   -0.835404
     14          1           0        0.605626    2.272834    0.959621
     15          1           0        2.656700    0.797237   -0.557039
     16          1           0        1.951077   -0.821924    1.632554
     17          1           0        2.007135   -1.849869   -0.897598
     18          1           0        0.391629   -2.343008   -0.273829
     19          1           0        0.387842   -0.065124   -2.134804
 ---------------------------------------------------------------------

 SCF Done:  E(RB3LYP) =  -423.142521706     A.U. after    1 cycles

 The electronic state is 1-A.
 Alpha  occ. eigenvalues --  -19.14259 -19.12879 -10.23872 -10.23844 -10.22522
 Alpha  occ. eigenvalues --  -10.19732 -10.19470 -10.18566 -10.18419  -1.05876
 Alpha  occ. eigenvalues --   -1.00947  -0.85133  -0.77541  -0.70943  -0.65148
 Alpha  occ. eigenvalues --   -0.61403  -0.56123  -0.55279  -0.52254  -0.47748
 Alpha  occ. eigenvalues --   -0.46962  -0.46510  -0.43199  -0.42996  -0.39167
 Alpha  occ. eigenvalues --   -0.36895  -0.36102  -0.35004  -0.33109  -0.31946
 Alpha  occ. eigenvalues --   -0.30397  -0.28934  -0.26001  -0.25001
 Alpha virt. eigenvalues --    0.08545   0.09127   0.10856   0.11730   0.12372
 Alpha virt. eigenvalues --    0.14310   0.14518   0.15816   0.16519   0.17018
 Alpha virt. eigenvalues --    0.17365   0.17765   0.18822   0.19661   0.21565

 Mulliken charges:
               1
     1  O   -0.419778
     2  C   -0.181158
     3  C    0.399294
     4  C   -0.289704
     5  C   -0.070111
     6  C    0.080233
     7  C   -0.243790
     8  C   -0.089486
     9  O   -0.317384
    10  H    0.290326
    11  H    0.108931
    12  H    0.094357
    13  H    0.101914
    14  H    0.101826
    15  H    0.075963
    16  H    0.080158
    17  H    0.100605
    18  H    0.101382
    19  H    0.076422
 Sum of Mulliken charges =   0.00000

 Dipole moment (field-independent basis, Debye):
    X=              1.9562    Y=              0.7165    Z=             -0.3550  Tot=              2.1133
 Quadrupole moment (field-independent basis, Debye-Ang):
   XX=            -55.7044   YY=            -51.3924   ZZ=            -53.2873
   XY=             -2.7276   XZ=             -1.2259   YZ=             -1.8640

  Exact polarizability:  78.381  -3.066  77.893   0.506  -0.413  66.654
 Approx polarizability: 109.848  -1.782 112.228   1.022  -1.961 106.985

                      1                      2                      3
                      A                      A                      A
 Frequencies --    107.4394               148.5997               293.2736
 Red. masses --      3.6256                 4.5924                 2.0494
 Frc consts  --      0.0247                 0.0597                 0.1039
 IR Inten    --      5.3743                 0.9136                 6.5503

                      4                      5                      6
                      A                      A                      A
 Frequencies --    365.7251               424.2782               448.4315
 Red. masses --      2.5817                 1.8932                 1.8782
 Frc consts  --      0.2035                 0.2008                 0.2225
 IR Inten    --     16.1596                 2.2985                12.6978

                      7                      8                      9
                      A                      A                      A
 Frequencies --    461.5844               550.5573               628.1837
 Red. masses --      1.4408                 3.7426                 4.0859
 Frc consts  --      0.1809                 0.6684                 0.9500
 IR Inten    --    114.0248                 6.0195                 4.7245

                     10                     11                     12
                      A                      A                      A
 Frequencies --    681.9076               730.5483               802.3750
 Red. masses --      3.5225                 4.4369                 2.5210
 Frc consts  --      0.9651                 1.3952                 0.9563
 IR Inten    --      5.3442                 4.4990                 3.9252

                     13                     14                     15
                      A                      A                      A
 Frequencies --    831.8470               845.5847               869.9454
 Red. masses --      1.8470                 2.8525                 2.8522
 Frc consts  --      0.7530                 1.2017                 1.2718
 IR Inten    --      4.9513                16.7397                 1.1004

                     16                     17                     18
                      A                      A                      A
 Frequencies --    925.5411               950.6579               964.0471
 Red. masses --      2.0373                 1.7194                 3.1261
 Frc consts  --      1.0283                 0.9155                 1.7118
 IR Inten    --      7.0729                 7.0304                43.4085

                     19                     20                     21
                      A                      A                      A
 Frequencies --    981.6174               995.9259              1018.8686
 Red. masses --      1.5853                 1.6244                 3.0409
 Frc consts  --      0.9000                 0.9493                 1.8599
 IR Inten    --      8.1781                 6.0550                 8.6787

                     22                     23                     24
                      A                      A                      A
 Frequencies --   1039.2187              1060.1810              1071.9857
 Red. masses --      1.2047                 2.3937                 3.0787
 Frc consts  --      0.7666                 1.5852                 2.0845
 IR Inten    --      3.6470                38.9044                49.4574

                     25                     26                     27
                      A                      A                      A
 Frequencies --   1079.6889              1114.0021              1140.3914
 Red. masses --      2.4488                 2.1998                 1.3859
 Frc consts  --      1.6819                 1.6084                 1.0619
 IR Inten    --     29.1063                 1.1288                 4.5801

                     28                     29                     30
                      A                      A                      A
 Frequencies --   1179.9728              1190.1518              1204.9249
 Red. masses --      1.5878                 1.4773                 1.6974
 Frc consts  --      1.3025                 1.2329                 1.4519
 IR Inten    --      3.2636                 1.2141                 4.3698

                     31                     32                     33
                      A                      A                      A
 Frequencies --   1235.3379              1248.1299              1260.7110
 Red. masses --      1.3107                 1.5665                 1.7186
 Frc consts  --      1.1785                 1.4378                 1.6094
 IR Inten    --      8.1776                13.3519                 4.0391

                     34                     35                     36
                      A                      A                      A
 Frequencies --   1274.5747              1317.9714              1337.0875
 Red. masses --      1.7858                 1.5223                 2.5435
 Frc consts  --      1.7093                 1.5580                 2.6791
 IR Inten    --      4.5155                11.4113                20.1927

                     37                     38                     39
                      A                      A                      A
 Frequencies --   1377.1172              1445.6388              1480.5578
 Red. masses --      1.3678                 1.3927                 1.1330
 Frc consts  --      1.5283                 1.7149                 1.4633
 IR Inten    --     11.6488                49.1261                 1.7516

                     40                     41                     42
                      A                      A                      A
 Frequencies --   1481.5802              1497.0747              2969.9129
 Red. masses --      1.1635                 1.0899                 1.0710
 Frc consts  --      1.5048                 1.4392                 5.5656
 IR Inten    --      0.4388                 0.8082                56.1643

                     43                     44                     45
                      A                      A                      A
 Frequencies --   3056.4258              3058.4405              3078.5756
 Red. masses --      1.0560                 1.0559                 1.0909
 Frc consts  --      5.8121                 5.8196                 6.0916
 IR Inten    --     31.3272                29.1271                20.5898

                     46                     47                     48
                      A                      A                      A
 Frequencies --   3119.0424              3120.3309              3132.1017
 Red. masses --      1.1095                 1.1092                 1.0903
 Frc consts  --      6.3592                 6.3632                 6.3020
 IR Inten    --     21.4964                22.5264                17.6102

                     49                     50                     51
                      A                      A                      A
 Frequencies --   3137.3873              3144.8042              3790.0517
 Red. masses --      1.0891                 1.0940                 1.0654
 Frc consts  --      6.3160                 6.3744                 9.0166
 IR Inten    --     63.9613                23.7146                25.2316

 - Thermochemistry -
 -------------------
 Temperature   298.150 Kelvin.  Pressure   1.00000 Atm.
 Atom     1 has atomic number  8 and mass  15.99491

 Molecular mass:   126.06808 amu.
 Principal axes and moments of inertia in atomic units:
                           1         2         3
     Eigenvalues --   610.184321087.273391278.15608
           X            0.99952  -0.03016  -0.00750
           Y            0.03014   0.99954  -0.00289
           Z            0.00759   0.00266   0.99997
 This molecule is an asymmetric top.
 Rotational symmetry number  1.
 Warning -- assumption of classical behavior for rotation
           may cause significant error
 Rotational temperatures (Kelvin)      0.14195     0.07966     0.06776
 Rotational constants (GHZ):           2.95770     1.65988     1.41199
 Zero-point vibrational energy     422702.3 (Joules/Mol)
                                  101.02828 (Kcal/Mol)
 Warning -- explicit consideration of   8 degrees of freedom as
           vibrations may cause significant error
 Vibrational temperatures:    154.58   213.80   421.95   526.20   610.44
          (Kelvin)            645.19   664.12   792.13   903.82   981.11
                             1051.09  1154.44  1196.84  1216.61  1251.66
                             1331.65  1367.78  1387.05  1412.33  1432.91
                             1465.92  1495.20  1525.36  1542.35  1553.43
                             1602.80  1640.77  1697.72  1712.36  1733.62
                             1777.37  1795.78  1813.88  1833.83  1896.26
                             1923.77  1981.36  2079.95  2130.19  2131.66
                             2153.95  4273.04  4397.51  4400.41  4429.38
                             4487.60  4489.45  4506.39  4513.99  4524.67
                             5453.03

 Zero-point correction=                           0.160999 (Hartree/Particle)
 Thermal correction to Energy=                    0.168169
 Thermal correction to Enthalpy=                  0.169114
 Thermal correction to Gibbs Free Energy=         0.129528
 Sum of electronic and zero-point Energies=           -422.981523
 Sum of electronic and thermal Energies=              -422.974352
 Sum of electronic and thermal Enthalpies=            -422.973408
 Sum of electronic and thermal Free Energies=         -423.012994

                     E (Thermal)             CV                S
                      KCal/Mol        Cal/Mol-Kelvin    Cal/Mol-Kelvin
 Total                  105.528             29.527             83.316
 Electronic               0.000              0.000              0.000
 Translational            0.889              2.981             40.409
 Rotational               0.889              2.981             28.230
 Vibrational            103.750             23.565             14.677
 Vibration     1          0.606              1.943              3.315
 Vibration     2          0.618              1.904              2.690
 Vibration     3          0.688              1.686              1.455
 Vibration     4          0.739              1.543              1.098
 Vibration     5          0.786              1.417              0.878
 Vibration     6          0.807              1.364              0.801
 Vibration     7          0.819              1.335              0.762
 Vibration     8          0.906              1.138              0.543

 Optimization completed.
    -- Stationary point found.
 Normal termination of Gaussian 09 at Tue Jan 28 10:46:13 2020.
