 Gaussian 09, Revision D.01,
 Gaussian 09:  ES64L-G09RevD.01 24-Apr-2013

 -----------------------------
 # b3lyp 6-31G(2df,p) opt Freq
 -----------------------------

 -----
 titel
 -----
 Symbolic Z-matrix:
 Charge =  0 Multiplicity = 1

 SCF Done:  E(RB3LYP) =  -423.177397812     A.U. after   13 cycles
 Optimization completed.
    -- Stationary point found.
 Normal termination of Gaussian 09 at Mon Jan 27 23:48:07 2020.

 ----------------------------------------------------------------------
 #N Geom=AllCheck Guess=TCheck SCRF=Check GenChk RB3LYP/6-31G(2df,p) Fr
 eq
 ----------------------------------------------------------------------

 Structure from the checkpoint file:  "/scratch/puck/g09_4b8b2af3-5170-4e59-bd2b-7fc6e3a8db8a/Gau-186183.chk"
 -----
 titel
 -----
 Charge =  0 Multiplicity = 1

                         Standard orientation:
 ---------------------------------------------------------------------
 Center     Atomic      Atomic             Coordinates (Angstroms)
 Number     Number       Type             X           Y           Z
 ---------------------------------------------------------------------
      1          8           0        2.157939   -1.016807   -0.245531
      2          6           0        0.804474   -0.726863   -0.492720
      3          6           0        0.593748    0.775665   -0.790258
      4          8           0        1.049615    1.326439    0.491100
      5          6           0       -0.200862    0.766008    0.990510
      6          6           0       -0.880899    1.055583   -0.369392
      7          6           0       -1.931259   -0.020848   -0.654156
      8          6           0       -1.541259   -1.163487    0.336236
      9          6           0       -0.119191   -0.777807    0.770770
     10          1           0        2.466018   -0.298388    0.325105
     11          1           0        0.472748   -1.398373   -1.288894
     12          1           0        1.084400    1.213727   -1.659666
     13          1           0       -0.517004    1.165710    1.953537
     14          1           0       -1.169921    2.093300   -0.533296
     15          1           0       -2.941961    0.351596   -0.465958
     16          1           0       -1.906223   -0.350763   -1.697658
     17          1           0       -2.221695   -1.176691    1.195015
     18          1           0       -1.579750   -2.156629   -0.120466
     19          1           0        0.304437   -1.370044    1.581801
 ---------------------------------------------------------------------

 SCF Done:  E(RB3LYP) =  -423.177397812     A.U. after    1 cycles

 The electronic state is 1-A.
 Alpha  occ. eigenvalues --  -19.14311 -19.12697 -10.23703 -10.23606 -10.22872
 Alpha  occ. eigenvalues --  -10.19593 -10.18894 -10.18793 -10.18522  -1.06019
 Alpha  occ. eigenvalues --   -1.00629  -0.84506  -0.72648  -0.72243  -0.69074
 Alpha  occ. eigenvalues --   -0.61150  -0.56814  -0.54492  -0.53002  -0.48108
 Alpha  occ. eigenvalues --   -0.47409  -0.45974  -0.41833  -0.41525  -0.38977
 Alpha  occ. eigenvalues --   -0.36887  -0.36049  -0.35433  -0.33975  -0.32969
 Alpha  occ. eigenvalues --   -0.32281  -0.29923  -0.26834  -0.23983
 Alpha virt. eigenvalues --    0.07167   0.09041   0.10414   0.12180   0.13372
 Alpha virt. eigenvalues --    0.13437   0.14487   0.16111   0.16519   0.16714
 Alpha virt. eigenvalues --    0.17153   0.17669   0.19298   0.21063   0.22195

 Mulliken charges:
               1
     1  O   -0.455219
     2  C    0.178768
     3  C    0.012345
     4  O   -0.321372
     5  C    0.078088
     6  C   -0.021965
     7  C   -0.252615
     8  C   -0.227815
     9  C   -0.090657
    10  H    0.282613
    11  H    0.079783
    12  H    0.082455
    13  H    0.083107
    14  H    0.081671
    15  H    0.105174
    16  H    0.107560
    17  H    0.100845
    18  H    0.105233
    19  H    0.072001
 Sum of Mulliken charges =   0.00000

 Dipole moment (field-independent basis, Debye):
    X=             -2.3804    Y=              0.3524    Z=             -0.0070  Tot=              2.4064
 Quadrupole moment (field-independent basis, Debye-Ang):
   XX=            -55.6917   YY=            -55.9042   ZZ=            -50.4762
   XY=              1.3510   XZ=              0.3347   YZ=             -1.2689

  Exact polarizability:  78.051   0.438  70.706  -0.696  -0.804  68.833
 Approx polarizability: 110.886   1.079 105.702  -0.632   2.018 107.293

                      1                      2                      3
                      A                      A                      A
 Frequencies --    183.3537               254.1567               336.0749
 Red. masses --      2.8086                 2.3564                 2.8241
 Frc consts  --      0.0556                 0.0897                 0.1879
 IR Inten    --      2.4340                 3.1272                 0.5478

                      4                      5                      6
                      A                      A                      A
 Frequencies --    347.0918               437.6876               538.0199
 Red. masses --      4.0387                 4.4622                 1.2588
 Frc consts  --      0.2867                 0.5037                 0.2147
 IR Inten    --      0.4010                 3.1869                51.6788

                      7                      8                      9
                      A                      A                      A
 Frequencies --    576.7286               606.2078               700.4626
 Red. masses --      3.2958                 4.3430                 3.2623
 Frc consts  --      0.6459                 0.9403                 0.9431
 IR Inten    --     30.0247                 0.8096                 1.8557

                     10                     11                     12
                      A                      A                      A
 Frequencies --    755.0747               807.6902               809.1367
 Red. masses --      3.8358                 2.6739                 1.9204
 Frc consts  --      1.2885                 1.0277                 0.7408
 IR Inten    --      4.3982                 6.5875                 6.1426

                     13                     14                     15
                      A                      A                      A
 Frequencies --    860.4601               874.2008               883.3879
 Red. masses --      3.2970                 2.5621                 2.2209
 Frc consts  --      1.4383                 1.1536                 1.0211
 IR Inten    --     25.9100                 5.4072                 1.8815

                     16                     17                     18
                      A                      A                      A
 Frequencies --    903.7932               922.0554               944.0389
 Red. masses --      3.0054                 3.7720                 2.1325
 Frc consts  --      1.4464                 1.8894                 1.1198
 IR Inten    --      1.1009                29.1145                14.5509

                     19                     20                     21
                      A                      A                      A
 Frequencies --    982.7787               998.2001              1024.5726
 Red. masses --      1.9512                 1.9814                 2.4126
 Frc consts  --      1.1104                 1.1632                 1.4922
 IR Inten    --      1.6144                 9.4706                10.4033

                     22                     23                     24
                      A                      A                      A
 Frequencies --   1035.4982              1065.3424              1118.8424
 Red. masses --      1.5538                 1.8858                 2.8414
 Frc consts  --      0.9816                 1.2610                 2.0956
 IR Inten    --     17.9908                 3.9861                84.0462

                     25                     26                     27
                      A                      A                      A
 Frequencies --   1120.7093              1149.4176              1196.7494
 Red. masses --      1.2303                 2.1182                 1.5520
 Frc consts  --      0.9104                 1.6488                 1.3096
 IR Inten    --      6.9267                31.8741                 3.4115

                     28                     29                     30
                      A                      A                      A
 Frequencies --   1212.1298              1227.6318              1243.6385
 Red. masses --      1.3575                 1.6256                 1.3201
 Frc consts  --      1.1751                 1.4434                 1.2030
 IR Inten    --      3.8922                 3.1948                 0.0512

                     31                     32                     33
                      A                      A                      A
 Frequencies --   1254.7807              1264.6282              1289.8778
 Red. masses --      1.4046                 1.4619                 1.3596
 Frc consts  --      1.3030                 1.3775                 1.3328
 IR Inten    --      9.6705                 1.6049                16.4490

                     34                     35                     36
                      A                      A                      A
 Frequencies --   1302.3074              1307.9229              1327.5909
 Red. masses --      1.4512                 1.5849                 1.6623
 Frc consts  --      1.4501                 1.5974                 1.7262
 IR Inten    --      2.1006                 2.3057                 1.9465

                     37                     38                     39
                      A                      A                      A
 Frequencies --   1344.5352              1367.4635              1450.2916
 Red. masses --      1.6286                 1.6087                 1.2423
 Frc consts  --      1.7346                 1.7724                 1.5395
 IR Inten    --      0.6236                 2.3980                82.9805

                     40                     41                     42
                      A                      A                      A
 Frequencies --   1489.9475              1508.6127              3040.1369
 Red. masses --      1.0787                 1.0981                 1.0629
 Frc consts  --      1.4109                 1.4725                 5.7881
 IR Inten    --      1.1630                 5.1876                32.7342

                     43                     44                     45
                      A                      A                      A
 Frequencies --   3051.9556              3080.9086              3081.8168
 Red. masses --      1.0637                 1.0914                 1.0943
 Frc consts  --      5.8374                 6.1039                 6.1234
 IR Inten    --     29.3872                 5.2966                30.8653

                     46                     47                     48
                      A                      A                      A
 Frequencies --   3098.2475              3116.1328              3119.1411
 Red. masses --      1.1038                 1.0885                 1.0889
 Frc consts  --      6.2424                 6.2274                 6.2418
 IR Inten    --     37.0975                 6.8409                27.6095

                     49                     50                     51
                      A                      A                      A
 Frequencies --   3124.3751              3133.3036              3742.0825
 Red. masses --      1.0880                 1.0945                 1.0644
 Frc consts  --      6.2574                 6.3312                 8.7816
 IR Inten    --     73.6081                19.4627                31.3013

 - Thermochemistry -
 -------------------
 Temperature   298.150 Kelvin.  Pressure   1.00000 Atm.
 Atom     1 has atomic number  8 and mass  15.99491

 Molecular mass:   126.06808 amu.
 Principal axes and moments of inertia in atomic units:
                           1         2         3
     Eigenvalues --   634.50349 979.318561199.73247
           X            0.99973   0.02274   0.00372
           Y           -0.02261   0.99922  -0.03224
           Z           -0.00445   0.03215   0.99947
 This molecule is an asymmetric top.
 Rotational symmetry number  1.
 Warning -- assumption of classical behavior for rotation
           may cause significant error
 Rotational temperatures (Kelvin)      0.13651     0.08844     0.07219
 Rotational constants (GHZ):           2.84434     1.84285     1.50429
 Zero-point vibrational energy     428330.0 (Joules/Mol)
                                  102.37334 (Kcal/Mol)
 Warning -- explicit consideration of   8 degrees of freedom as
           vibrations may cause significant error
 Vibrational temperatures:    263.80   365.67   483.54   499.39   629.73
          (Kelvin)            774.09   829.78   872.20  1007.81  1086.38
                             1162.08  1164.17  1238.01  1257.78  1271.00
                             1300.36  1326.63  1358.26  1414.00  1436.19
                             1474.13  1489.85  1532.79  1609.76  1612.45
                             1653.75  1721.85  1743.98  1766.29  1789.32
                             1805.35  1819.52  1855.84  1873.73  1881.81
                             1910.10  1934.48  1967.47  2086.64  2143.70
                             2170.55  4374.07  4391.08  4432.73  4434.04
                             4457.68  4483.41  4487.74  4495.27  4508.12
                             5384.02

 Zero-point correction=                           0.163142 (Hartree/Particle)
 Thermal correction to Energy=                    0.169674
 Thermal correction to Enthalpy=                  0.170618
 Thermal correction to Gibbs Free Energy=         0.132581
 Sum of electronic and zero-point Energies=           -423.014256
 Sum of electronic and thermal Energies=              -423.007724
 Sum of electronic and thermal Enthalpies=            -423.006780
 Sum of electronic and thermal Free Energies=         -423.044817

                     E (Thermal)             CV                S
                      KCal/Mol        Cal/Mol-Kelvin    Cal/Mol-Kelvin
 Total                  106.472             27.991             80.057
 Electronic               0.000              0.000              0.000
 Translational            0.889              2.981             40.409
 Rotational               0.889              2.981             28.102
 Vibrational            104.695             22.029             11.546
 Vibration     1          0.631              1.862              2.294
 Vibration     2          0.665              1.756              1.702
 Vibration     3          0.717              1.603              1.231
 Vibration     4          0.725              1.581              1.179
 Vibration     5          0.798              1.388              0.834
 Vibration     6          0.893              1.166              0.570
 Vibration     7          0.933              1.082              0.491
 Vibration     8          0.965              1.019              0.439

 Optimization completed.
    -- Stationary point found.
 Normal termination of Gaussian 09 at Tue Jan 28 00:37:59 2020.
