 Gaussian 09, Revision D.01,
 Gaussian 09:  ES64L-G09RevD.01 24-Apr-2013

 -----------------------------
 # b3lyp 6-31G(2df,p) opt Freq
 -----------------------------

 -----
 titel
 -----
 Symbolic Z-matrix:
 Charge =  0 Multiplicity = 1

 SCF Done:  E(RB3LYP) =  -423.188612566     A.U. after   14 cycles
 Optimization completed.
    -- Stationary point found.
 Normal termination of Gaussian 09 at Mon Jan 27 13:35:25 2020.

 ----------------------------------------------------------------------
 #N Geom=AllCheck Guess=TCheck SCRF=Check GenChk RB3LYP/6-31G(2df,p) Fr
 eq
 ----------------------------------------------------------------------

 Structure from the checkpoint file:  "/scratch/puck/g09_dec6ff8b-ba1d-45e1-932a-cf0a97907f4c/Gau-2194.chk"
 -----
 titel
 -----
 Charge =  0 Multiplicity = 1

                         Standard orientation:
 ---------------------------------------------------------------------
 Center     Atomic      Atomic             Coordinates (Angstroms)
 Number     Number       Type             X           Y           Z
 ---------------------------------------------------------------------
      1          8           0       -3.122248   -0.590515   -0.109633
      2          6           0       -2.083524   -0.021815   -0.330168
      3          6           0       -0.820174   -0.188792    0.483827
      4          6           0       -0.216688    1.191432    0.842404
      5          8           0        0.577159    1.570539   -0.271196
      6          6           0        1.179537    0.403709   -0.799676
      7          6           0        2.381413   -0.181651   -0.001168
      8          6           0        1.512967   -1.404370    0.414632
      9          6           0        0.302934   -0.816696   -0.372600
     10          1           0       -1.985614    0.689870   -1.182521
     11          1           0       -1.057038   -0.788544    1.366212
     12          1           0       -0.965066    1.974241    0.999014
     13          1           0        0.385162    1.108735    1.759961
     14          1           0        1.354761    0.579070   -1.862812
     15          1           0        3.249174   -0.425216   -0.618137
     16          1           0        2.711912    0.462734    0.817167
     17          1           0        1.865272   -2.361560    0.025311
     18          1           0        1.346640   -1.516541    1.489348
     19          1           0       -0.083284   -1.453886   -1.170416
 ---------------------------------------------------------------------

 SCF Done:  E(RB3LYP) =  -423.188612566     A.U. after    1 cycles

 The electronic state is 1-A.
 Alpha  occ. eigenvalues --  -19.15042 -19.13819 -10.26883 -10.24166 -10.23701
 Alpha  occ. eigenvalues --  -10.20223 -10.20181 -10.19343 -10.18751  -1.05069
 Alpha  occ. eigenvalues --   -1.04405  -0.84510  -0.78819  -0.69457  -0.65598
 Alpha  occ. eigenvalues --   -0.62338  -0.57581  -0.55372  -0.52279  -0.48586
 Alpha  occ. eigenvalues --   -0.48102  -0.44131  -0.43739  -0.42892  -0.42177
 Alpha  occ. eigenvalues --   -0.39278  -0.37355  -0.36738  -0.34494  -0.33851
 Alpha  occ. eigenvalues --   -0.32646  -0.30096  -0.26125  -0.24533
 Alpha virt. eigenvalues --   -0.02158   0.07180   0.07692   0.10183   0.11977
 Alpha virt. eigenvalues --    0.12935   0.13726   0.14212   0.15494   0.16398
 Alpha virt. eigenvalues --    0.17348   0.17761   0.18917   0.20758   0.21947

 Mulliken charges:
               1
     1  O   -0.256339
     2  C    0.147454
     3  C   -0.096749
     4  C   -0.126526
     5  O   -0.252812
     6  C    0.121556
     7  C   -0.246805
     8  C   -0.246307
     9  C   -0.053062
    10  H    0.085886
    11  H    0.096625
    12  H    0.121294
    13  H    0.103304
    14  H    0.084695
    15  H    0.106981
    16  H    0.112003
    17  H    0.110400
    18  H    0.103913
    19  H    0.084490
 Sum of Mulliken charges =   0.00000

 Dipole moment (field-independent basis, Debye):
    X=              2.6074    Y=             -0.3675    Z=              0.3079  Tot=              2.6511
 Quadrupole moment (field-independent basis, Debye-Ang):
   XX=            -62.8590   YY=            -55.5257   ZZ=            -50.2918
   XY=             -5.2516   XZ=             -0.6342   YZ=              1.7925

  Exact polarizability:  89.382  -0.570  69.321  -0.990  -0.670  67.300
 Approx polarizability: 122.091   4.974 104.650  -3.444  -2.607 102.954

                      1                      2                      3
                      A                      A                      A
 Frequencies --     59.0116                74.4748               143.9735
 Red. masses --      2.7609                 4.0011                 3.3312
 Frc consts  --      0.0057                 0.0131                 0.0407
 IR Inten    --      1.7794                 5.3250                 4.6428

                      4                      5                      6
                      A                      A                      A
 Frequencies --    217.7302               290.8071               363.5119
 Red. masses --      2.4350                 2.2495                 2.9465
 Frc consts  --      0.0680                 0.1121                 0.2294
 IR Inten    --      0.6607                 0.9932                 1.0716

                      7                      8                      9
                      A                      A                      A
 Frequencies --    416.5602               455.5233               644.3104
 Red. masses --      3.0013                 4.1705                 5.5870
 Frc consts  --      0.3068                 0.5099                 1.3665
 IR Inten    --      6.5942                13.3797                 3.0675

                     10                     11                     12
                      A                      A                      A
 Frequencies --    715.9809               734.7339               772.4322
 Red. masses --      2.2205                 1.5727                 2.1382
 Frc consts  --      0.6707                 0.5002                 0.7517
 IR Inten    --      2.3997                 3.3386                 1.5722

                     13                     14                     15
                      A                      A                      A
 Frequencies --    845.4911               873.9893               906.8433
 Red. masses --      2.3769                 3.0366                 2.1591
 Frc consts  --      1.0011                 1.3666                 1.0461
 IR Inten    --      1.8457                 9.9223                11.9618

                     16                     17                     18
                      A                      A                      A
 Frequencies --    922.1547               948.1444               960.3899
 Red. masses --      2.6515                 2.3110                 2.5515
 Frc consts  --      1.3284                 1.2241                 1.3866
 IR Inten    --      4.0956                19.9958                 9.6014

                     19                     20                     21
                      A                      A                      A
 Frequencies --    987.3981              1011.0891              1037.7643
 Red. masses --      2.4480                 2.2379                 2.1166
 Frc consts  --      1.4062                 1.3479                 1.3430
 IR Inten    --     17.0551                15.1335                 3.8436

                     22                     23                     24
                      A                      A                      A
 Frequencies --   1056.7412              1121.4328              1135.3123
 Red. masses --      1.9013                 1.8283                 2.9342
 Frc consts  --      1.2509                 1.3547                 2.2283
 IR Inten    --     13.7242                 9.1488                43.6470

                     25                     26                     27
                      A                      A                      A
 Frequencies --   1153.5073              1195.4413              1216.5990
 Red. masses --      2.7148                 1.5552                 1.3613
 Frc consts  --      2.1282                 1.3095                 1.1872
 IR Inten    --     55.2040                 2.2059                10.7801

                     28                     29                     30
                      A                      A                      A
 Frequencies --   1232.7476              1243.5797              1257.3483
 Red. masses --      1.2251                 1.2904                 1.3680
 Frc consts  --      1.0969                 1.1757                 1.2742
 IR Inten    --      0.8068                 1.6109                 0.8201

                     31                     32                     33
                      A                      A                      A
 Frequencies --   1270.6445              1275.9782              1289.5807
 Red. masses --      1.2802                 1.4914                 1.6210
 Frc consts  --      1.2178                 1.4306                 1.5883
 IR Inten    --      3.2730                 1.3281                 3.5450

                     34                     35                     36
                      A                      A                      A
 Frequencies --   1339.0874              1348.6435              1387.7001
 Red. masses --      1.4824                 1.2193                 1.3661
 Frc consts  --      1.5661                 1.3067                 1.5499
 IR Inten    --      0.5369                 5.9503                 7.2719

                     37                     38                     39
                      A                      A                      A
 Frequencies --   1428.2958              1470.7798              1489.6140
 Red. masses --      1.2197                 1.0844                 1.1112
 Frc consts  --      1.4660                 1.3821                 1.4528
 IR Inten    --      4.7423                 1.4186                 3.4551

                     40                     41                     42
                      A                      A                      A
 Frequencies --   1516.8746              1830.1628              2868.0331
 Red. masses --      1.0880                10.0408                 1.0820
 Frc consts  --      1.4750                19.8152                 5.2439
 IR Inten    --      2.8952               208.4424                80.7304

                     43                     44                     45
                      A                      A                      A
 Frequencies --   2991.2511              3060.9739              3067.7199
 Red. masses --      1.0697                 1.0590                 1.0609
 Frc consts  --      5.6393                 5.8460                 5.8826
 IR Inten    --     44.4756                29.1106                29.7316

                     46                     47                     48
                      A                      A                      A
 Frequencies --   3082.0243              3083.7569              3088.1305
 Red. masses --      1.0934                 1.0888                 1.0863
 Frc consts  --      6.1195                 6.1007                 6.1038
 IR Inten    --     30.0178                11.0704                24.8050

                     49                     50                     51
                      A                      A                      A
 Frequencies --   3096.4849              3108.7146              3127.5311
 Red. masses --      1.0906                 1.1059                 1.1063
 Frc consts  --      6.1608                 6.2967                 6.3756
 IR Inten    --     15.9124                 2.9924                43.7246

 - Thermochemistry -
 -------------------
 Temperature   298.150 Kelvin.  Pressure   1.00000 Atm.
 Atom     1 has atomic number  8 and mass  15.99491

 Molecular mass:   126.06808 amu.
 Principal axes and moments of inertia in atomic units:
                           1         2         3
     Eigenvalues --   551.065791455.444011713.96101
           X            0.99954  -0.03045   0.00134
           Y            0.03043   0.99945   0.01287
           Z           -0.00173  -0.01282   0.99992
 This molecule is an asymmetric top.
 Rotational symmetry number  1.
 Warning -- assumption of classical behavior for rotation
           may cause significant error
 Rotational temperatures (Kelvin)      0.15718     0.05951     0.05053
 Rotational constants (GHZ):           3.27500     1.23999     1.05297
 Zero-point vibrational energy     419991.0 (Joules/Mol)
                                  100.38025 (Kcal/Mol)
 Warning -- explicit consideration of   8 degrees of freedom as
           vibrations may cause significant error
 Vibrational temperatures:     84.90   107.15   207.15   313.26   418.41
          (Kelvin)            523.01   599.34   655.40   927.02  1030.14
                             1057.12  1111.36  1216.47  1257.47  1304.74
                             1326.77  1364.17  1381.79  1420.64  1454.73
                             1493.11  1520.41  1613.49  1633.46  1659.64
                             1719.97  1750.41  1773.65  1789.23  1809.04
                             1828.17  1835.85  1855.42  1926.65  1940.39
                             1996.59  2055.00  2116.12  2143.22  2182.44
                             2633.19  4126.45  4303.74  4404.05  4413.76
                             4434.34  4436.83  4443.13  4455.15  4472.74
                             4499.81

 Zero-point correction=                           0.159966 (Hartree/Particle)
 Thermal correction to Energy=                    0.168025
 Thermal correction to Enthalpy=                  0.168969
 Thermal correction to Gibbs Free Energy=         0.126441
 Sum of electronic and zero-point Energies=           -423.028646
 Sum of electronic and thermal Energies=              -423.020588
 Sum of electronic and thermal Enthalpies=            -423.019644
 Sum of electronic and thermal Free Energies=         -423.062171

                     E (Thermal)             CV                S
                      KCal/Mol        Cal/Mol-Kelvin    Cal/Mol-Kelvin
 Total                  105.437             30.075             89.507
 Electronic               0.000              0.000              0.000
 Translational            0.889              2.981             40.409
 Rotational               0.889              2.981             28.710
 Vibrational            103.660             24.114             20.388
 Vibration     1          0.596              1.974              4.490
 Vibration     2          0.599              1.966              4.031
 Vibration     3          0.616              1.909              2.750
 Vibration     4          0.646              1.814              1.978
 Vibration     5          0.687              1.691              1.469
 Vibration     6          0.737              1.547              1.107
 Vibration     7          0.780              1.434              0.904
 Vibration     8          0.814              1.349              0.779

 Optimization completed.
    -- Stationary point found.
 Normal termination of Gaussian 09 at Mon Jan 27 15:28:01 2020.
