 Gaussian 09, Revision D.01,
 Gaussian 09:  ES64L-G09RevD.01 24-Apr-2013

 -----------------------------
 # b3lyp 6-31G(2df,p) opt Freq
 -----------------------------

 -----
 titel
 -----
 Symbolic Z-matrix:
 Charge =  0 Multiplicity = 1

 SCF Done:  E(RB3LYP) =  -423.119702492     A.U. after   13 cycles
 Optimization completed.
    -- Stationary point found.
 Normal termination of Gaussian 09 at Mon Jan 27 12:08:06 2020.

 ----------------------------------------------------------------------
 #N Geom=AllCheck Guess=TCheck SCRF=Check GenChk RB3LYP/6-31G(2df,p) Fr
 eq
 ----------------------------------------------------------------------

 Structure from the checkpoint file:  "/scratch/puck/g09_8b9bb25b-13fd-4ab8-9c7c-768165048839/Gau-71563.chk"
 -----
 titel
 -----
 Charge =  0 Multiplicity = 1

                         Standard orientation:
 ---------------------------------------------------------------------
 Center     Atomic      Atomic             Coordinates (Angstroms)
 Number     Number       Type             X           Y           Z
 ---------------------------------------------------------------------
      1          6           0        2.777679    0.104694    0.126282
      2          8           0        2.064721   -1.129661    0.034236
      3          6           0        1.403471    0.067158   -0.390231
      4          6           0        0.224101    0.501459    0.432279
      5          6           0       -0.445770    1.836224    0.023301
      6          8           0       -1.678714    1.170108   -0.323022
      7          6           0       -1.131843   -0.097618    0.050337
      8          6           0       -1.453149   -1.351326   -0.693806
      9          6           0       -1.951078   -1.139369    0.731876
     10          1           0        2.961230    0.463475    1.138593
     11          1           0        3.613034    0.215979   -0.563441
     12          1           0        1.263004    0.133396   -1.470619
     13          1           0        0.462510    0.419162    1.495492
     14          1           0       -0.584205    2.561779    0.832329
     15          1           0        0.001846    2.341624   -0.841610
     16          1           0       -2.182867   -1.275094   -1.492801
     17          1           0       -0.658807   -2.070960   -0.862393
     18          1           0       -3.005797   -0.922389    0.863634
     19          1           0       -1.498469   -1.717888    1.530888
 ---------------------------------------------------------------------

 SCF Done:  E(RB3LYP) =  -423.119702492     A.U. after    1 cycles

 The electronic state is 1-A.
 Alpha  occ. eigenvalues --  -19.15520 -19.13578 -10.24346 -10.24031 -10.23892
 Alpha  occ. eigenvalues --  -10.23642 -10.20121 -10.18196 -10.18155  -1.07499
 Alpha  occ. eigenvalues --   -1.04407  -0.84563  -0.77142  -0.67111  -0.65346
 Alpha  occ. eigenvalues --   -0.61785  -0.60083  -0.54456  -0.51178  -0.49427
 Alpha  occ. eigenvalues --   -0.49171  -0.47273  -0.43598  -0.42163  -0.40481
 Alpha  occ. eigenvalues --   -0.37896  -0.37445  -0.36559  -0.34049  -0.31902
 Alpha  occ. eigenvalues --   -0.30807  -0.28043  -0.27159  -0.22934
 Alpha virt. eigenvalues --    0.07613   0.08584   0.09326   0.10275   0.11222
 Alpha virt. eigenvalues --    0.11990   0.13660   0.14768   0.14933   0.15447
 Alpha virt. eigenvalues --    0.17342   0.18216   0.18635   0.19926   0.22909

 Mulliken charges:
               1
     1  C   -0.188919
     2  O   -0.241114
     3  C    0.089270
     4  C   -0.171300
     5  C   -0.095808
     6  O   -0.306212
     7  C    0.463117
     8  C   -0.341267
     9  C   -0.335306
    10  H    0.114047
    11  H    0.117670
    12  H    0.099485
    13  H    0.087387
    14  H    0.107392
    15  H    0.102603
    16  H    0.123561
    17  H    0.132540
    18  H    0.123247
    19  H    0.119609
 Sum of Mulliken charges =   0.00000

 Dipole moment (field-independent basis, Debye):
    X=              1.3095    Y=              1.1698    Z=              0.3989  Tot=              1.8006
 Quadrupole moment (field-independent basis, Debye-Ang):
   XX=            -53.7400   YY=            -54.9049   ZZ=            -51.1730
   XY=              6.0883   XZ=             -1.0383   YZ=              1.0207

  Exact polarizability:  85.959   4.720  74.108   0.058   0.951  66.926
 Approx polarizability: 110.991   2.768 108.814   2.204  -0.142 101.225

                      1                      2                      3
                      A                      A                      A
 Frequencies --     52.9772                63.6005               142.7292
 Red. masses --      3.8020                 3.7240                 2.8977
 Frc consts  --      0.0063                 0.0089                 0.0348
 IR Inten    --      5.1642                 2.7812                 0.6639

                      4                      5                      6
                      A                      A                      A
 Frequencies --    214.1938               279.7339               320.3975
 Red. masses --      2.4563                 2.9542                 2.4418
 Frc consts  --      0.0664                 0.1362                 0.1477
 IR Inten    --      0.2030                 0.7557                 3.4807

                      7                      8                      9
                      A                      A                      A
 Frequencies --    360.5352               430.7085               507.2569
 Red. masses --      4.0361                 3.3462                 3.5403
 Frc consts  --      0.3091                 0.3657                 0.5367
 IR Inten    --      0.6928                 4.9729                 5.1608

                     10                     11                     12
                      A                      A                      A
 Frequencies --    601.7528               759.2578               785.0610
 Red. masses --      3.9600                 1.0463                 1.7572
 Frc consts  --      0.8449                 0.3554                 0.6381
 IR Inten    --      5.2935                 1.9706                 3.9467

                     13                     14                     15
                      A                      A                      A
 Frequencies --    851.0044               874.6755               878.9840
 Red. masses --      4.3793                 2.3226                 1.7861
 Frc consts  --      1.8686                 1.0469                 0.8130
 IR Inten    --     21.1936                 3.1209                10.2273

                     16                     17                     18
                      A                      A                      A
 Frequencies --    899.7365               908.7872               961.5735
 Red. masses --      2.6349                 1.7610                 2.0341
 Frc consts  --      1.2567                 0.8569                 1.1081
 IR Inten    --     18.6221                12.7757                 7.0891

                     19                     20                     21
                      A                      A                      A
 Frequencies --    975.1432              1014.7715              1018.6241
 Red. masses --      2.8915                 2.4121                 4.5038
 Frc consts  --      1.6200                 1.4635                 2.7533
 IR Inten    --      8.6231                13.8022                74.8025

                     22                     23                     24
                      A                      A                      A
 Frequencies --   1051.4725              1065.3550              1071.1705
 Red. masses --      1.5220                 3.1623                 1.5209
 Frc consts  --      0.9914                 2.1146                 1.0282
 IR Inten    --     39.7918                 8.2406                 0.1519

                     25                     26                     27
                      A                      A                      A
 Frequencies --   1100.5162              1152.7154              1157.8276
 Red. masses --      1.2900                 1.4300                 1.2718
 Frc consts  --      0.9205                 1.1195                 1.0045
 IR Inten    --      0.6327                 2.4053                 1.7178

                     28                     29                     30
                      A                      A                      A
 Frequencies --   1170.7242              1188.3952              1196.8435
 Red. masses --      1.2988                 1.2706                 1.8873
 Frc consts  --      1.0488                 1.0573                 1.5928
 IR Inten    --      2.3417                 0.5359                 4.2943

                     31                     32                     33
                      A                      A                      A
 Frequencies --   1222.4216              1240.6138              1290.4811
 Red. masses --      2.3035                 1.4181                 1.7153
 Frc consts  --      2.0281                 1.2860                 1.6830
 IR Inten    --     28.4217                 0.1312                 6.5409

                     34                     35                     36
                      A                      A                      A
 Frequencies --   1298.4462              1353.9142              1381.4142
 Red. masses --      1.2926                 1.6109                 2.0461
 Frc consts  --      1.2840                 1.7398                 2.3005
 IR Inten    --      7.7812                13.8947                15.0003

                     37                     38                     39
                      A                      A                      A
 Frequencies --   1445.4375              1457.2295              1493.5474
 Red. masses --      1.1014                 1.7149                 1.5639
 Frc consts  --      1.3557                 2.1455                 2.0554
 IR Inten    --      2.8314                 9.0619                23.7292

                     40                     41                     42
                      A                      A                      A
 Frequencies --   1527.7675              1529.7578              3018.3614
 Red. masses --      1.1902                 1.3766                 1.0566
 Frc consts  --      1.6368                 1.8980                 5.6713
 IR Inten    --      1.9112                 2.1911                69.4363

                     43                     44                     45
                      A                      A                      A
 Frequencies --   3062.9763              3079.8423              3082.9414
 Red. masses --      1.1072                 1.0733                 1.0644
 Frc consts  --      6.1201                 5.9980                 5.9603
 IR Inten    --     24.9222                 7.4565                36.0835

                     46                     47                     48
                      A                      A                      A
 Frequencies --   3099.3604              3127.4466              3130.7391
 Red. masses --      1.0891                 1.0517                 1.0562
 Frc consts  --      6.1638                 6.0606                 6.0995
 IR Inten    --     28.9071                11.5252                 3.1688

                     49                     50                     51
                      A                      A                      A
 Frequencies --   3168.6513              3212.0714              3226.2344
 Red. masses --      1.1194                 1.1184                 1.1156
 Frc consts  --      6.6217                 6.7986                 6.8414
 IR Inten    --     26.7559                 0.3015                 7.7472

 - Thermochemistry -
 -------------------
 Temperature   298.150 Kelvin.  Pressure   1.00000 Atm.
 Atom     1 has atomic number  6 and mass  12.00000

 Molecular mass:   126.06808 amu.
 Principal axes and moments of inertia in atomic units:
                           1         2         3
     Eigenvalues --   632.889061399.483771805.61337
           X            0.99881   0.04863  -0.00383
           Y           -0.04859   0.99876   0.01059
           Z            0.00434  -0.01039   0.99994
 This molecule is an asymmetric top.
 Rotational symmetry number  1.
 Warning -- assumption of classical behavior for rotation
           may cause significant error
 Rotational temperatures (Kelvin)      0.13685     0.06189     0.04797
 Rotational constants (GHZ):           2.85159     1.28958     0.99952
 Zero-point vibrational energy     415739.3 (Joules/Mol)
                                   99.36407 (Kcal/Mol)
 Warning -- explicit consideration of  10 degrees of freedom as
           vibrations may cause significant error
 Vibrational temperatures:     76.22    91.51   205.36   308.18   402.47
          (Kelvin)            460.98   518.73   619.69   729.83   865.79
                             1092.40  1129.53  1224.40  1258.46  1264.66
                             1294.52  1307.54  1383.49  1403.01  1460.03
                             1465.57  1512.83  1532.81  1541.17  1583.40
                             1658.50  1665.85  1684.41  1709.83  1721.99
                             1758.79  1784.96  1856.71  1868.17  1947.98
                             1987.54  2079.66  2096.63  2148.88  2198.11
                             2200.98  4342.74  4406.93  4431.20  4435.66
                             4459.28  4499.69  4504.43  4558.98  4621.45
                             4641.83

 Zero-point correction=                           0.158347 (Hartree/Particle)
 Thermal correction to Energy=                    0.166775
 Thermal correction to Enthalpy=                  0.167719
 Thermal correction to Gibbs Free Energy=         0.124321
 Sum of electronic and zero-point Energies=           -422.961356
 Sum of electronic and thermal Energies=              -422.952928
 Sum of electronic and thermal Enthalpies=            -422.951984
 Sum of electronic and thermal Free Energies=         -422.995382

                     E (Thermal)             CV                S
                      KCal/Mol        Cal/Mol-Kelvin    Cal/Mol-Kelvin
 Total                  104.653             31.405             91.339
 Electronic               0.000              0.000              0.000
 Translational            0.889              2.981             40.409
 Rotational               0.889              2.981             28.860
 Vibrational            102.875             25.443             22.070
 Vibration     1          0.596              1.976              4.703
 Vibration     2          0.597              1.972              4.342
 Vibration     3          0.616              1.910              2.767
 Vibration     4          0.644              1.819              2.008
 Vibration     5          0.680              1.711              1.535
 Vibration     6          0.706              1.635              1.308
 Vibration     7          0.735              1.554              1.120
 Vibration     8          0.792              1.403              0.856
 Vibration     9          0.862              1.234              0.640
 Vibration    10          0.960              1.028              0.447

 Optimization completed.
    -- Stationary point found.
 Normal termination of Gaussian 09 at Mon Jan 27 12:50:09 2020.
