 Gaussian 09, Revision D.01,
 Gaussian 09:  ES64L-G09RevD.01 24-Apr-2013

 -----------------------------
 # b3lyp 6-31G(2df,p) opt Freq
 -----------------------------

 -----
 titel
 -----
 Symbolic Z-matrix:
 Charge =  0 Multiplicity = 1

 SCF Done:  E(RB3LYP) =  -423.155917177     A.U. after   14 cycles
 Optimization completed.
    -- Stationary point found.
 Normal termination of Gaussian 09 at Tue Jan 28 09:22:19 2020.

 ----------------------------------------------------------------------
 #N Geom=AllCheck Guess=TCheck SCRF=Check GenChk RB3LYP/6-31G(2df,p) Fr
 eq
 ----------------------------------------------------------------------

 Structure from the checkpoint file:  "/scratch/puck/g09_a20178bd-f98f-4bd9-85be-44ba7d461db6/Gau-109409.chk"
 -----
 titel
 -----
 Charge =  0 Multiplicity = 1

                         Standard orientation:
 ---------------------------------------------------------------------
 Center     Atomic      Atomic             Coordinates (Angstroms)
 Number     Number       Type             X           Y           Z
 ---------------------------------------------------------------------
      1          8           0       -2.892566   -0.650163   -0.731644
      2          6           0       -1.997548   -0.873905    0.345965
      3          6           0       -0.854678    0.107969    0.388186
      4          6           0       -0.952881    1.529390   -0.084575
      5          6           0        0.052132    0.614037   -0.735618
      6          6           0        1.299020    0.486660    0.159105
      7          6           0        0.360507   -0.038123    1.312310
      8          6           0        2.258744   -0.576786   -0.299015
      9          8           0        3.448315   -0.433634   -0.417529
     10          1           0       -3.442726    0.105925   -0.506120
     11          1           0       -2.525780   -0.870913    1.313726
     12          1           0       -1.605534   -1.888439    0.204020
     13          1           0       -1.809990    1.749688   -0.712497
     14          1           0       -0.627916    2.355962    0.543653
     15          1           0        0.014457    0.398020   -1.796564
     16          1           0        1.853231    1.408435    0.354762
     17          1           0        0.576067   -1.080375    1.568975
     18          1           0        0.358312    0.552465    2.233163
     19          1           0        1.772111   -1.555828   -0.527878
 ---------------------------------------------------------------------

 SCF Done:  E(RB3LYP) =  -423.155917177     A.U. after    1 cycles

 The electronic state is 1-A.
 Alpha  occ. eigenvalues --  -19.14679 -19.13681 -10.26792 -10.23927 -10.20721
 Alpha  occ. eigenvalues --  -10.20440 -10.20405 -10.20302 -10.19752  -1.04385
 Alpha  occ. eigenvalues --   -1.02774  -0.91083  -0.76027  -0.71982  -0.66800
 Alpha  occ. eigenvalues --   -0.60316  -0.57749  -0.54324  -0.52254  -0.50188
 Alpha  occ. eigenvalues --   -0.46823  -0.45044  -0.44477  -0.42983  -0.41319
 Alpha  occ. eigenvalues --   -0.39461  -0.38981  -0.36613  -0.33710  -0.33492
 Alpha  occ. eigenvalues --   -0.30547  -0.28183  -0.26425  -0.24654
 Alpha virt. eigenvalues --   -0.02147   0.06199   0.09128   0.10473   0.11220
 Alpha virt. eigenvalues --    0.11574   0.12354   0.13011   0.14968   0.15815
 Alpha virt. eigenvalues --    0.17379   0.17595   0.19644   0.21196   0.22090

 Mulliken charges:
               1
     1  O   -0.408032
     2  C   -0.195580
     3  C    0.357613
     4  C   -0.344677
     5  C   -0.098872
     6  C   -0.072549
     7  C   -0.335245
     8  C    0.158100
     9  O   -0.256688
    10  H    0.288390
    11  H    0.094085
    12  H    0.113199
    13  H    0.109656
    14  H    0.107543
    15  H    0.102817
    16  H    0.089516
    17  H    0.112178
    18  H    0.108429
    19  H    0.070117
 Sum of Mulliken charges =   0.00000

 Dipole moment (field-independent basis, Debye):
    X=             -3.0335    Y=              0.9481    Z=              1.5281  Tot=              3.5265
 Quadrupole moment (field-independent basis, Debye-Ang):
   XX=            -64.8582   YY=            -52.2369   ZZ=            -53.0442
   XY=             -2.7897   XZ=             -0.6803   YZ=             -1.3194

  Exact polarizability:  92.299  -1.966  72.320  -1.625  -0.512  66.027
 Approx polarizability: 127.779  -1.434 107.783  -4.174  -0.745 102.128

                      1                      2                      3
                      A                      A                      A
 Frequencies --     59.3332                80.5760               109.6125
 Red. masses --      5.5456                 4.5791                 2.6989
 Frc consts  --      0.0115                 0.0175                 0.0191
 IR Inten    --      1.8941                 4.3984                 3.3441

                      4                      5                      6
                      A                      A                      A
 Frequencies --    204.2867               291.3933               298.8953
 Red. masses --      4.1466                 2.0968                 1.3210
 Frc consts  --      0.1020                 0.1049                 0.0695
 IR Inten    --     10.0190                 8.4356                81.2280

                      7                      8                      9
                      A                      A                      A
 Frequencies --    322.7339               359.8620               405.4833
 Red. masses --      1.8618                 2.3585                 3.5463
 Frc consts  --      0.1143                 0.1800                 0.3435
 IR Inten    --     42.6049                 2.1722                 5.7122

                     10                     11                     12
                      A                      A                      A
 Frequencies --    434.4347               515.2352               658.3698
 Red. masses --      2.8427                 3.3445                 3.0585
 Frc consts  --      0.3161                 0.5231                 0.7811
 IR Inten    --      6.9269                10.1935                 4.2181

                     13                     14                     15
                      A                      A                      A
 Frequencies --    759.7110               817.9040               846.2120
 Red. masses --      3.0682                 2.5187                 2.2526
 Frc consts  --      1.0434                 0.9927                 0.9504
 IR Inten    --      0.0694                10.8984                 5.9807

                     16                     17                     18
                      A                      A                      A
 Frequencies --    865.3743               931.4329               970.4009
 Red. masses --      1.7106                 1.7719                 1.5284
 Frc consts  --      0.7547                 0.9057                 0.8480
 IR Inten    --     10.2768                 4.0080                 4.6046

                     19                     20                     21
                      A                      A                      A
 Frequencies --    982.1166              1012.4045              1030.3557
 Red. masses --      1.7516                 2.7249                 1.4922
 Frc consts  --      0.9954                 1.6456                 0.9334
 IR Inten    --      9.7987                22.4748                14.2871

                     22                     23                     24
                      A                      A                      A
 Frequencies --   1037.4839              1074.4972              1083.4292
 Red. masses --      1.5742                 2.5551                 2.3187
 Frc consts  --      0.9983                 1.7381                 1.6036
 IR Inten    --     10.1567                28.1995                45.3827

                     25                     26                     27
                      A                      A                      A
 Frequencies --   1089.7111              1119.4288              1176.1433
 Red. masses --      1.5652                 1.6892                 1.8850
 Frc consts  --      1.0951                 1.2471                 1.5363
 IR Inten    --      1.3525                 9.6521                14.8745

                     28                     29                     30
                      A                      A                      A
 Frequencies --   1210.3912              1227.7846              1235.2076
 Red. masses --      1.7269                 1.2665                 1.3024
 Frc consts  --      1.4906                 1.1248                 1.1708
 IR Inten    --      2.2312                17.5182                 8.7953

                     31                     32                     33
                      A                      A                      A
 Frequencies --   1255.9242              1269.7703              1302.9723
 Red. masses --      1.5193                 1.8933                 1.7513
 Frc consts  --      1.4120                 1.7986                 1.7518
 IR Inten    --      2.9030                 6.2134                 0.1948

                     34                     35                     36
                      A                      A                      A
 Frequencies --   1392.1853              1399.8920              1417.7917
 Red. masses --      1.3341                 1.9202                 1.3737
 Frc consts  --      1.5235                 2.2171                 1.6269
 IR Inten    --      8.8561                 1.0240                35.5914

                     37                     38                     39
                      A                      A                      A
 Frequencies --   1430.4936              1476.8101              1496.5923
 Red. masses --      1.2258                 1.1737                 1.1985
 Frc consts  --      1.4778                 1.5082                 1.5815
 IR Inten    --      5.1824                 3.0325                 1.2472

                     40                     41                     42
                      A                      A                      A
 Frequencies --   1503.6896              1832.0623              2840.0760
 Red. masses --      1.1892                10.2904                 1.0811
 Frc consts  --      1.5842                20.3499                 5.1377
 IR Inten    --      0.4478               224.1242                90.2521

                     43                     44                     45
                      A                      A                      A
 Frequencies --   2968.2166              3043.5018              3049.4056
 Red. masses --      1.0694                 1.0598                 1.0898
 Frc consts  --      5.5512                 5.7837                 5.9708
 IR Inten    --     64.0348                32.0564                32.2355

                     46                     47                     48
                      A                      A                      A
 Frequencies --   3076.7086              3095.3386              3105.7147
 Red. masses --      1.0882                 1.1058                 1.0572
 Frc consts  --      6.0692                 6.2420                 6.0078
 IR Inten    --     17.0971                26.5523                22.2216

                     49                     50                     51
                      A                      A                      A
 Frequencies --   3185.0951              3202.2711              3828.0306
 Red. masses --      1.0939                 1.1103                 1.0663
 Frc consts  --      6.5384                 6.7085                 9.2064
 IR Inten    --      5.7905                11.7920                23.6211

 - Thermochemistry -
 -------------------
 Temperature   298.150 Kelvin.  Pressure   1.00000 Atm.
 Atom     1 has atomic number  8 and mass  15.99491

 Molecular mass:   126.06808 amu.
 Principal axes and moments of inertia in atomic units:
                           1         2         3
     Eigenvalues --   481.437352011.400232085.11496
           X            1.00000  -0.00086   0.00079
           Y            0.00091   0.99780  -0.06632
           Z           -0.00074   0.06632   0.99780
 This molecule is an asymmetric top.
 Rotational symmetry number  1.
 Warning -- assumption of classical behavior for rotation
           may cause significant error
 Rotational temperatures (Kelvin)      0.17991     0.04306     0.04154
 Rotational constants (GHZ):           3.74865     0.89726     0.86554
 Zero-point vibrational energy     415001.0 (Joules/Mol)
                                   99.18762 (Kcal/Mol)
 Warning -- explicit consideration of  11 degrees of freedom as
           vibrations may cause significant error
 Vibrational temperatures:     85.37   115.93   157.71   293.92   419.25
          (Kelvin)            430.04   464.34   517.76   583.40   625.05
                              741.31   947.25  1093.05  1176.78  1217.51
                             1245.08  1340.12  1396.19  1413.05  1456.62
                             1482.45  1492.71  1545.96  1558.81  1567.85
                             1610.61  1692.21  1741.48  1766.51  1777.19
                             1806.99  1826.91  1874.68  2003.04  2014.13
                             2039.88  2058.16  2124.80  2153.26  2163.47
                             2635.93  4086.23  4270.60  4378.91  4387.41
                             4426.69  4453.50  4468.43  4582.64  4607.35
                             5507.68

 Zero-point correction=                           0.158066 (Hartree/Particle)
 Thermal correction to Energy=                    0.167047
 Thermal correction to Enthalpy=                  0.167991
 Thermal correction to Gibbs Free Energy=         0.123677
 Sum of electronic and zero-point Energies=           -422.997852
 Sum of electronic and thermal Energies=              -422.988870
 Sum of electronic and thermal Enthalpies=            -422.987926
 Sum of electronic and thermal Free Energies=         -423.032241

                     E (Thermal)             CV                S
                      KCal/Mol        Cal/Mol-Kelvin    Cal/Mol-Kelvin
 Total                  104.823             33.070             93.267
 Electronic               0.000              0.000              0.000
 Translational            0.889              2.981             40.409
 Rotational               0.889              2.981             29.092
 Vibrational            103.046             27.108             23.767
 Vibration     1          0.597              1.974              4.479
 Vibration     2          0.600              1.962              3.877
 Vibration     3          0.606              1.942              3.276
 Vibration     4          0.640              1.834              2.094
 Vibration     5          0.687              1.690              1.466
 Vibration     6          0.692              1.676              1.423
 Vibration     7          0.708              1.630              1.296
 Vibration     8          0.734              1.555              1.123
 Vibration     9          0.770              1.458              0.943
 Vibration    10          0.795              1.395              0.844
 Vibration    11          0.870              1.216              0.621

 Normal termination of Gaussian 09 at Tue Jan 28 10:06:22 2020.
