 Gaussian 09, Revision D.01,
 Gaussian 09:  ES64L-G09RevD.01 24-Apr-2013

 -----------------------------
 # b3lyp 6-31G(2df,p) opt Freq
 -----------------------------

 -----
 titel
 -----
 Symbolic Z-matrix:
 Charge =  0 Multiplicity = 1

 SCF Done:  E(RB3LYP) =  -423.179636151     A.U. after   14 cycles
 Optimization completed.
    -- Stationary point found.
 Normal termination of Gaussian 09 at Mon Jan 27 17:07:16 2020.

 ----------------------------------------------------------------------
 #N Geom=AllCheck Guess=TCheck SCRF=Check GenChk RB3LYP/6-31G(2df,p) Fr
 eq
 ----------------------------------------------------------------------

 Structure from the checkpoint file:  "/scratch/puck/g09_64fffe45-8285-4ac1-8888-96d7bda17950/Gau-167989.chk"
 -----
 titel
 -----
 Charge =  0 Multiplicity = 1

                         Standard orientation:
 ---------------------------------------------------------------------
 Center     Atomic      Atomic             Coordinates (Angstroms)
 Number     Number       Type             X           Y           Z
 ---------------------------------------------------------------------
      1          6           0       -2.645373   -0.802074   -0.014127
      2          6           0       -1.251811   -0.242971    0.004207
      3          6           0       -0.079260   -0.735458   -0.888962
      4          6           0        0.733867    0.141770    0.102924
      5          6           0       -0.276416   -0.340436    1.210332
      6          6           0        0.123785    1.527713   -0.192859
      7          8           0       -1.271009    1.180072   -0.256376
      8          6           0        2.205180    0.029364    0.306664
      9          8           0        2.929694   -0.711146   -0.311502
     10          1           0       -3.266971   -0.307868    0.738753
     11          1           0       -3.106430   -0.643477   -0.993758
     12          1           0       -2.630974   -1.875329    0.193794
     13          1           0        0.142903   -1.797556   -0.781023
     14          1           0       -0.096159   -0.441818   -1.940636
     15          1           0       -0.078487   -1.363783    1.533034
     16          1           0       -0.465144    0.318156    2.061300
     17          1           0        0.302354    2.263328    0.600844
     18          1           0        0.457968    1.943533   -1.150330
     19          1           0        2.611626    0.685952    1.111979
 ---------------------------------------------------------------------

 SCF Done:  E(RB3LYP) =  -423.179636151     A.U. after    1 cycles

 The electronic state is 1-A.
 Alpha  occ. eigenvalues --  -19.14270 -19.14098 -10.27378 -10.25029 -10.23906
 Alpha  occ. eigenvalues --  -10.21452 -10.19967 -10.19006 -10.18368  -1.05121
 Alpha  occ. eigenvalues --   -1.04581  -0.84931  -0.77140  -0.69598  -0.67978
 Alpha  occ. eigenvalues --   -0.64478  -0.56481  -0.54342  -0.50485  -0.48993
 Alpha  occ. eigenvalues --   -0.47446  -0.44936  -0.43107  -0.42912  -0.39681
 Alpha  occ. eigenvalues --   -0.38452  -0.38289  -0.36923  -0.36520  -0.34781
 Alpha  occ. eigenvalues --   -0.32779  -0.30875  -0.25519  -0.24778
 Alpha virt. eigenvalues --   -0.03030   0.08090   0.08802   0.11237   0.12712
 Alpha virt. eigenvalues --    0.13444   0.14509   0.14913   0.15492   0.15894
 Alpha virt. eigenvalues --    0.16774   0.17646   0.18829   0.20905   0.21692

 Mulliken charges:
               1
     1  C   -0.489531
     2  C    0.429037
     3  C   -0.301507
     4  C    0.193010
     5  C   -0.310261
     6  C   -0.121334
     7  O   -0.305201
     8  C    0.038863
     9  O   -0.245939
    10  H    0.130485
    11  H    0.132765
    12  H    0.121146
    13  H    0.114242
    14  H    0.106550
    15  H    0.113820
    16  H    0.106210
    17  H    0.104448
    18  H    0.111869
    19  H    0.071326
 Sum of Mulliken charges =   0.00000

 Dipole moment (field-independent basis, Debye):
    X=             -1.3229    Y=              0.2098    Z=              1.2193  Tot=              1.8113
 Quadrupole moment (field-independent basis, Debye-Ang):
   XX=            -61.9879   YY=            -52.9429   ZZ=            -51.6682
   XY=              7.2438   XZ=              1.9821   YZ=             -0.2866

  Exact polarizability:  88.037   2.541  72.628  -0.567   3.133  69.204
 Approx polarizability: 119.528  -4.494 111.415  -4.945   6.577 106.953

                      1                      2                      3
                      A                      A                      A
 Frequencies --     70.6408               156.1684               206.4086
 Red. masses --      4.6040                 4.1079                 1.0477
 Frc consts  --      0.0135                 0.0590                 0.0263
 IR Inten    --      6.4040                 6.7103                 0.1923

                      4                      5                      6
                      A                      A                      A
 Frequencies --    225.3168               274.8690               330.4522
 Red. masses --      2.2282                 2.7025                 2.5171
 Frc consts  --      0.0666                 0.1203                 0.1619
 IR Inten    --      1.3335                 4.9977                 2.9090

                      7                      8                      9
                      A                      A                      A
 Frequencies --    375.0539               448.7638               482.3397
 Red. masses --      2.4390                 4.2316                 2.3418
 Frc consts  --      0.2021                 0.5021                 0.3210
 IR Inten    --      2.1136                 0.5999                 1.2755

                     10                     11                     12
                      A                      A                      A
 Frequencies --    516.4114               615.2199               670.3851
 Red. masses --      1.8135                 3.8694                 3.5091
 Frc consts  --      0.2849                 0.8629                 0.9292
 IR Inten    --      0.5231                 1.7893                 5.9214

                     13                     14                     15
                      A                      A                      A
 Frequencies --    720.6623               814.5433               865.1442
 Red. masses --      3.5143                 2.4174                 4.2694
 Frc consts  --      1.0754                 0.9450                 1.8827
 IR Inten    --     24.2214                 4.2898                11.5822

                     16                     17                     18
                      A                      A                      A
 Frequencies --    889.6115               902.4752               948.1384
 Red. masses --      2.5579                 2.9040                 1.4048
 Frc consts  --      1.1927                 1.3935                 0.7440
 IR Inten    --     26.6785                 3.4084                 1.4297

                     19                     20                     21
                      A                      A                      A
 Frequencies --    972.0477               998.6761              1010.7619
 Red. masses --      2.0920                 3.0917                 1.3778
 Frc consts  --      1.1646                 1.8167                 0.8293
 IR Inten    --      7.5129                48.9137                11.9103

                     22                     23                     24
                      A                      A                      A
 Frequencies --   1024.2523              1046.9733              1114.0823
 Red. masses --      1.5061                 1.8723                 1.7370
 Frc consts  --      0.9309                 1.2092                 1.2703
 IR Inten    --     14.6824                 3.2148                 5.7721

                     25                     26                     27
                      A                      A                      A
 Frequencies --   1147.8555              1173.7913              1183.0579
 Red. masses --      1.6034                 1.4602                 2.0810
 Frc consts  --      1.2447                 1.1853                 1.7160
 IR Inten    --      5.9676                 1.1628                 4.7952

                     28                     29                     30
                      A                      A                      A
 Frequencies --   1195.0481              1209.4142              1215.9063
 Red. masses --      1.8242                 1.6984                 1.5699
 Frc consts  --      1.5350                 1.4636                 1.3675
 IR Inten    --      7.2209                 1.9020                 8.9438

                     31                     32                     33
                      A                      A                      A
 Frequencies --   1285.3772              1336.5199              1371.3519
 Red. masses --      2.9815                 2.2806                 1.6159
 Frc consts  --      2.9023                 2.4002                 1.7904
 IR Inten    --      6.7674                29.2296                14.1390

                     34                     35                     36
                      A                      A                      A
 Frequencies --   1418.2638              1428.7409              1472.7522
 Red. masses --      1.5390                 1.3003                 1.1006
 Frc consts  --      1.8239                 1.5638                 1.4065
 IR Inten    --     12.8458                19.7093                 2.7567

                     37                     38                     39
                      A                      A                      A
 Frequencies --   1480.3423              1492.1899              1506.4272
 Red. masses --      1.0479                 1.0499                 1.1676
 Frc consts  --      1.3530                 1.3774                 1.5612
 IR Inten    --      3.6359                 2.8561                 8.6643

                     40                     41                     42
                      A                      A                      A
 Frequencies --   1532.4109              1818.2729              2852.0554
 Red. masses --      1.1163                10.7391                 1.0812
 Frc consts  --      1.5445                20.9188                 5.1815
 IR Inten    --      1.8679               184.0880               122.2839

                     43                     44                     45
                      A                      A                      A
 Frequencies --   3021.1870              3042.6518              3064.3352
 Red. masses --      1.0557                 1.0351                 1.1051
 Frc consts  --      5.6774                 5.6461                 6.1139
 IR Inten    --     61.9707                17.3363                11.0833

                     46                     47                     48
                      A                      A                      A
 Frequencies --   3068.9942              3078.5489              3113.0940
 Red. masses --      1.0604                 1.0589                 1.1014
 Frc consts  --      5.8843                 5.9131                 6.2888
 IR Inten    --     50.0162                 7.9049                13.0280

                     49                     50                     51
                      A                      A                      A
 Frequencies --   3121.8426              3140.0096              3148.4636
 Red. masses --      1.1016                 1.1112                 1.1087
 Frc consts  --      6.3256                 6.4551                 6.4754
 IR Inten    --     11.0696                13.8464                22.9235

 - Thermochemistry -
 -------------------
 Temperature   298.150 Kelvin.  Pressure   1.00000 Atm.
 Atom     1 has atomic number  6 and mass  12.00000

 Molecular mass:   126.06808 amu.
 Principal axes and moments of inertia in atomic units:
                           1         2         3
     Eigenvalues --   501.171231477.949181644.00501
           X            0.99918   0.04015   0.00571
           Y           -0.04024   0.99904   0.01716
           Z           -0.00502  -0.01738   0.99984
 This molecule is an asymmetric top.
 Rotational symmetry number  1.
 Warning -- assumption of classical behavior for rotation
           may cause significant error
 Rotational temperatures (Kelvin)      0.17282     0.05860     0.05268
 Rotational constants (GHZ):           3.60105     1.22111     1.09777
 Zero-point vibrational energy     416290.3 (Joules/Mol)
                                   99.49577 (Kcal/Mol)
 Warning -- explicit consideration of  11 degrees of freedom as
           vibrations may cause significant error
 Vibrational temperatures:    101.64   224.69   296.98   324.18   395.47
          (Kelvin)            475.45   539.62   645.67   693.98   743.00
                              885.16   964.53  1036.87  1171.94  1244.75
                             1279.95  1298.46  1364.16  1398.56  1436.87
                             1454.26  1473.67  1506.36  1602.91  1651.51
                             1688.82  1702.15  1719.41  1740.08  1749.42
                             1849.37  1922.95  1973.07  2040.56  2055.64
                             2118.96  2129.88  2146.93  2167.41  2204.79
                             2616.09  4103.47  4346.81  4377.69  4408.89
                             4415.59  4429.34  4479.04  4491.63  4517.77
                             4529.93

 Zero-point correction=                           0.158557 (Hartree/Particle)
 Thermal correction to Energy=                    0.166821
 Thermal correction to Enthalpy=                  0.167765
 Thermal correction to Gibbs Free Energy=         0.125731
 Sum of electronic and zero-point Energies=           -423.021080
 Sum of electronic and thermal Energies=              -423.012815
 Sum of electronic and thermal Enthalpies=            -423.011871
 Sum of electronic and thermal Free Energies=         -423.053905

                     E (Thermal)             CV                S
                      KCal/Mol        Cal/Mol-Kelvin    Cal/Mol-Kelvin
 Total                  104.682             31.871             88.469
 Electronic               0.000              0.000              0.000
 Translational            0.889              2.981             40.409
 Rotational               0.889              2.981             28.589
 Vibrational            102.904             25.910             19.471
 Vibration     1          0.598              1.968              4.135
 Vibration     2          0.620              1.896              2.596
 Vibration     3          0.641              1.831              2.075
 Vibration     4          0.650              1.802              1.916
 Vibration     5          0.677              1.720              1.565
 Vibration     6          0.713              1.615              1.258
 Vibration     7          0.746              1.523              1.059
 Vibration     8          0.808              1.364              0.800
 Vibration     9          0.839              1.289              0.704
 Vibration    10          0.871              1.214              0.618
 Vibration    11          0.975              1.000              0.424

 Normal termination of Gaussian 09 at Mon Jan 27 17:50:50 2020.
