 Gaussian 09, Revision D.01,
 Gaussian 09:  ES64L-G09RevD.01 24-Apr-2013

 -----------------------------
 # b3lyp 6-31G(2df,p) opt Freq
 -----------------------------

 -----
 titel
 -----
 Symbolic Z-matrix:
 Charge =  0 Multiplicity = 1

 SCF Done:  E(RB3LYP) =  -423.168746047     A.U. after   13 cycles
 Optimization completed.
    -- Stationary point found.
 Normal termination of Gaussian 09 at Tue Jan 28 12:12:13 2020.

 ----------------------------------------------------------------------
 #N Geom=AllCheck Guess=TCheck SCRF=Check GenChk RB3LYP/6-31G(2df,p) Fr
 eq
 ----------------------------------------------------------------------

 Structure from the checkpoint file:  "/scratch/puck/g09_43b692ff-9147-46a6-88db-242ebe4601c3/Gau-117637.chk"
 -----
 titel
 -----
 Charge =  0 Multiplicity = 1

                         Standard orientation:
 ---------------------------------------------------------------------
 Center     Atomic      Atomic             Coordinates (Angstroms)
 Number     Number       Type             X           Y           Z
 ---------------------------------------------------------------------
      1          6           0       -2.763503   -0.314090    0.149013
      2          8           0       -1.811409    0.571943   -0.415559
      3          6           0       -0.500086    0.193847   -0.211891
      4          6           0        0.155957   -1.031080   -0.853293
      5          6           0        1.538363   -0.792138   -0.206752
      6          6           0        1.865843    0.658665   -0.633483
      7          6           0        0.581299    1.257617   -0.076020
      8          6           0        0.238907    0.358540    1.101640
      9          8           0        1.224402   -0.653660    1.193206
     10          1           0       -2.600699   -0.445873    1.227528
     11          1           0       -3.746643    0.132337   -0.015387
     12          1           0       -2.738429   -1.302078   -0.330840
     13          1           0       -0.286987   -1.977937   -0.532637
     14          1           0        0.182113   -0.984954   -1.945327
     15          1           0        2.303829   -1.554084   -0.336693
     16          1           0        2.764957    1.038970   -0.141292
     17          1           0        1.968446    0.764760   -1.716848
     18          1           0        0.337861    2.310957   -0.083979
     19          1           0       -0.189074    0.683471    2.039015
 ---------------------------------------------------------------------

 SCF Done:  E(RB3LYP) =  -423.168746047     A.U. after    1 cycles

 The electronic state is 1-A.
 Alpha  occ. eigenvalues --  -19.14968 -19.13939 -10.23476 -10.23357 -10.22585
 Alpha  occ. eigenvalues --  -10.22539 -10.18560 -10.18471 -10.18283  -1.05758
 Alpha  occ. eigenvalues --   -1.03666  -0.85114  -0.76075  -0.71863  -0.68818
 Alpha  occ. eigenvalues --   -0.59563  -0.56634  -0.54639  -0.53680  -0.47602
 Alpha  occ. eigenvalues --   -0.46265  -0.44588  -0.44398  -0.42618  -0.40875
 Alpha  occ. eigenvalues --   -0.39496  -0.37363  -0.35625  -0.34194  -0.33834
 Alpha  occ. eigenvalues --   -0.31233  -0.27713  -0.26340  -0.21810
 Alpha virt. eigenvalues --    0.09181   0.09740   0.12187   0.13105   0.13423
 Alpha virt. eigenvalues --    0.14341   0.15078   0.15679   0.16002   0.16224
 Alpha virt. eigenvalues --    0.18045   0.19024   0.19166   0.20839   0.21720

 Mulliken charges:
               1
     1  C   -0.259096
     2  O   -0.296839
     3  C    0.404512
     4  C   -0.304836
     5  C    0.053322
     6  C   -0.229136
     7  C   -0.175964
     8  C    0.009438
     9  O   -0.259087
    10  H    0.112321
    11  H    0.127660
    12  H    0.113506
    13  H    0.103608
    14  H    0.105190
    15  H    0.082745
    16  H    0.107399
    17  H    0.103015
    18  H    0.096938
    19  H    0.105305
 Sum of Mulliken charges =   0.00000

 Dipole moment (field-independent basis, Debye):
    X=             -0.3722    Y=             -0.3073    Z=             -0.6074  Tot=              0.7758
 Quadrupole moment (field-independent basis, Debye-Ang):
   XX=            -50.5596   YY=            -52.5664   ZZ=            -54.0093
   XY=              2.2795   XZ=             -4.5340   YZ=              2.7597

  Exact polarizability:  84.526   2.399  69.174  -3.499   2.126  66.609
 Approx polarizability: 110.533   1.074 104.488  -1.333  -0.631 105.672

                      1                      2                      3
                      A                      A                      A
 Frequencies --     91.5165               173.0158               194.4268
 Red. masses --      2.4631                 1.8908                 1.4775
 Frc consts  --      0.0122                 0.0333                 0.0329
 IR Inten    --      2.7553                 1.8137                 0.9393

                      4                      5                      6
                      A                      A                      A
 Frequencies --    342.4855               372.9758               416.8533
 Red. masses --      3.1814                 3.5608                 1.7285
 Frc consts  --      0.2199                 0.2918                 0.1770
 IR Inten    --      3.0670                 4.5155                 0.4715

                      7                      8                      9
                      A                      A                      A
 Frequencies --    497.1160               550.1066               589.8302
 Red. masses --      2.6965                 4.3046                 4.0149
 Frc consts  --      0.3926                 0.7675                 0.8230
 IR Inten    --      1.8117                 5.2790                 7.3455

                     10                     11                     12
                      A                      A                      A
 Frequencies --    679.8232               722.3357               799.2467
 Red. masses --      4.5318                 4.0287                 3.8427
 Frc consts  --      1.2340                 1.2385                 1.4463
 IR Inten    --      5.3483                 6.3600                 2.1928

                     13                     14                     15
                      A                      A                      A
 Frequencies --    865.1758               887.9602               897.5927
 Red. masses --      1.4715                 2.6350                 2.4784
 Frc consts  --      0.6489                 1.2241                 1.1765
 IR Inten    --      8.7562                23.8985                10.3008

                     16                     17                     18
                      A                      A                      A
 Frequencies --    925.0030               938.1673               958.1156
 Red. masses --      2.0344                 2.2862                 2.6031
 Frc consts  --      1.0256                 1.1856                 1.4079
 IR Inten    --      3.0340                 4.8520                 2.5744

                     19                     20                     21
                      A                      A                      A
 Frequencies --    982.5428              1001.9191              1020.9091
 Red. masses --      2.1149                 1.5813                 1.6070
 Frc consts  --      1.2029                 0.9353                 0.9869
 IR Inten    --      3.7935                 9.3382                 1.9057

                     22                     23                     24
                      A                      A                      A
 Frequencies --   1040.1667              1072.0829              1095.6785
 Red. masses --      4.6912                 3.0343                 2.5369
 Frc consts  --      2.9905                 2.0548                 1.7944
 IR Inten    --     49.3533                54.4502                17.8585

                     25                     26                     27
                      A                      A                      A
 Frequencies --   1142.6624              1168.1295              1172.0524
 Red. masses --      1.3898                 1.9159                 1.2515
 Frc consts  --      1.0691                 1.5403                 1.0129
 IR Inten    --      2.1666                 7.5894                 1.0713

                     28                     29                     30
                      A                      A                      A
 Frequencies --   1180.0790              1203.3562              1222.7429
 Red. masses --      1.2821                 1.6741                 1.5360
 Frc consts  --      1.0519                 1.4283                 1.3530
 IR Inten    --      1.9961                 8.8394                 5.4842

                     31                     32                     33
                      A                      A                      A
 Frequencies --   1245.4773              1276.0377              1283.2694
 Red. masses --      1.4983                 2.4229                 1.8167
 Frc consts  --      1.3694                 2.3244                 1.7627
 IR Inten    --      2.8317                47.9676                33.2340

                     34                     35                     36
                      A                      A                      A
 Frequencies --   1318.6113              1339.3625              1412.7819
 Red. masses --      1.9613                 1.5999                 2.5266
 Frc consts  --      2.0092                 1.6910                 2.9712
 IR Inten    --     20.2255                25.4835                57.1744

                     37                     38                     39
                      A                      A                      A
 Frequencies --   1474.8046              1483.3267              1490.4642
 Red. masses --      1.1143                 1.1604                 1.0949
 Frc consts  --      1.4280                 1.5043                 1.4331
 IR Inten    --      1.0279                 4.6492                 3.5839

                     40                     41                     42
                      A                      A                      A
 Frequencies --   1498.6469              1507.8468              2996.5290
 Red. masses --      1.1982                 1.0617                 1.0344
 Frc consts  --      1.5855                 1.4222                 5.4726
 IR Inten    --      9.8646                 5.5868                47.1138

                     43                     44                     45
                      A                      A                      A
 Frequencies --   3049.8433              3058.9460              3063.7272
 Red. masses --      1.1015                 1.0584                 1.0588
 Frc consts  --      6.0366                 5.8348                 5.8554
 IR Inten    --     31.8993                41.0351                22.6300

                     46                     47                     48
                      A                      A                      A
 Frequencies --   3111.0566              3115.4249              3122.3071
 Red. masses --      1.1073                 1.1076                 1.0989
 Frc consts  --      6.3145                 6.3338                 6.3120
 IR Inten    --     15.6491                24.2241                29.4257

                     49                     50                     51
                      A                      A                      A
 Frequencies --   3148.7030              3215.9832              3227.7648
 Red. masses --      1.0913                 1.0917                 1.0959
 Frc consts  --      6.3744                 6.6522                 6.7269
 IR Inten    --     31.9469                 2.9539                 7.3295

 - Thermochemistry -
 -------------------
 Temperature   298.150 Kelvin.  Pressure   1.00000 Atm.
 Atom     1 has atomic number  6 and mass  12.00000

 Molecular mass:   126.06808 amu.
 Principal axes and moments of inertia in atomic units:
                           1         2         3
     Eigenvalues --   514.757041283.268991320.13521
           X            0.99906   0.03678  -0.02306
           Y           -0.02838   0.95529   0.29431
           Z            0.03286  -0.29338   0.95543
 This molecule is an asymmetric top.
 Rotational symmetry number  1.
 Warning -- assumption of classical behavior for rotation
           may cause significant error
 Rotational temperatures (Kelvin)      0.16826     0.06749     0.06561
 Rotational constants (GHZ):           3.50601     1.40636     1.36709
 Zero-point vibrational energy     422550.8 (Joules/Mol)
                                  100.99207 (Kcal/Mol)
 Warning -- explicit consideration of   9 degrees of freedom as
           vibrations may cause significant error
 Vibrational temperatures:    131.67   248.93   279.74   492.76   536.63
          (Kelvin)            599.76   715.24   791.48   848.63   978.11
                             1039.28  1149.94  1244.79  1277.58  1291.43
                             1330.87  1349.81  1378.51  1413.66  1441.54
                             1468.86  1496.57  1542.49  1576.43  1644.03
                             1680.68  1686.32  1697.87  1731.36  1759.25
                             1791.96  1835.93  1846.34  1897.19  1927.04
                             2032.68  2121.91  2134.17  2144.44  2156.22
                             2169.45  4311.33  4388.04  4401.14  4408.01
                             4476.11  4482.40  4492.30  4530.28  4627.08
                             4644.03

 Zero-point correction=                           0.160941 (Hartree/Particle)
 Thermal correction to Energy=                    0.168289
 Thermal correction to Enthalpy=                  0.169233
 Thermal correction to Gibbs Free Energy=         0.129163
 Sum of electronic and zero-point Energies=           -423.007805
 Sum of electronic and thermal Energies=              -423.000457
 Sum of electronic and thermal Enthalpies=            -422.999513
 Sum of electronic and thermal Free Energies=         -423.039583

                     E (Thermal)             CV                S
                      KCal/Mol        Cal/Mol-Kelvin    Cal/Mol-Kelvin
 Total                  105.603             29.470             84.335
 Electronic               0.000              0.000              0.000
 Translational            0.889              2.981             40.409
 Rotational               0.889              2.981             28.258
 Vibrational            103.826             23.508             15.669
 Vibration     1          0.602              1.955              3.627
 Vibration     2          0.627              1.876              2.402
 Vibration     3          0.635              1.848              2.185
 Vibration     4          0.722              1.591              1.201
 Vibration     5          0.744              1.528              1.068
 Vibration     6          0.780              1.434              0.903
 Vibration     7          0.853              1.256              0.665
 Vibration     8          0.905              1.139              0.544
 Vibration     9          0.947              1.053              0.467

 Optimization completed.
    -- Stationary point found.
 Normal termination of Gaussian 09 at Tue Jan 28 12:59:39 2020.
