 Gaussian 09, Revision D.01,
 Gaussian 09:  ES64L-G09RevD.01 24-Apr-2013

 -----------------------------
 # b3lyp 6-31G(2df,p) opt Freq
 -----------------------------

 -----
 titel
 -----
 Symbolic Z-matrix:
 Charge =  0 Multiplicity = 1

 SCF Done:  E(RB3LYP) =  -423.186104011     A.U. after   14 cycles
 Optimization completed.
    -- Stationary point found.
 Normal termination of Gaussian 09 at Mon Jan 27 17:14:55 2020.

 ----------------------------------------------------------------------
 #N Geom=AllCheck Guess=TCheck SCRF=Check GenChk RB3LYP/6-31G(2df,p) Fr
 eq
 ----------------------------------------------------------------------

 Structure from the checkpoint file:  "/scratch/puck/g09_dbfd14b9-e2bc-4bb8-9bbf-bf96e355e1a8/Gau-39580.chk"
 -----
 titel
 -----
 Charge =  0 Multiplicity = 1

                         Standard orientation:
 ---------------------------------------------------------------------
 Center     Atomic      Atomic             Coordinates (Angstroms)
 Number     Number       Type             X           Y           Z
 ---------------------------------------------------------------------
      1          8           0        0.537709    2.118515   -0.002318
      2          6           0        0.547034    0.729819    0.004145
      3          6           0        1.704929   -0.016993   -0.703854
      4          6           0        0.698302   -1.206164   -0.659840
      5          6           0        0.587825   -1.474413    0.858036
      6          6           0        0.490388   -0.002432    1.366191
      7          6           0       -0.408649   -0.120575   -0.898065
      8          6           0       -1.841610   -0.359408   -0.528844
      9          8           0       -2.424189    0.205318    0.367483
     10          1           0       -0.232727    2.408015    0.499880
     11          1           0        1.884354    0.353745   -1.714967
     12          1           0        2.645981   -0.127330   -0.158116
     13          1           0        0.797250   -2.061648   -1.325868
     14          1           0       -0.292424   -2.070025    1.117035
     15          1           0        1.468201   -1.997610    1.240821
     16          1           0       -0.435798    0.202710    1.905185
     17          1           0        1.336227    0.290538    1.993926
     18          1           0       -0.373329    0.216698   -1.941417
     19          1           0       -2.375206   -1.104763   -1.164416
 ---------------------------------------------------------------------

 SCF Done:  E(RB3LYP) =  -423.186104011     A.U. after    1 cycles

 The electronic state is 1-A.
 Alpha  occ. eigenvalues --  -19.14538 -19.14175 -10.27390 -10.24375 -10.20692
 Alpha  occ. eigenvalues --  -10.19576 -10.18834 -10.18659 -10.17881  -1.05035
 Alpha  occ. eigenvalues --   -1.02915  -0.89156  -0.73914  -0.70484  -0.68330
 Alpha  occ. eigenvalues --   -0.59745  -0.57189  -0.54161  -0.52540  -0.49035
 Alpha  occ. eigenvalues --   -0.46943  -0.44831  -0.43695  -0.39774  -0.39599
 Alpha  occ. eigenvalues --   -0.38012  -0.36467  -0.35815  -0.35212  -0.33570
 Alpha  occ. eigenvalues --   -0.32728  -0.29918  -0.26281  -0.24841
 Alpha virt. eigenvalues --   -0.02963   0.08182   0.09162   0.11497   0.12731
 Alpha virt. eigenvalues --    0.13681   0.13893   0.15237   0.15933   0.16701
 Alpha virt. eigenvalues --    0.17503   0.18558   0.19970   0.21381   0.22230

 Mulliken charges:
               1
     1  O   -0.487143
     2  C    0.408963
     3  C   -0.258785
     4  C   -0.054032
     5  C   -0.218819
     6  C   -0.275974
     7  C   -0.140676
     8  C    0.121451
     9  O   -0.257533
    10  H    0.287864
    11  H    0.104924
    12  H    0.095204
    13  H    0.071461
    14  H    0.104543
    15  H    0.102245
    16  H    0.119529
    17  H    0.100411
    18  H    0.098495
    19  H    0.077871
 Sum of Mulliken charges =   0.00000

 Dipole moment (field-independent basis, Debye):
    X=              0.7583    Y=             -1.5344    Z=             -0.8194  Tot=              1.8976
 Quadrupole moment (field-independent basis, Debye-Ang):
   XX=            -57.9627   YY=            -53.6601   ZZ=            -51.1642
   XY=             -1.6185   XZ=              2.8553   YZ=              1.8830

  Exact polarizability:  79.844  -0.695  71.952  -0.834   3.138  72.070
 Approx polarizability: 115.370  -3.710 107.843  -6.314   7.758 110.884

                      1                      2                      3
                      A                      A                      A
 Frequencies --     51.2229               159.4030               203.3703
 Red. masses --      4.5125                 4.5564                 2.6706
 Frc consts  --      0.0070                 0.0682                 0.0651
 IR Inten    --      6.5214                 7.5499                 1.6378

                      4                      5                      6
                      A                      A                      A
 Frequencies --    281.7896               303.6308               356.7005
 Red. masses --      1.9999                 1.2798                 2.8484
 Frc consts  --      0.0936                 0.0695                 0.2135
 IR Inten    --      1.4568                52.2421                49.8845

                      7                      8                      9
                      A                      A                      A
 Frequencies --    413.2461               440.1579               476.0874
 Red. masses --      2.8116                 3.2904                 2.1172
 Frc consts  --      0.2829                 0.3756                 0.2827
 IR Inten    --      8.3301                 2.1702                 2.4464

                     10                     11                     12
                      A                      A                      A
 Frequencies --    583.3355               653.7708               744.1750
 Red. masses --      4.5874                 3.9897                 3.5787
 Frc consts  --      0.9197                 1.0047                 1.1677
 IR Inten    --      3.8800                11.2480                 3.4273

                     13                     14                     15
                      A                      A                      A
 Frequencies --    764.2251               833.8706               863.1824
 Red. masses --      3.3347                 1.6568                 2.5358
 Frc consts  --      1.1475                 0.6788                 1.1132
 IR Inten    --      3.6822                 5.0326                 0.9820

                     16                     17                     18
                      A                      A                      A
 Frequencies --    873.2020               893.9084               942.3129
 Red. masses --      1.8382                 2.4474                 2.1673
 Frc consts  --      0.8258                 1.1522                 1.1339
 IR Inten    --      4.5723                 0.4234                 3.9286

                     19                     20                     21
                      A                      A                      A
 Frequencies --    959.8608               982.9623               997.5420
 Red. masses --      1.8599                 1.7510                 1.3915
 Frc consts  --      1.0096                 0.9968                 0.8158
 IR Inten    --      2.3052                 2.0397                 5.3450

                     22                     23                     24
                      A                      A                      A
 Frequencies --   1042.4567              1069.3397              1090.5291
 Red. masses --      1.8422                 1.3289                 1.8353
 Frc consts  --      1.1795                 0.8953                 1.2860
 IR Inten    --     18.9456                 4.2934                11.5978

                     25                     26                     27
                      A                      A                      A
 Frequencies --   1118.1741              1149.7375              1157.8359
 Red. masses --      1.7261                 2.0207                 1.5277
 Frc consts  --      1.2716                 1.5738                 1.2067
 IR Inten    --     11.0807                31.6685                 3.3199

                     28                     29                     30
                      A                      A                      A
 Frequencies --   1213.1027              1231.9670              1238.9366
 Red. masses --      1.5404                 1.5992                 1.4743
 Frc consts  --      1.3356                 1.4301                 1.3333
 IR Inten    --      2.6670                 9.8542                15.0372

                     31                     32                     33
                      A                      A                      A
 Frequencies --   1250.7529              1262.2171              1312.1189
 Red. masses --      1.4568                 2.0065                 1.4501
 Frc consts  --      1.3428                 1.8835                 1.4709
 IR Inten    --     11.4881                83.4548                15.1441

                     34                     35                     36
                      A                      A                      A
 Frequencies --   1323.7521              1380.8623              1392.3203
 Red. masses --      1.6815                 1.8617                 1.7651
 Frc consts  --      1.7361                 2.0915                 2.0160
 IR Inten    --     54.2768                57.2176                 1.5078

                     37                     38                     39
                      A                      A                      A
 Frequencies --   1423.9466              1492.9323              1498.4712
 Red. masses --      1.2433                 1.0819                 1.1151
 Frc consts  --      1.4853                 1.4207                 1.4753
 IR Inten    --      6.7524                 2.1512                 2.4656

                     40                     41                     42
                      A                      A                      A
 Frequencies --   1523.0693              1807.0724              2854.2140
 Red. masses --      1.1398                10.3442                 1.0819
 Frc consts  --      1.5579                19.9021                 5.1930
 IR Inten    --      4.5140               131.2684               144.4186

                     43                     44                     45
                      A                      A                      A
 Frequencies --   3042.5381              3054.5911              3060.3592
 Red. masses --      1.0819                 1.0590                 1.0586
 Frc consts  --      5.9009                 5.8219                 5.8413
 IR Inten    --     17.7696                35.1034                28.1865

                     46                     47                     48
                      A                      A                      A
 Frequencies --   3069.1382              3096.3556              3126.1751
 Red. masses --      1.0637                 1.1047                 1.1051
 Frc consts  --      5.9036                 6.2402                 6.3633
 IR Inten    --     27.2007                17.0758                13.6407

                     49                     50                     51
                      A                      A                      A
 Frequencies --   3128.3860              3131.3233              3799.3372
 Red. masses --      1.1032                 1.0942                 1.0656
 Frc consts  --      6.3611                 6.3214                 9.0629
 IR Inten    --     31.4990                37.7627                27.3674

 - Thermochemistry -
 -------------------
 Temperature   298.150 Kelvin.  Pressure   1.00000 Atm.
 Atom     1 has atomic number  8 and mass  15.99491

 Molecular mass:   126.06808 amu.
 Principal axes and moments of inertia in atomic units:
                           1         2         3
     Eigenvalues --   793.521631043.502251278.39467
           X            0.99967  -0.02128   0.01462
           Y            0.02120   0.99976   0.00536
           Z           -0.01473  -0.00505   0.99988
 This molecule is an asymmetric top.
 Rotational symmetry number  1.
 Warning -- assumption of classical behavior for rotation
           may cause significant error
 Rotational temperatures (Kelvin)      0.10915     0.08300     0.06775
 Rotational constants (GHZ):           2.27434     1.72950     1.41172
 Zero-point vibrational energy     419410.6 (Joules/Mol)
                                  100.24153 (Kcal/Mol)
 Warning -- explicit consideration of  10 degrees of freedom as
           vibrations may cause significant error
 Vibrational temperatures:     73.70   229.35   292.60   405.43   436.86
          (Kelvin)            513.21   594.57   633.29   684.98   839.29
                              940.63  1070.70  1099.55  1199.75  1241.93
                             1256.34  1286.13  1355.78  1381.02  1414.26
                             1435.24  1499.86  1538.54  1569.03  1608.80
                             1654.21  1665.87  1745.38  1772.52  1782.55
                             1799.55  1816.05  1887.84  1904.58  1986.75
                             2003.24  2048.74  2147.99  2155.96  2191.35
                             2599.97  4106.57  4377.53  4394.87  4403.17
                             4415.80  4454.96  4497.86  4501.04  4505.27
                             5466.39

 Zero-point correction=                           0.159745 (Hartree/Particle)
 Thermal correction to Energy=                    0.167796
 Thermal correction to Enthalpy=                  0.168740
 Thermal correction to Gibbs Free Energy=         0.126975
 Sum of electronic and zero-point Energies=           -423.026359
 Sum of electronic and thermal Energies=              -423.018308
 Sum of electronic and thermal Enthalpies=            -423.017364
 Sum of electronic and thermal Free Energies=         -423.059129

                     E (Thermal)             CV                S
                      KCal/Mol        Cal/Mol-Kelvin    Cal/Mol-Kelvin
 Total                  105.293             31.431             87.902
 Electronic               0.000              0.000              0.000
 Translational            0.889              2.981             40.409
 Rotational               0.889              2.981             28.450
 Vibrational            103.516             25.469             19.043
 Vibration     1          0.595              1.977              4.770
 Vibration     2          0.621              1.892              2.557
 Vibration     3          0.639              1.835              2.102
 Vibration     4          0.681              1.707              1.523
 Vibration     5          0.695              1.667              1.397
 Vibration     6          0.732              1.561              1.136
 Vibration     7          0.777              1.441              0.915
 Vibration     8          0.800              1.383              0.826
 Vibration     9          0.833              1.303              0.721
 Vibration    10          0.940              1.067              0.479

 Optimization completed.
    -- Stationary point found.
 Normal termination of Gaussian 09 at Mon Jan 27 18:05:00 2020.
