 Gaussian 09, Revision D.01,
 Gaussian 09:  ES64L-G09RevD.01 24-Apr-2013

 -----------------------------
 # b3lyp 6-31G(2df,p) opt Freq
 -----------------------------

 -----
 titel
 -----
 Symbolic Z-matrix:
 Charge =  0 Multiplicity = 1

 SCF Done:  E(RB3LYP) =  -423.254835873     A.U. after   14 cycles
 Optimization completed.
    -- Stationary point found.
 Normal termination of Gaussian 09 at Tue Jan 28 12:08:59 2020.

 ----------------------------------------------------------------------
 #N Geom=AllCheck Guess=TCheck SCRF=Check GenChk RB3LYP/6-31G(2df,p) Fr
 eq
 ----------------------------------------------------------------------

 Structure from the checkpoint file:  "/scratch/puck/g09_036e4c93-c7cb-4a31-a6d5-495590474243/Gau-18862.chk"
 -----
 titel
 -----
 Charge =  0 Multiplicity = 1

                         Standard orientation:
 ---------------------------------------------------------------------
 Center     Atomic      Atomic             Coordinates (Angstroms)
 Number     Number       Type             X           Y           Z
 ---------------------------------------------------------------------
      1          6           0       -2.978292   -0.036644    0.657743
      2          6           0       -2.049050    0.291123   -0.527353
      3          6           0       -0.623518   -0.097641   -0.287061
      4          6           0        0.458144    0.669781   -0.092935
      5          6           0        0.628979    2.151990   -0.055111
      6          6           0        1.632905   -0.217609    0.103062
      7          8           0        2.778489    0.077959    0.303059
      8          8           0        1.209585   -1.520992    0.018569
      9          6           0       -0.192076   -1.541294   -0.225999
     10          1           0       -4.003803    0.270966    0.434582
     11          1           0       -2.992318   -1.109080    0.874751
     12          1           0       -2.654862    0.484639    1.563485
     13          1           0       -2.416839   -0.229490   -1.421931
     14          1           0       -2.104387    1.361668   -0.747349
     15          1           0        1.376151    2.469376   -0.790092
     16          1           0       -0.305505    2.681074   -0.254730
     17          1           0        1.005440    2.469714    0.923324
     18          1           0       -0.385668   -2.071884   -1.168057
     19          1           0       -0.685356   -2.100947    0.578913
 ---------------------------------------------------------------------

 SCF Done:  E(RB3LYP) =  -423.254835873     A.U. after    1 cycles

 The electronic state is 1-A.
 Alpha  occ. eigenvalues --  -19.17400 -19.11248 -10.29223 -10.25165 -10.21414
 Alpha  occ. eigenvalues --  -10.20959 -10.20221 -10.19602 -10.19119  -1.09260
 Alpha  occ. eigenvalues --   -1.01270  -0.84129  -0.77830  -0.73542  -0.69302
 Alpha  occ. eigenvalues --   -0.65267  -0.56020  -0.55460  -0.49615  -0.48720
 Alpha  occ. eigenvalues --   -0.46907  -0.45381  -0.42418  -0.42237  -0.41028
 Alpha  occ. eigenvalues --   -0.39766  -0.38976  -0.38570  -0.36798  -0.36661
 Alpha  occ. eigenvalues --   -0.34275  -0.29231  -0.26169  -0.26098
 Alpha virt. eigenvalues --   -0.02990   0.07090   0.08230   0.09620   0.11169
 Alpha virt. eigenvalues --    0.12518   0.13384   0.14421   0.15482   0.16020
 Alpha virt. eigenvalues --    0.18127   0.18515   0.19353   0.20745   0.22554

 Mulliken charges:
               1
     1  C   -0.376861
     2  C   -0.297089
     3  C    0.197500
     4  C    0.029492
     5  C   -0.496650
     6  C    0.411974
     7  O   -0.352724
     8  O   -0.232891
     9  C   -0.171980
    10  H    0.124573
    11  H    0.124341
    12  H    0.130248
    13  H    0.115074
    14  H    0.116715
    15  H    0.148796
    16  H    0.122316
    17  H    0.147752
    18  H    0.128649
    19  H    0.130767
 Sum of Mulliken charges =   0.00000

 Dipole moment (field-independent basis, Debye):
    X=             -4.9886    Y=              0.5634    Z=             -0.7434  Tot=              5.0750
 Quadrupole moment (field-independent basis, Debye-Ang):
   XX=            -62.6292   YY=            -50.9744   ZZ=            -52.2255
   XY=              2.6304   XZ=             -1.1057   YZ=              0.4947

  Exact polarizability: 101.465  10.786  81.370   3.819   1.838  56.639
 Approx polarizability: 152.727  23.837 119.423  11.024   4.567  86.692

                      1                      2                      3
                      A                      A                      A
 Frequencies --     38.5048                77.9581               110.3440
 Red. masses --      2.2117                 1.0903                 3.6537
 Frc consts  --      0.0019                 0.0039                 0.0262
 IR Inten    --      0.2957                 0.7795                 2.3332

                      4                      5                      6
                      A                      A                      A
 Frequencies --    195.1314               204.8953               248.8448
 Red. masses --      3.6962                 1.3034                 2.1865
 Frc consts  --      0.0829                 0.0322                 0.0798
 IR Inten    --      0.0381                 0.2680                 3.4442

                      7                      8                      9
                      A                      A                      A
 Frequencies --    262.3232               308.9952               340.0979
 Red. masses --      2.5245                 2.3476                 3.6545
 Frc consts  --      0.1024                 0.1321                 0.2490
 IR Inten    --      2.4430                 1.4476                 1.6036

                     10                     11                     12
                      A                      A                      A
 Frequencies --    504.9726               575.4792               590.8747
 Red. masses --      3.8856                 4.2401                 3.3925
 Frc consts  --      0.5838                 0.8273                 0.6979
 IR Inten    --      2.1807                 4.2786                 2.0144

                     13                     14                     15
                      A                      A                      A
 Frequencies --    659.1859               758.3760               770.0992
 Red. masses --      4.8187                 3.9458                 6.2935
 Frc consts  --      1.2336                 1.3371                 2.1990
 IR Inten    --      1.9524                 1.8225                13.2440

                     16                     17                     18
                      A                      A                      A
 Frequencies --    791.6753               883.7618               964.7584
 Red. masses --      1.3584                 2.5802                 1.9533
 Frc consts  --      0.5016                 1.1874                 1.0712
 IR Inten    --      1.7427                 7.1610                 9.1803

                     19                     20                     21
                      A                      A                      A
 Frequencies --    996.9451              1020.4478              1061.0983
 Red. masses --      1.6672                 1.9488                 1.5259
 Frc consts  --      0.9763                 1.1956                 1.0122
 IR Inten    --      0.9850                 3.1579                 1.9398

                     22                     23                     24
                      A                      A                      A
 Frequencies --   1070.1925              1086.5971              1091.7716
 Red. masses --      5.7494                 2.2893                 3.0085
 Frc consts  --      3.8797                 1.5925                 2.1129
 IR Inten    --     94.4520                44.6154                30.3668

                     25                     26                     27
                      A                      A                      A
 Frequencies --   1142.3652              1196.2932              1205.4680
 Red. masses --      2.2804                 2.6375                 1.1121
 Frc consts  --      1.7534                 2.2239                 0.9522
 IR Inten    --      1.5456                11.6555                 1.7197

                     28                     29                     30
                      A                      A                      A
 Frequencies --   1291.6691              1334.9231              1356.5473
 Red. masses --      1.3660                 1.8017                 1.9537
 Frc consts  --      1.3428                 1.8917                 2.1182
 IR Inten    --      7.7319                23.3499                10.3590

                     31                     32                     33
                      A                      A                      A
 Frequencies --   1374.7902              1411.1217              1418.9924
 Red. masses --      1.7277                 1.2144                 1.3877
 Frc consts  --      1.9240                 1.4248                 1.6463
 IR Inten    --      6.6889                 1.9869                 2.7513

                     34                     35                     36
                      A                      A                      A
 Frequencies --   1473.1189              1478.4244              1489.1410
 Red. masses --      1.0430                 1.0637                 1.0570
 Frc consts  --      1.3336                 1.3698                 1.3810
 IR Inten    --      4.4904                 4.1405                 2.2843

                     37                     38                     39
                      A                      A                      A
 Frequencies --   1495.6872              1499.5350              1508.3674
 Red. masses --      1.0884                 1.0413                 1.0804
 Frc consts  --      1.4345                 1.3796                 1.4482
 IR Inten    --      4.3038                 6.1999                 3.4497

                     40                     41                     42
                      A                      A                      A
 Frequencies --   1733.9181              1862.3141              3015.5884
 Red. masses --      8.6456                12.8753                 1.0594
 Frc consts  --     15.3146                26.3095                 5.6760
 IR Inten    --     24.2466               429.0653                17.6172

                     43                     44                     45
                      A                      A                      A
 Frequencies --   3021.1508              3039.9273              3042.0507
 Red. masses --      1.0646                 1.0366                 1.0395
 Frc consts  --      5.7250                 5.6438                 5.6675
 IR Inten    --     35.8771                13.8307                13.9330

                     46                     47                     48
                      A                      A                      A
 Frequencies --   3049.1310              3077.0749              3093.5218
 Red. masses --      1.0989                 1.0944                 1.0988
 Frc consts  --      6.0194                 6.1051                 6.1955
 IR Inten    --     29.2330                 7.7062                 7.7329

                     49                     50                     51
                      A                      A                      A
 Frequencies --   3115.1908              3118.4150              3125.7447
 Red. masses --      1.1016                 1.1029                 1.1012
 Frc consts  --      6.2983                 6.3188                 6.3392
 IR Inten    --     29.9096                26.4334                16.6463

 - Thermochemistry -
 -------------------
 Temperature   298.150 Kelvin.  Pressure   1.00000 Atm.
 Atom     1 has atomic number  6 and mass  12.00000

 Molecular mass:   126.06808 amu.
 Principal axes and moments of inertia in atomic units:
                           1         2         3
     Eigenvalues --   646.108361479.492421974.67300
           X            0.99968   0.02336  -0.00939
           Y           -0.02336   0.99973   0.00009
           Z            0.00939   0.00013   0.99996
 This molecule is an asymmetric top.
 Rotational symmetry number  1.
 Warning -- assumption of classical behavior for rotation
           may cause significant error
 Rotational temperatures (Kelvin)      0.13405     0.05854     0.04386
 Rotational constants (GHZ):           2.79325     1.21984     0.91394
 Zero-point vibrational energy     416203.6 (Joules/Mol)
                                   99.47504 (Kcal/Mol)
 Warning -- explicit consideration of  12 degrees of freedom as
           vibrations may cause significant error
 Vibrational temperatures:     55.40   112.16   158.76   280.75   294.80
          (Kelvin)            358.03   377.42   444.57   489.32   726.54
                              827.99   850.14   948.42  1091.13  1108.00
                             1139.04  1271.53  1388.07  1434.38  1468.19
                             1526.68  1539.77  1563.37  1570.81  1643.61
                             1721.20  1734.40  1858.42  1920.65  1951.77
                             1978.01  2030.29  2041.61  2119.49  2127.12
                             2142.54  2151.96  2157.49  2170.20  2494.72
                             2679.45  4338.75  4346.76  4373.77  4376.83
                             4387.01  4427.22  4450.88  4482.06  4486.70
                             4497.24

 Zero-point correction=                           0.158524 (Hartree/Particle)
 Thermal correction to Energy=                    0.167938
 Thermal correction to Enthalpy=                  0.168882
 Thermal correction to Gibbs Free Energy=         0.123311
 Sum of electronic and zero-point Energies=           -423.096312
 Sum of electronic and thermal Energies=              -423.086898
 Sum of electronic and thermal Enthalpies=            -423.085953
 Sum of electronic and thermal Free Energies=         -423.131525

                     E (Thermal)             CV                S
                      KCal/Mol        Cal/Mol-Kelvin    Cal/Mol-Kelvin
 Total                  105.383             33.430             95.913
 Electronic               0.000              0.000              0.000
 Translational            0.889              2.981             40.409
 Rotational               0.889              2.981             29.025
 Vibrational            103.605             27.468             26.479
 Vibration     1          0.594              1.981              5.335
 Vibration     2          0.599              1.964              3.942
 Vibration     3          0.606              1.941              3.263
 Vibration     4          0.636              1.847              2.179
 Vibration     5          0.640              1.833              2.089
 Vibration     6          0.662              1.765              1.739
 Vibration     7          0.670              1.742              1.646
 Vibration     8          0.698              1.657              1.368
 Vibration     9          0.720              1.595              1.212
 Vibration    10          0.860              1.239              0.646
 Vibration    11          0.932              1.084              0.494
 Vibration    12          0.948              1.051              0.466

 Optimization completed.
    -- Stationary point found.
 Normal termination of Gaussian 09 at Tue Jan 28 12:55:36 2020.
