 Gaussian 09, Revision D.01,
 Gaussian 09:  ES64L-G09RevD.01 24-Apr-2013

 -----------------------------
 # b3lyp 6-31G(2df,p) opt Freq
 -----------------------------

 -----
 titel
 -----
 Symbolic Z-matrix:
 Charge =  0 Multiplicity = 1

 SCF Done:  E(RB3LYP) =  -423.179195107     A.U. after   14 cycles
 Optimization completed.
    -- Stationary point found.
 Normal termination of Gaussian 09 at Mon Jan 27 22:03:33 2020.

 ----------------------------------------------------------------------
 #N Geom=AllCheck Guess=TCheck SCRF=Check GenChk RB3LYP/6-31G(2df,p) Fr
 eq
 ----------------------------------------------------------------------

 Structure from the checkpoint file:  "/scratch/puck/g09_52e4fa43-da7b-426a-8722-217055b7ad9f/Gau-78536.chk"
 -----
 titel
 -----
 Charge =  0 Multiplicity = 1

                         Standard orientation:
 ---------------------------------------------------------------------
 Center     Atomic      Atomic             Coordinates (Angstroms)
 Number     Number       Type             X           Y           Z
 ---------------------------------------------------------------------
      1          6           0        2.756594   -0.834670    0.108041
      2          6           0        1.333098   -0.402830   -0.042981
      3          6           0        0.219799   -1.058756    0.299803
      4          6           0       -1.061085   -0.272258    0.032559
      5          6           0       -2.024553   -0.982122   -0.910559
      6          8           0       -1.772766   -0.018358    1.239927
      7          6           0       -0.507745    1.033765   -0.565680
      8          8           0        0.263949    1.777241    0.385441
      9          6           0        0.951812    0.944620   -0.590951
     10          1           0        3.309870   -0.147189    0.759965
     11          1           0        2.826876   -1.839684    0.531623
     12          1           0        3.276577   -0.836554   -0.858200
     13          1           0        0.183190   -2.022297    0.797867
     14          1           0       -2.343083   -1.934406   -0.477522
     15          1           0       -2.914096   -0.364548   -1.070114
     16          1           0       -1.549880   -1.180427   -1.875845
     17          1           0       -1.207691    0.574258    1.753195
     18          1           0       -1.102113    1.623368   -1.258891
     19          1           0        1.583366    1.489917   -1.286412
 ---------------------------------------------------------------------

 SCF Done:  E(RB3LYP) =  -423.179195107     A.U. after    1 cycles

 The electronic state is 1-A.
 Alpha  occ. eigenvalues --  -19.15505 -19.12895 -10.24068 -10.24012 -10.23249
 Alpha  occ. eigenvalues --  -10.19698 -10.19035 -10.17959 -10.17631  -1.07374
 Alpha  occ. eigenvalues --   -1.01110  -0.82530  -0.76133  -0.70348  -0.66603
 Alpha  occ. eigenvalues --   -0.64588  -0.56902  -0.54828  -0.51990  -0.49010
 Alpha  occ. eigenvalues --   -0.44003  -0.43001  -0.42176  -0.41689  -0.40975
 Alpha  occ. eigenvalues --   -0.38620  -0.38129  -0.37569  -0.36112  -0.33022
 Alpha  occ. eigenvalues --   -0.31446  -0.28761  -0.25313  -0.24122
 Alpha virt. eigenvalues --   -0.00190   0.09409   0.10621   0.10825   0.11438
 Alpha virt. eigenvalues --    0.12348   0.14314   0.14920   0.16289   0.16742
 Alpha virt. eigenvalues --    0.17715   0.18322   0.20170   0.21727   0.22210

 Mulliken charges:
               1
     1  C   -0.499916
     2  C    0.311322
     3  C   -0.249846
     4  C    0.354719
     5  C   -0.427990
     6  O   -0.469874
     7  C   -0.021471
     8  O   -0.274265
     9  C   -0.067483
    10  H    0.137116
    11  H    0.129519
    12  H    0.128814
    13  H    0.099492
    14  H    0.127349
    15  H    0.124162
    16  H    0.117737
    17  H    0.285865
    18  H    0.096476
    19  H    0.098274
 Sum of Mulliken charges =   0.00000

 Dipole moment (field-independent basis, Debye):
    X=              1.5818    Y=             -0.7814    Z=             -1.5737  Tot=              2.3642
 Quadrupole moment (field-independent basis, Debye-Ang):
   XX=            -52.6100   YY=            -54.2947   ZZ=            -52.0897
   XY=             -1.0947   XZ=              1.8783   YZ=             -1.8074

  Exact polarizability:  95.308   2.918  72.552  -0.960  -3.809  62.452
 Approx polarizability: 134.418  10.388 110.528  -7.419  -3.201  97.636

                      1                      2                      3
                      A                      A                      A
 Frequencies --    112.1121               172.2328               186.2588
 Red. masses --      3.0591                 1.3972                 1.7305
 Frc consts  --      0.0227                 0.0244                 0.0354
 IR Inten    --      0.3694                 0.7587                 3.2988

                      4                      5                      6
                      A                      A                      A
 Frequencies --    211.5908               255.1156               276.7131
 Red. masses --      1.1502                 3.4857                 2.8419
 Frc consts  --      0.0303                 0.1337                 0.1282
 IR Inten    --      0.6194                 1.0282                 1.2223

                      7                      8                      9
                      A                      A                      A
 Frequencies --    334.3863               384.6068               448.6745
 Red. masses --      3.1706                 2.9728                 1.8876
 Frc consts  --      0.2089                 0.2591                 0.2239
 IR Inten    --      5.7898                 2.7095                 8.3978

                     10                     11                     12
                      A                      A                      A
 Frequencies --    480.2551               534.3936               575.3432
 Red. masses --      1.5427                 3.6338                 3.9726
 Frc consts  --      0.2096                 0.6114                 0.7748
 IR Inten    --     73.0012                 9.2315                 2.0913

                     13                     14                     15
                      A                      A                      A
 Frequencies --    610.3012               625.8358               811.8307
 Red. masses --      4.6526                 3.6780                 4.4572
 Frc consts  --      1.0210                 0.8488                 1.7308
 IR Inten    --      8.5470                 6.1643                13.0560

                     16                     17                     18
                      A                      A                      A
 Frequencies --    838.3985               864.6833               871.5882
 Red. masses --      2.9648                 2.1436                 1.6013
 Frc consts  --      1.2279                 0.9443                 0.7167
 IR Inten    --      5.1283                17.4262                16.5552

                     19                     20                     21
                      A                      A                      A
 Frequencies --    914.9455               945.3643               953.2801
 Red. masses --      3.3847                 2.2984                 1.9045
 Frc consts  --      1.6694                 1.2103                 1.0197
 IR Inten    --     14.8197                21.8618                10.6568

                     22                     23                     24
                      A                      A                      A
 Frequencies --   1008.5859              1042.2505              1064.3229
 Red. masses --      1.4622                 1.8448                 1.5755
 Frc consts  --      0.8763                 1.1807                 1.0515
 IR Inten    --      7.7621                11.5259                 2.1039

                     25                     26                     27
                      A                      A                      A
 Frequencies --   1080.5657              1104.7975              1156.4175
 Red. masses --      1.9117                 1.3538                 2.2702
 Frc consts  --      1.3151                 0.9736                 1.7888
 IR Inten    --     39.5881                 8.4868                58.5944

                     28                     29                     30
                      A                      A                      A
 Frequencies --   1197.8964              1234.1435              1253.5819
 Red. masses --      2.5367                 2.0313                 1.5121
 Frc consts  --      2.1446                 1.8228                 1.4000
 IR Inten    --      7.2833                 6.1255                 4.7815

                     31                     32                     33
                      A                      A                      A
 Frequencies --   1268.2355              1337.4245              1387.2371
 Red. masses --      1.6169                 1.8296                 1.5029
 Frc consts  --      1.5323                 1.9282                 1.7040
 IR Inten    --      9.2614                 5.3017                52.8873

                     34                     35                     36
                      A                      A                      A
 Frequencies --   1408.6915              1413.8881              1424.8490
 Red. masses --      1.6056                 1.2933                 2.9807
 Frc consts  --      1.8772                 1.5232                 3.5654
 IR Inten    --     21.1058                 2.2511                32.6687

                     37                     38                     39
                      A                      A                      A
 Frequencies --   1479.1844              1480.6328              1487.2259
 Red. masses --      1.0442                 1.0544                 1.0612
 Frc consts  --      1.3460                 1.3619                 1.3829
 IR Inten    --      6.4090                 2.9233                 9.2371

                     40                     41                     42
                      A                      A                      A
 Frequencies --   1494.0446              1705.6001              3020.5525
 Red. masses --      1.0644                 7.3717                 1.0381
 Frc consts  --      1.3998                12.6349                 5.5806
 IR Inten    --      1.0020                 6.4177                26.2691

                     43                     44                     45
                      A                      A                      A
 Frequencies --   3039.9120              3068.0309              3114.4938
 Red. masses --      1.0345                 1.0986                 1.1017
 Frc consts  --      5.6324                 6.0930                 6.2963
 IR Inten    --     15.4119                15.4511                16.2099

                     46                     47                     48
                      A                      A                      A
 Frequencies --   3116.4804              3120.9954              3145.6581
 Red. masses --      1.0991                 1.1019                 1.0886
 Frc consts  --      6.2894                 6.3240                 6.3468
 IR Inten    --     15.6741                16.9138                17.7141

                     49                     50                     51
                      A                      A                      A
 Frequencies --   3162.8104              3186.3291              3765.6449
 Red. masses --      1.0947                 1.0941                 1.0653
 Frc consts  --      6.4518                 6.5447                 8.9005
 IR Inten    --     28.1832                 8.6607                19.9634

 - Thermochemistry -
 -------------------
 Temperature   298.150 Kelvin.  Pressure   1.00000 Atm.
 Atom     1 has atomic number  6 and mass  12.00000

 Molecular mass:   126.06808 amu.
 Principal axes and moments of inertia in atomic units:
                           1         2         3
     Eigenvalues --   672.911441258.612071506.46512
           X            0.99967  -0.00885   0.02424
           Y            0.00931   0.99977  -0.01911
           Z           -0.02406   0.01933   0.99952
 This molecule is an asymmetric top.
 Rotational symmetry number  1.
 Warning -- assumption of classical behavior for rotation
           may cause significant error
 Rotational temperatures (Kelvin)      0.12872     0.06882     0.05749
 Rotational constants (GHZ):           2.68199     1.43391     1.19800
 Zero-point vibrational energy     413778.7 (Joules/Mol)
                                   98.89548 (Kcal/Mol)
 Warning -- explicit consideration of  13 degrees of freedom as
           vibrations may cause significant error
 Vibrational temperatures:    161.30   247.80   267.98   304.43   367.05
          (Kelvin)            398.13   481.11   553.36   645.54   690.98
                              768.87   827.79   878.09   900.44  1168.04
                             1206.27  1244.08  1254.02  1316.40  1360.17
                             1371.56  1451.13  1499.56  1531.32  1554.69
                             1589.56  1663.82  1723.50  1775.65  1803.62
                             1824.71  1924.25  1995.92  2026.79  2034.27
                             2050.04  2128.21  2130.30  2139.78  2149.59
                             2453.98  4345.90  4373.75  4414.21  4481.06
                             4483.91  4490.41  4525.89  4550.57  4584.41
                             5417.92

 Zero-point correction=                           0.157600 (Hartree/Particle)
 Thermal correction to Energy=                    0.166378
 Thermal correction to Enthalpy=                  0.167322
 Thermal correction to Gibbs Free Energy=         0.124715
 Sum of electronic and zero-point Energies=           -423.021595
 Sum of electronic and thermal Energies=              -423.012817
 Sum of electronic and thermal Enthalpies=            -423.011873
 Sum of electronic and thermal Free Energies=         -423.054480

                     E (Thermal)             CV                S
                      KCal/Mol        Cal/Mol-Kelvin    Cal/Mol-Kelvin
 Total                  104.404             34.049             89.674
 Electronic               0.000              0.000              0.000
 Translational            0.889              2.981             40.409
 Rotational               0.889              2.981             28.636
 Vibrational            102.626             28.088             20.630
 Vibration     1          0.607              1.939              3.232
 Vibration     2          0.626              1.877              2.411
 Vibration     3          0.632              1.859              2.265
 Vibration     4          0.643              1.823              2.030
 Vibration     5          0.665              1.754              1.695
 Vibration     6          0.678              1.716              1.554
 Vibration     7          0.716              1.607              1.239
 Vibration     8          0.754              1.503              1.021
 Vibration     9          0.808              1.364              0.800
 Vibration    10          0.837              1.294              0.709
 Vibration    11          0.889              1.174              0.577
 Vibration    12          0.932              1.085              0.494
 Vibration    13          0.969              1.010              0.432

 Normal termination of Gaussian 09 at Mon Jan 27 22:49:51 2020.
