 Gaussian 09, Revision D.01,
 Gaussian 09:  ES64L-G09RevD.01 24-Apr-2013

 -----------------------------
 # b3lyp 6-31G(2df,p) opt Freq
 -----------------------------

 -----
 titel
 -----
 Symbolic Z-matrix:
 Charge =  0 Multiplicity = 1

 SCF Done:  E(RB3LYP) =  -423.158972045     A.U. after   14 cycles
 Optimization completed.
    -- Stationary point found.
 Normal termination of Gaussian 09 at Tue Jan 28 03:16:26 2020.

 ----------------------------------------------------------------------
 #N Geom=AllCheck Guess=TCheck SCRF=Check GenChk RB3LYP/6-31G(2df,p) Fr
 eq
 ----------------------------------------------------------------------

 Structure from the checkpoint file:  "/scratch/puck/g09_54a7c17c-846e-47a2-b125-41d98d8c59ef/Gau-46401.chk"
 -----
 titel
 -----
 Charge =  0 Multiplicity = 1

                         Standard orientation:
 ---------------------------------------------------------------------
 Center     Atomic      Atomic             Coordinates (Angstroms)
 Number     Number       Type             X           Y           Z
 ---------------------------------------------------------------------
      1          6           0       -0.723185    2.127422    0.182802
      2          6           0       -0.941010    0.784826   -0.503735
      3          6           0       -2.303467    0.078324   -0.155384
      4          6           0       -1.502920   -1.073192    0.460869
      5          8           0       -0.646933   -1.588905   -0.570190
      6          6           0       -0.218910   -0.419847    0.148654
      7          6           0        1.131715   -0.461569    0.804212
      8          6           0        2.244919   -0.366066   -0.226329
      9          8           0        3.087034    0.493859   -0.238494
     10          1           0       -1.400673    2.884801   -0.224199
     11          1           0       -0.910300    2.059979    1.260906
     12          1           0        0.302894    2.483254    0.041672
     13          1           0       -0.736487    0.860914   -1.575849
     14          1           0       -2.880648    0.643999    0.581128
     15          1           0       -2.948476   -0.201907   -0.991245
     16          1           0       -1.774904   -1.756291    1.258272
     17          1           0        1.251683    0.353466    1.523192
     18          1           0        1.232120   -1.421046    1.327477
     19          1           0        2.221134   -1.166192   -0.998419
 ---------------------------------------------------------------------

 SCF Done:  E(RB3LYP) =  -423.158972045     A.U. after    1 cycles

 The electronic state is 1-A.
 Alpha  occ. eigenvalues --  -19.15505 -19.14431 -10.27597 -10.24934 -10.24190
 Alpha  occ. eigenvalues --  -10.20505 -10.20058 -10.19298 -10.18465  -1.08204
 Alpha  occ. eigenvalues --   -1.05068  -0.82071  -0.77837  -0.71843  -0.64046
 Alpha  occ. eigenvalues --   -0.62637  -0.58056  -0.53944  -0.51306  -0.48412
 Alpha  occ. eigenvalues --   -0.46563  -0.45486  -0.44324  -0.41889  -0.40821
 Alpha  occ. eigenvalues --   -0.40021  -0.38657  -0.37749  -0.35133  -0.34348
 Alpha  occ. eigenvalues --   -0.32531  -0.29752  -0.26457  -0.24728
 Alpha virt. eigenvalues --   -0.02792   0.08680   0.09299   0.11244   0.11665
 Alpha virt. eigenvalues --    0.11863   0.12816   0.14213   0.14492   0.15494
 Alpha virt. eigenvalues --    0.16376   0.16653   0.17378   0.19840   0.21225

 Mulliken charges:
               1
     1  C   -0.417911
     2  C   -0.042943
     3  C   -0.259920
     4  C   -0.052906
     5  O   -0.295881
     6  C    0.414241
     7  C   -0.399431
     8  C    0.158105
     9  O   -0.237065
    10  H    0.122970
    11  H    0.114042
    12  H    0.134074
    13  H    0.084773
    14  H    0.106246
    15  H    0.112791
    16  H    0.102932
    17  H    0.127314
    18  H    0.130854
    19  H    0.097715
 Sum of Mulliken charges =   0.00000

 Dipole moment (field-independent basis, Debye):
    X=             -2.2587    Y=             -0.0806    Z=              1.4956  Tot=              2.7102
 Quadrupole moment (field-independent basis, Debye-Ang):
   XX=            -59.5154   YY=            -54.5335   ZZ=            -52.0530
   XY=             -4.8095   XZ=              0.0181   YZ=             -2.4481

  Exact polarizability:  87.712   4.076  76.164  -1.755  -0.641  63.720
 Approx polarizability: 120.905  11.777 113.989  -4.662   1.853  99.199

                      1                      2                      3
                      A                      A                      A
 Frequencies --     36.5869                64.7409               140.8395
 Red. masses --      5.7088                 3.5669                 2.5950
 Frc consts  --      0.0045                 0.0088                 0.0303
 IR Inten    --      5.1493                 3.2221                 2.6892

                      4                      5                      6
                      A                      A                      A
 Frequencies --    189.3053               226.9425               259.6744
 Red. masses --      2.6649                 2.6017                 1.0640
 Frc consts  --      0.0563                 0.0789                 0.0423
 IR Inten    --      1.1453                 2.0376                 0.4909

                      7                      8                      9
                      A                      A                      A
 Frequencies --    349.6706               386.5783               456.6636
 Red. masses --      3.2937                 2.1719                 2.8495
 Frc consts  --      0.2373                 0.1912                 0.3501
 IR Inten    --      1.4574                 2.5514                 5.6141

                     10                     11                     12
                      A                      A                      A
 Frequencies --    479.8064               497.8075               654.6608
 Red. masses --      3.1884                 3.7045                 2.5701
 Frc consts  --      0.4325                 0.5409                 0.6490
 IR Inten    --      6.2172                15.8344                 2.3056

                     13                     14                     15
                      A                      A                      A
 Frequencies --    729.4100               803.9181               851.5308
 Red. masses --      3.3858                 3.0282                 2.0094
 Frc consts  --      1.0613                 1.1531                 0.8584
 IR Inten    --      4.4508                 3.6019                 3.4384

                     16                     17                     18
                      A                      A                      A
 Frequencies --    852.6700               887.6565               922.6619
 Red. masses --      2.0454                 3.0328                 1.6465
 Frc consts  --      0.8762                 1.4079                 0.8258
 IR Inten    --      3.9960                15.3133                 5.0814

                     19                     20                     21
                      A                      A                      A
 Frequencies --    945.0804               986.1560              1033.2172
 Red. masses --      2.1712                 1.5093                 1.8932
 Frc consts  --      1.1426                 0.8648                 1.1908
 IR Inten    --      3.1172                 3.8945                 6.5099

                     22                     23                     24
                      A                      A                      A
 Frequencies --   1046.6541              1068.8666              1097.5114
 Red. masses --      1.6793                 2.7031                 1.8723
 Frc consts  --      1.0839                 1.8195                 1.3288
 IR Inten    --      3.5374                36.2281                12.1342

                     25                     26                     27
                      A                      A                      A
 Frequencies --   1118.7466              1164.0449              1198.5499
 Red. masses --      2.1838                 1.9825                 1.4962
 Frc consts  --      1.6103                 1.5827                 1.2664
 IR Inten    --      0.6024                16.4719                 0.0996

                     28                     29                     30
                      A                      A                      A
 Frequencies --   1232.6970              1235.4976              1259.5531
 Red. masses --      1.3069                 1.4208                 1.4566
 Frc consts  --      1.1700                 1.2778                 1.3615
 IR Inten    --      7.1760                 4.5573                 6.9005

                     31                     32                     33
                      A                      A                      A
 Frequencies --   1288.8468              1302.3505              1348.6037
 Red. masses --      1.6509                 1.5971                 1.6288
 Frc consts  --      1.6157                 1.5961                 1.7453
 IR Inten    --      0.9519                11.1117                 1.4834

                     34                     35                     36
                      A                      A                      A
 Frequencies --   1412.2475              1422.2941              1433.4892
 Red. masses --      1.2535                 1.1912                 2.0785
 Frc consts  --      1.4730                 1.4197                 2.5164
 IR Inten    --      2.5093                 7.3120                 9.7664

                     37                     38                     39
                      A                      A                      A
 Frequencies --   1450.6459              1477.5941              1497.2604
 Red. masses --      1.4182                 1.2694                 1.0448
 Frc consts  --      1.7583                 1.6329                 1.3800
 IR Inten    --     16.9845                 5.1327                 4.1609

                     40                     41                     42
                      A                      A                      A
 Frequencies --   1501.4584              1832.4412              2896.9359
 Red. masses --      1.0561                 9.9172                 1.0838
 Frc consts  --      1.4028                19.6200                 5.3591
 IR Inten    --      4.2633               167.6232                78.5568

                     43                     44                     45
                      A                      A                      A
 Frequencies --   3027.2111              3034.5713              3060.2771
 Red. masses --      1.0360                 1.0612                 1.0761
 Frc consts  --      5.5937                 5.7576                 5.9378
 IR Inten    --     17.4561                 6.9664                17.8410

                     46                     47                     48
                      A                      A                      A
 Frequencies --   3064.1171              3095.3955              3102.9056
 Red. masses --      1.0674                 1.1000                 1.1016
 Frc consts  --      5.9046                 6.2097                 6.2492
 IR Inten    --     20.4828                30.3315                21.1071

                     49                     50                     51
                      A                      A                      A
 Frequencies --   3107.8145              3121.1889              3178.0868
 Red. masses --      1.1001                 1.1080                 1.0941
 Frc consts  --      6.2601                 6.3594                 6.5109
 IR Inten    --      8.3517                22.7497                21.1947

 - Thermochemistry -
 -------------------
 Temperature   298.150 Kelvin.  Pressure   1.00000 Atm.
 Atom     1 has atomic number  6 and mass  12.00000

 Molecular mass:   126.06808 amu.
 Principal axes and moments of inertia in atomic units:
                           1         2         3
     Eigenvalues --   662.870991458.003941883.82563
           X            0.99936  -0.03581   0.00189
           Y            0.03582   0.99932  -0.00872
           Z           -0.00157   0.00879   0.99996
 This molecule is an asymmetric top.
 Rotational symmetry number  1.
 Warning -- assumption of classical behavior for rotation
           may cause significant error
 Rotational temperatures (Kelvin)      0.13066     0.05941     0.04598
 Rotational constants (GHZ):           2.72261     1.23782     0.95802
 Zero-point vibrational energy     411715.4 (Joules/Mol)
                                   98.40233 (Kcal/Mol)
 Warning -- explicit consideration of  11 degrees of freedom as
           vibrations may cause significant error
 Vibrational temperatures:     52.64    93.15   202.64   272.37   326.52
          (Kelvin)            373.61   503.10   556.20   657.04   690.33
                              716.23   941.91  1049.46  1156.66  1225.16
                             1226.80  1277.14  1327.50  1359.76  1418.86
                             1486.57  1505.90  1537.86  1579.07  1609.62
                             1674.80  1724.44  1773.57  1777.60  1812.21
                             1854.36  1873.79  1940.34  2031.91  2046.36
                             2062.47  2087.15  2125.93  2154.22  2160.26
                             2636.47  4168.04  4355.48  4366.07  4403.05
                             4408.58  4453.58  4464.38  4471.45  4490.69
                             4572.55

 Zero-point correction=                           0.156814 (Hartree/Particle)
 Thermal correction to Energy=                    0.165876
 Thermal correction to Enthalpy=                  0.166820
 Thermal correction to Gibbs Free Energy=         0.121939
 Sum of electronic and zero-point Energies=           -423.002158
 Sum of electronic and thermal Energies=              -422.993096
 Sum of electronic and thermal Enthalpies=            -422.992152
 Sum of electronic and thermal Free Energies=         -423.037033

                     E (Thermal)             CV                S
                      KCal/Mol        Cal/Mol-Kelvin    Cal/Mol-Kelvin
 Total                  104.089             33.055             94.460
 Electronic               0.000              0.000              0.000
 Translational            0.889              2.981             40.409
 Rotational               0.889              2.981             28.989
 Vibrational            102.311             27.094             25.063
 Vibration     1          0.594              1.982              5.436
 Vibration     2          0.597              1.971              4.307
 Vibration     3          0.615              1.912              2.792
 Vibration     4          0.633              1.855              2.235
 Vibration     5          0.651              1.800              1.903
 Vibration     6          0.668              1.746              1.664
 Vibration     7          0.727              1.576              1.168
 Vibration     8          0.755              1.499              1.013
 Vibration     9          0.815              1.346              0.776
 Vibration    10          0.836              1.295              0.711
 Vibration    11          0.853              1.255              0.664

 Optimization completed.
    -- Stationary point found.
 Normal termination of Gaussian 09 at Tue Jan 28 05:12:25 2020.
