 Gaussian 09, Revision D.01,
 Gaussian 09:  ES64L-G09RevD.01 24-Apr-2013

 -----------------------------
 # b3lyp 6-31G(2df,p) opt Freq
 -----------------------------

 -----
 titel
 -----
 Symbolic Z-matrix:
 Charge =  0 Multiplicity = 1

 SCF Done:  E(RB3LYP) =  -423.127696026     A.U. after   14 cycles
 Optimization completed.
    -- Stationary point found.
 Normal termination of Gaussian 09 at Mon Jan 27 16:20:48 2020.

 ----------------------------------------------------------------------
 #N Geom=AllCheck Guess=TCheck SCRF=Check GenChk RB3LYP/6-31G(2df,p) Fr
 eq
 ----------------------------------------------------------------------

 Structure from the checkpoint file:  "/scratch/puck/g09_ca835966-1ddc-426f-a1b1-ac99a1830048/Gau-60047.chk"
 -----
 titel
 -----
 Charge =  0 Multiplicity = 1

                         Standard orientation:
 ---------------------------------------------------------------------
 Center     Atomic      Atomic             Coordinates (Angstroms)
 Number     Number       Type             X           Y           Z
 ---------------------------------------------------------------------
      1          6           0        2.052394    1.158425   -0.128751
      2          6           0        1.084137   -0.021025   -0.061806
      3          8           0        1.734084   -1.226542   -0.477489
      4          6           0        0.500781   -0.287079    1.360711
      5          6           0       -0.991573   -0.210825    1.074233
      6          6           0       -1.288293   -0.807709   -0.332849
      7          8           0       -2.365839    0.170272   -0.558211
      8          6           0       -1.267410    0.930741    0.050892
      9          6           0       -0.216580    0.199031   -0.836405
     10          1           0        1.582962    2.082007    0.225461
     11          1           0        2.934035    0.958727    0.487564
     12          1           0        2.387993    1.331989   -1.158565
     13          1           0        2.041250   -1.099898   -1.381978
     14          1           0        0.820668   -1.270064    1.714995
     15          1           0        0.825579    0.461581    2.090105
     16          1           0       -1.720174   -0.376385    1.866867
     17          1           0       -1.462273   -1.840883   -0.631308
     18          1           0       -1.417983    1.998358    0.217294
     19          1           0       -0.178755    0.435373   -1.900984
 ---------------------------------------------------------------------

 SCF Done:  E(RB3LYP) =  -423.127696026     A.U. after    1 cycles

 The electronic state is 1-A.
 Alpha  occ. eigenvalues --  -19.13728 -19.12615 -10.24460 -10.24192 -10.24130
 Alpha  occ. eigenvalues --  -10.19546 -10.19201 -10.18189 -10.18135  -1.05498
 Alpha  occ. eigenvalues --   -1.01952  -0.84460  -0.74322  -0.70842  -0.65944
 Alpha  occ. eigenvalues --   -0.64776  -0.56646  -0.53847  -0.52077  -0.49728
 Alpha  occ. eigenvalues --   -0.46549  -0.43220  -0.41800  -0.40925  -0.39505
 Alpha  occ. eigenvalues --   -0.38546  -0.36834  -0.35228  -0.33771  -0.31719
 Alpha  occ. eigenvalues --   -0.30695  -0.30533  -0.27337  -0.22661
 Alpha virt. eigenvalues --    0.06178   0.09624   0.11024   0.12359   0.12729
 Alpha virt. eigenvalues --    0.13454   0.13878   0.14781   0.15460   0.16062
 Alpha virt. eigenvalues --    0.16694   0.17372   0.18927   0.19286   0.21195

 Mulliken charges:
               1
     1  C   -0.448961
     2  C    0.387608
     3  O   -0.478489
     4  C   -0.287774
     5  C   -0.037037
     6  C    0.051891
     7  O   -0.321034
     8  C    0.043119
     9  C   -0.084156
    10  H    0.117855
    11  H    0.126869
    12  H    0.105689
    13  H    0.274047
    14  H    0.120288
    15  H    0.099431
    16  H    0.078543
    17  H    0.095143
    18  H    0.088539
    19  H    0.068428
 Sum of Mulliken charges =   0.00000

 Dipole moment (field-independent basis, Debye):
    X=              1.8281    Y=              0.8552    Z=             -0.0561  Tot=              2.0191
 Quadrupole moment (field-independent basis, Debye-Ang):
   XX=            -59.7819   YY=            -52.4385   ZZ=            -49.8546
   XY=              2.4231   XZ=             -4.5935   YZ=              1.3791

  Exact polarizability:  78.961   1.091  70.803  -1.647   0.320  71.728
 Approx polarizability: 109.575  -2.049 110.591  -0.692   1.473 108.712

                      1                      2                      3
                      A                      A                      A
 Frequencies --    113.4428               230.6557               252.8869
 Red. masses --      3.1885                 2.5333                 1.1266
 Frc consts  --      0.0242                 0.0794                 0.0425
 IR Inten    --      0.0935                 0.8338                 0.2334

                      4                      5                      6
                      A                      A                      A
 Frequencies --    279.1955               341.7041               363.0852
 Red. masses --      1.1165                 3.4606                 2.5371
 Frc consts  --      0.0513                 0.2381                 0.1971
 IR Inten    --     78.9115                23.2759                 6.8309

                      7                      8                      9
                      A                      A                      A
 Frequencies --    407.3321               498.5076               525.4937
 Red. masses --      2.5606                 4.1166                 3.7299
 Frc consts  --      0.2503                 0.6027                 0.6069
 IR Inten    --      5.3496                 6.1656                 1.9893

                     10                     11                     12
                      A                      A                      A
 Frequencies --    597.8714               674.5082               767.9902
 Red. masses --      4.0174                 4.3278                 3.3873
 Frc consts  --      0.8461                 1.1601                 1.1771
 IR Inten    --      5.5434                 3.2682                 4.9773

                     13                     14                     15
                      A                      A                      A
 Frequencies --    791.6358               830.5283               882.7571
 Red. masses --      3.6049                 3.1434                 3.2522
 Frc consts  --      1.3310                 1.2775                 1.4932
 IR Inten    --      2.4642                 1.7065                 6.7993

                     16                     17                     18
                      A                      A                      A
 Frequencies --    894.6875               905.7641               933.5094
 Red. masses --      2.2588                 2.5115                 1.7521
 Frc consts  --      1.0653                 1.2140                 0.8996
 IR Inten    --     17.9224                26.9831                 4.4116

                     19                     20                     21
                      A                      A                      A
 Frequencies --    947.7923               962.4371               984.5926
 Red. masses --      2.4500                 1.6291                 2.8186
 Frc consts  --      1.2967                 0.8891                 1.6099
 IR Inten    --     33.3301                 0.7892                 2.8058

                     22                     23                     24
                      A                      A                      A
 Frequencies --    994.3305              1004.0497              1104.0087
 Red. masses --      1.1848                 1.6875                 1.3643
 Frc consts  --      0.6902                 1.0023                 0.9797
 IR Inten    --      2.0176                 6.3461                32.8788

                     25                     26                     27
                      A                      A                      A
 Frequencies --   1107.1286              1127.4288              1154.9267
 Red. masses --      1.8088                 2.6545                 1.3587
 Frc consts  --      1.3063                 1.9880                 1.0678
 IR Inten    --     24.9464                 6.2405                 8.5483

                     28                     29                     30
                      A                      A                      A
 Frequencies --   1174.1506              1181.0941              1196.4580
 Red. masses --      1.5233                 2.0025                 1.9640
 Frc consts  --      1.2374                 1.6458                 1.6565
 IR Inten    --     11.5553                 4.4390                 2.5649

                     31                     32                     33
                      A                      A                      A
 Frequencies --   1232.8452              1258.2264              1263.5122
 Red. masses --      1.7788                 1.7001                 1.6522
 Frc consts  --      1.5929                 1.5858                 1.5541
 IR Inten    --      9.3971                14.1739                25.4086

                     34                     35                     36
                      A                      A                      A
 Frequencies --   1282.5188              1315.4353              1336.9330
 Red. masses --      1.8910                 2.1524                 1.6542
 Frc consts  --      1.8326                 2.1944                 1.7420
 IR Inten    --     11.5976                 8.3371                31.8835

                     37                     38                     39
                      A                      A                      A
 Frequencies --   1396.6128              1408.1816              1487.1150
 Red. masses --      1.9033                 1.2599                 1.0775
 Frc consts  --      2.1873                 1.4719                 1.4040
 IR Inten    --     14.4686                 6.0037                 6.0379

                     40                     41                     42
                      A                      A                      A
 Frequencies --   1492.9122              1493.7788              3024.3675
 Red. masses --      1.0577                 1.0845                 1.0373
 Frc consts  --      1.3889                 1.4257                 5.5900
 IR Inten    --      1.0939                 2.3572                19.6325

                     43                     44                     45
                      A                      A                      A
 Frequencies --   3054.8370              3089.7319              3103.2812
 Red. masses --      1.0620                 1.0981                 1.0886
 Frc consts  --      5.8392                 6.1765                 6.1767
 IR Inten    --     25.9347                19.4454                33.1544

                     46                     47                     48
                      A                      A                      A
 Frequencies --   3108.3102              3112.3218              3113.0420
 Red. masses --      1.1030                 1.0995                 1.0918
 Frc consts  --      6.2790                 6.2748                 6.2339
 IR Inten    --     15.6344                15.0996                58.3015

                     49                     50                     51
                      A                      A                      A
 Frequencies --   3125.6112              3138.2090              3801.0648
 Red. masses --      1.0904                 1.0952                 1.0659
 Frc consts  --      6.2763                 6.3550                 9.0736
 IR Inten    --     38.1973                22.7597                13.5094

 - Thermochemistry -
 -------------------
 Temperature   298.150 Kelvin.  Pressure   1.00000 Atm.
 Atom     1 has atomic number  6 and mass  12.00000

 Molecular mass:   126.06808 amu.
 Principal axes and moments of inertia in atomic units:
                           1         2         3
     Eigenvalues --   541.629081284.561831303.63806
           X            0.99937   0.03224  -0.01500
           Y           -0.03300   0.99799  -0.05404
           Z            0.01322   0.05450   0.99843
 This molecule is an asymmetric top.
 Rotational symmetry number  1.
 Warning -- assumption of classical behavior for rotation
           may cause significant error
 Rotational temperatures (Kelvin)      0.15991     0.06743     0.06644
 Rotational constants (GHZ):           3.33206     1.40495     1.38439
 Zero-point vibrational energy     417908.2 (Joules/Mol)
                                   99.88247 (Kcal/Mol)
 Warning -- explicit consideration of  10 degrees of freedom as
           vibrations may cause significant error
 Vibrational temperatures:    163.22   331.86   363.85   401.70   491.64
          (Kelvin)            522.40   586.06   717.24   756.07   860.20
                              970.47  1104.97  1138.99  1194.94  1270.09
                             1287.25  1303.19  1343.11  1363.66  1384.73
                             1416.61  1430.62  1444.60  1588.42  1592.91
                             1622.12  1661.68  1689.34  1699.33  1721.43
                             1773.79  1810.30  1817.91  1845.26  1892.62
                             1923.55  2009.41  2026.06  2139.62  2147.96
                             2149.21  4351.38  4395.22  4445.43  4464.92
                             4472.16  4477.93  4478.97  4497.05  4515.18
                             5468.88

 Zero-point correction=                           0.159173 (Hartree/Particle)
 Thermal correction to Energy=                    0.166794
 Thermal correction to Enthalpy=                  0.167739
 Thermal correction to Gibbs Free Energy=         0.127522
 Sum of electronic and zero-point Energies=           -422.968523
 Sum of electronic and thermal Energies=              -422.960902
 Sum of electronic and thermal Enthalpies=            -422.959957
 Sum of electronic and thermal Free Energies=         -423.000174

                     E (Thermal)             CV                S
                      KCal/Mol        Cal/Mol-Kelvin    Cal/Mol-Kelvin
 Total                  104.665             31.164             84.643
 Electronic               0.000              0.000              0.000
 Translational            0.889              2.981             40.409
 Rotational               0.889              2.981             28.297
 Vibrational            102.888             25.202             15.938
 Vibration     1          0.607              1.938              3.209
 Vibration     2          0.652              1.794              1.874
 Vibration     3          0.664              1.758              1.710
 Vibration     4          0.680              1.712              1.539
 Vibration     5          0.721              1.592              1.204
 Vibration     6          0.737              1.548              1.109
 Vibration     7          0.772              1.454              0.936
 Vibration     8          0.854              1.253              0.662
 Vibration     9          0.880              1.194              0.597
 Vibration    10          0.956              1.036              0.453

 Optimization completed.
    -- Stationary point found.
 Normal termination of Gaussian 09 at Mon Jan 27 17:04:35 2020.
