 Gaussian 09, Revision D.01,
 Gaussian 09:  ES64L-G09RevD.01 24-Apr-2013

 -----------------------------
 # b3lyp 6-31G(2df,p) opt Freq
 -----------------------------

 -----
 titel
 -----
 Symbolic Z-matrix:
 Charge =  0 Multiplicity = 1

 SCF Done:  E(RB3LYP) =  -423.181575129     A.U. after   13 cycles
 Optimization completed.
    -- Stationary point found.
 Normal termination of Gaussian 09 at Tue Jan 28 00:02:08 2020.

 ----------------------------------------------------------------------
 #N Geom=AllCheck Guess=TCheck SCRF=Check GenChk RB3LYP/6-31G(2df,p) Fr
 eq
 ----------------------------------------------------------------------

 Structure from the checkpoint file:  "/scratch/puck/g09_f0b8f42c-5e46-49b4-8f21-59e56b8041fc/Gau-51352.chk"
 -----
 titel
 -----
 Charge =  0 Multiplicity = 1

                         Standard orientation:
 ---------------------------------------------------------------------
 Center     Atomic      Atomic             Coordinates (Angstroms)
 Number     Number       Type             X           Y           Z
 ---------------------------------------------------------------------
      1          6           0       -2.698053   -0.538699   -0.261453
      2          6           0       -1.246157   -0.460182    0.094351
      3          6           0       -0.324854   -1.420505   -0.022243
      4          6           0        1.060297   -1.003257    0.430149
      5          8           0        2.073186   -1.191258   -0.539640
      6          6           0        0.862301    0.496547    0.768543
      7          8           0        1.179524    1.330806   -0.378613
      8          6           0       -0.180477    1.822926   -0.454266
      9          6           0       -0.641256    0.818733    0.629628
     10          1           0       -2.968299    0.227783   -0.999235
     11          1           0       -2.960380   -1.515636   -0.675215
     12          1           0       -3.330351   -0.359009    0.617506
     13          1           0       -0.511902   -2.416367   -0.410623
     14          1           0        1.380805   -1.572038    1.312425
     15          1           0        1.994650   -0.432027   -1.135492
     16          1           0        1.398761    0.833052    1.660106
     17          1           0       -0.233470    2.877871   -0.158891
     18          1           0       -0.608513    1.701410   -1.455724
     19          1           0       -1.173796    1.245199    1.482916
 ---------------------------------------------------------------------

 SCF Done:  E(RB3LYP) =  -423.181575129     A.U. after    1 cycles

 The electronic state is 1-A.
 Alpha  occ. eigenvalues --  -19.14463 -19.12131 -10.23785 -10.23386 -10.22763
 Alpha  occ. eigenvalues --  -10.19883 -10.19499 -10.18949 -10.17502  -1.04969
 Alpha  occ. eigenvalues --   -1.00233  -0.83593  -0.74192  -0.72583  -0.68010
 Alpha  occ. eigenvalues --   -0.63801  -0.55528  -0.53567  -0.51721  -0.48936
 Alpha  occ. eigenvalues --   -0.46896  -0.44214  -0.42584  -0.42064  -0.41663
 Alpha  occ. eigenvalues --   -0.40331  -0.37931  -0.35418  -0.34776  -0.31700
 Alpha  occ. eigenvalues --   -0.30728  -0.27184  -0.25292  -0.24147
 Alpha virt. eigenvalues --    0.01331   0.06655   0.09070   0.10903   0.12874
 Alpha virt. eigenvalues --    0.13126   0.13755   0.14744   0.16101   0.17326
 Alpha virt. eigenvalues --    0.18039   0.18482   0.18709   0.20298   0.21987

 Mulliken charges:
               1
     1  C   -0.493785
     2  C    0.312892
     3  C   -0.211952
     4  C    0.091580
     5  O   -0.436046
     6  C    0.073097
     7  O   -0.304186
     8  C   -0.079040
     9  C   -0.170513
    10  H    0.126839
    11  H    0.129770
    12  H    0.127703
    13  H    0.094861
    14  H    0.082359
    15  H    0.286734
    16  H    0.078111
    17  H    0.104144
    18  H    0.106673
    19  H    0.080759
 Sum of Mulliken charges =   0.00000

 Dipole moment (field-independent basis, Debye):
    X=             -2.8714    Y=              1.0690    Z=              0.8054  Tot=              3.1680
 Quadrupole moment (field-independent basis, Debye-Ang):
   XX=            -56.7437   YY=            -53.4997   ZZ=            -50.9888
   XY=              0.9773   XZ=              1.8983   YZ=             -0.2210

  Exact polarizability:  85.618  -6.529  81.813   2.704   0.538  62.583
 Approx polarizability: 122.059 -17.107 121.248  -0.430   0.527  96.857

                      1                      2                      3
                      A                      A                      A
 Frequencies --    108.1129               142.0190               186.5518
 Red. masses --      3.8806                 2.6677                 1.1606
 Frc consts  --      0.0267                 0.0317                 0.0238
 IR Inten    --      0.3073                 0.5312                 0.2578

                      4                      5                      6
                      A                      A                      A
 Frequencies --    219.7091               279.1246               316.7127
 Red. masses --      2.4803                 5.3909                 2.5433
 Frc consts  --      0.0705                 0.2475                 0.1503
 IR Inten    --      0.2014                 6.7511                 1.5035

                      7                      8                      9
                      A                      A                      A
 Frequencies --    428.8363               482.7123               534.9673
 Red. masses --      3.2634                 1.1770                 4.3085
 Frc consts  --      0.3536                 0.1616                 0.7265
 IR Inten    --      0.3165                79.2733                12.7681

                     10                     11                     12
                      A                      A                      A
 Frequencies --    554.5426               574.8071               744.6329
 Red. masses --      3.2465                 3.7029                 3.2431
 Frc consts  --      0.5882                 0.7208                 1.0595
 IR Inten    --      2.5085                 3.1167                 2.8211

                     13                     14                     15
                      A                      A                      A
 Frequencies --    794.2417               828.7608               858.8187
 Red. masses --      2.3822                 2.5403                 2.3479
 Frc consts  --      0.8854                 1.0280                 1.0203
 IR Inten    --      3.1830                 4.4154                 2.2355

                     16                     17                     18
                      A                      A                      A
 Frequencies --    894.0549               916.7598               972.6426
 Red. masses --      2.1075                 2.0910                 2.6813
 Frc consts  --      0.9925                 1.0354                 1.4945
 IR Inten    --     46.0532                 3.9221                 6.9842

                     19                     20                     21
                      A                      A                      A
 Frequencies --   1000.1162              1016.0189              1027.3476
 Red. masses --      2.5905                 3.3554                 1.4946
 Frc consts  --      1.5267                 2.0408                 0.9294
 IR Inten    --     10.3265                63.9113                 2.4675

                     22                     23                     24
                      A                      A                      A
 Frequencies --   1040.3687              1077.0849              1083.6839
 Red. masses --      1.9112                 2.5010                 3.4735
 Frc consts  --      1.2188                 1.7095                 2.4034
 IR Inten    --      7.0526                11.2820                89.6247

                     25                     26                     27
                      A                      A                      A
 Frequencies --   1094.2041              1166.1727              1170.1860
 Red. masses --      2.0914                 1.1418                 1.9948
 Frc consts  --      1.4753                 0.9149                 1.6094
 IR Inten    --     12.7860                 1.0740                14.0105

                     28                     29                     30
                      A                      A                      A
 Frequencies --   1228.3367              1254.7954              1261.8239
 Red. masses --      1.5408                 1.7761                 1.2992
 Frc consts  --      1.3698                 1.6476                 1.2188
 IR Inten    --      3.3968                 2.7764                19.1505

                     31                     32                     33
                      A                      A                      A
 Frequencies --   1285.9352              1312.5493              1337.0075
 Red. masses --      1.4515                 1.3762                 1.7019
 Frc consts  --      1.4142                 1.3969                 1.7925
 IR Inten    --      0.6712                 2.2648                 0.7630

                     34                     35                     36
                      A                      A                      A
 Frequencies --   1352.1207              1359.6075              1414.1106
 Red. masses --      1.3437                 1.9714                 1.2890
 Frc consts  --      1.4474                 2.1471                 1.5187
 IR Inten    --      5.4770                 3.8017                 1.8351

                     37                     38                     39
                      A                      A                      A
 Frequencies --   1444.8610              1479.5178              1487.2408
 Red. masses --      1.2247                 1.0450                 1.0631
 Frc consts  --      1.5063                 1.3477                 1.3855
 IR Inten    --     95.2101                 7.5557                 7.7524

                     40                     41                     42
                      A                      A                      A
 Frequencies --   1515.9902              1713.1225              3016.5948
 Red. masses --      1.0998                 7.2802                 1.0408
 Frc consts  --      1.4892                12.5884                 5.5801
 IR Inten    --      0.3358                 8.9329                15.1675

                     43                     44                     45
                      A                      A                      A
 Frequencies --   3018.7735              3022.7465              3062.1528
 Red. masses --      1.0533                 1.0839                 1.0985
 Frc consts  --      5.6552                 5.8352                 6.0686
 IR Inten    --     82.1168                36.6778                16.8359

                     46                     47                     48
                      A                      A                      A
 Frequencies --   3066.2344              3069.2163              3085.9417
 Red. masses --      1.0949                 1.1007                 1.0900
 Frc consts  --      6.0649                 6.1090                 6.1159
 IR Inten    --     60.4364                 4.4002                60.6816

                     49                     50                     51
                      A                      A                      A
 Frequencies --   3115.6705              3188.6007              3730.8255
 Red. masses --      1.0986                 1.0938                 1.0648
 Frc consts  --      6.2833                 6.5524                 8.7322
 IR Inten    --     17.2303                11.5117                39.4283

 - Thermochemistry -
 -------------------
 Temperature   298.150 Kelvin.  Pressure   1.00000 Atm.
 Atom     1 has atomic number  6 and mass  12.00000

 Molecular mass:   126.06808 amu.
 Principal axes and moments of inertia in atomic units:
                           1         2         3
     Eigenvalues --   733.327211075.374781547.58405
           X            0.99976   0.01202   0.01807
           Y           -0.01207   0.99992   0.00234
           Z           -0.01804  -0.00256   0.99983
 This molecule is an asymmetric top.
 Rotational symmetry number  1.
 Warning -- assumption of classical behavior for rotation
           may cause significant error
 Rotational temperatures (Kelvin)      0.11811     0.08054     0.05597
 Rotational constants (GHZ):           2.46103     1.67824     1.16617
 Zero-point vibrational energy     420708.5 (Joules/Mol)
                                  100.55174 (Kcal/Mol)
 Warning -- explicit consideration of  11 degrees of freedom as
           vibrations may cause significant error
 Vibrational temperatures:    155.55   204.33   268.41   316.11   401.60
          (Kelvin)            455.68   617.00   694.51   769.70   797.86
                              827.02  1071.36  1142.74  1192.40  1235.65
                             1286.34  1319.01  1399.41  1438.94  1461.82
                             1478.12  1496.86  1549.68  1559.18  1574.31
                             1677.86  1683.63  1767.30  1805.37  1815.48
                             1850.17  1888.46  1923.65  1945.40  1956.17
                             2034.59  2078.83  2128.69  2139.81  2181.17
                             2464.80  4340.20  4343.34  4349.05  4405.75
                             4411.62  4415.91  4439.98  4482.75  4587.68
                             5367.82

 Zero-point correction=                           0.160239 (Hartree/Particle)
 Thermal correction to Energy=                    0.168320
 Thermal correction to Enthalpy=                  0.169264
 Thermal correction to Gibbs Free Energy=         0.127704
 Sum of electronic and zero-point Energies=           -423.021336
 Sum of electronic and thermal Energies=              -423.013256
 Sum of electronic and thermal Enthalpies=            -423.012311
 Sum of electronic and thermal Free Energies=         -423.053872

                     E (Thermal)             CV                S
                      KCal/Mol        Cal/Mol-Kelvin    Cal/Mol-Kelvin
 Total                  105.622             31.297             87.471
 Electronic               0.000              0.000              0.000
 Translational            0.889              2.981             40.409
 Rotational               0.889              2.981             28.592
 Vibrational            103.845             25.336             18.471
 Vibration     1          0.606              1.943              3.303
 Vibration     2          0.615              1.911              2.776
 Vibration     3          0.632              1.858              2.262
 Vibration     4          0.647              1.811              1.961
 Vibration     5          0.679              1.712              1.539
 Vibration     6          0.704              1.642              1.327
 Vibration     7          0.790              1.407              0.862
 Vibration     8          0.839              1.288              0.703
 Vibration     9          0.890              1.173              0.576
 Vibration    10          0.910              1.130              0.535
 Vibration    11          0.931              1.086              0.495

 Normal termination of Gaussian 09 at Tue Jan 28 00:48:01 2020.
