 Gaussian 09, Revision D.01,
 Gaussian 09:  ES64L-G09RevD.01 24-Apr-2013

 -----------------------------
 # b3lyp 6-31G(2df,p) opt Freq
 -----------------------------

 -----
 titel
 -----
 Symbolic Z-matrix:
 Charge =  0 Multiplicity = 1

 SCF Done:  E(RB3LYP) =  -423.159893902     A.U. after   14 cycles
 Optimization completed.
    -- Stationary point found.
 Normal termination of Gaussian 09 at Tue Jan 28 02:51:08 2020.

 ----------------------------------------------------------------------
 #N Geom=AllCheck Guess=TCheck SCRF=Check GenChk RB3LYP/6-31G(2df,p) Fr
 eq
 ----------------------------------------------------------------------

 Structure from the checkpoint file:  "/scratch/puck/g09_71c403a7-5640-4121-a193-3f34687c7659/Gau-113521.chk"
 -----
 titel
 -----
 Charge =  0 Multiplicity = 1

                         Standard orientation:
 ---------------------------------------------------------------------
 Center     Atomic      Atomic             Coordinates (Angstroms)
 Number     Number       Type             X           Y           Z
 ---------------------------------------------------------------------
      1          8           0       -1.639767   -0.493923    1.404289
      2          6           0       -1.494400    0.178201    0.176806
      3          6           0       -1.306085   -0.783278   -1.071958
      4          6           0        0.177767   -0.598502   -0.844469
      5          6           0        1.330595   -1.211218   -0.601150
      6          6           0        2.152937   -0.389326    0.392633
      7          6           0        1.102248    0.579013    1.031970
      8          6           0       -0.013186    0.650078   -0.023869
      9          8           0       -0.079682    1.863009   -0.767317
     10          1           0       -2.500475   -0.923601    1.412470
     11          1           0       -2.233941    0.978024    0.047342
     12          1           0       -1.708809   -1.795476   -0.980288
     13          1           0       -1.682687   -0.317452   -1.986910
     14          1           0        1.641537   -2.192071   -0.944987
     15          1           0        2.614350   -1.037040    1.145888
     16          1           0        2.981206    0.148938   -0.089465
     17          1           0        0.710909    0.135895    1.951369
     18          1           0        1.502771    1.567579    1.271729
     19          1           0        0.731485    1.932702   -1.282701
 ---------------------------------------------------------------------

 SCF Done:  E(RB3LYP) =  -423.159893902     A.U. after    1 cycles

 The electronic state is 1-A.
 Alpha  occ. eigenvalues --  -19.14103 -19.13286 -10.23354 -10.22132 -10.18857
 Alpha  occ. eigenvalues --  -10.18283 -10.17856 -10.17286 -10.17090  -1.02830
 Alpha  occ. eigenvalues --   -1.01200  -0.84978  -0.77472  -0.70192  -0.64835
 Alpha  occ. eigenvalues --   -0.62282  -0.56557  -0.53953  -0.49679  -0.48120
 Alpha  occ. eigenvalues --   -0.45783  -0.44370  -0.43421  -0.39793  -0.39304
 Alpha  occ. eigenvalues --   -0.36104  -0.35509  -0.34896  -0.34183  -0.32550
 Alpha  occ. eigenvalues --   -0.28985  -0.27312  -0.25067  -0.23042
 Alpha virt. eigenvalues --    0.01162   0.07674   0.08563   0.12117   0.12922
 Alpha virt. eigenvalues --    0.13148   0.15179   0.15903   0.16116   0.17373
 Alpha virt. eigenvalues --    0.18233   0.19438   0.19901   0.22504   0.23084

 Mulliken charges:
               1
     1  O   -0.429909
     2  C    0.075608
     3  C   -0.371750
     4  C    0.237140
     5  C   -0.218010
     6  C   -0.257010
     7  C   -0.307367
     8  C    0.386438
     9  O   -0.497756
    10  H    0.287394
    11  H    0.075844
    12  H    0.103024
    13  H    0.117393
    14  H    0.092684
    15  H    0.107833
    16  H    0.099354
    17  H    0.128619
    18  H    0.095202
    19  H    0.275268
 Sum of Mulliken charges =   0.00000

 Dipole moment (field-independent basis, Debye):
    X=             -0.2150    Y=             -1.1380    Z=             -0.6564  Tot=              1.3312
 Quadrupole moment (field-independent basis, Debye-Ang):
   XX=            -45.6724   YY=            -53.9597   ZZ=            -54.1286
   XY=              3.9933   XZ=             -1.2337   YZ=             -0.8474

  Exact polarizability:  92.648  -3.668  73.543   5.076   1.260  66.947
 Approx polarizability: 133.617 -11.288 111.664   7.708  -2.235 100.142

                      1                      2                      3
                      A                      A                      A
 Frequencies --     90.5409               184.9743               222.1023
 Red. masses --      3.0658                 2.7730                 3.2884
 Frc consts  --      0.0148                 0.0559                 0.0956
 IR Inten    --      0.3616                 3.9877                 6.5262

                      4                      5                      6
                      A                      A                      A
 Frequencies --    229.0714               260.5593               300.0517
 Red. masses --      1.8681                 1.1242                 1.4647
 Frc consts  --      0.0578                 0.0450                 0.0777
 IR Inten    --      5.2208               111.2244                53.7344

                      7                      8                      9
                      A                      A                      A
 Frequencies --    335.5665               408.6107               458.5931
 Red. masses --      2.4032                 2.4925                 4.3645
 Frc consts  --      0.1594                 0.2452                 0.5408
 IR Inten    --     13.2662                12.9422                 1.5721

                     10                     11                     12
                      A                      A                      A
 Frequencies --    511.5145               551.1820               653.9327
 Red. masses --      3.4050                 3.1222                 4.1251
 Frc consts  --      0.5249                 0.5589                 1.0393
 IR Inten    --      6.2290                 3.6425                 4.4102

                     13                     14                     15
                      A                      A                      A
 Frequencies --    726.2832               754.8208               798.9024
 Red. masses --      2.8306                 2.3886                 2.1691
 Frc consts  --      0.8797                 0.8018                 0.8157
 IR Inten    --      0.9148                 1.7722                 9.4963

                     16                     17                     18
                      A                      A                      A
 Frequencies --    841.0323               854.0194               894.0316
 Red. masses --      2.1204                 1.5553                 2.6515
 Frc consts  --      0.8837                 0.6683                 1.2487
 IR Inten    --      1.9178                 3.9693                 1.3867

                     19                     20                     21
                      A                      A                      A
 Frequencies --    928.3307               960.2096               977.2635
 Red. masses --      2.3619                 2.8007                 2.4350
 Frc consts  --      1.1993                 1.5214                 1.3702
 IR Inten    --     29.0228                10.6298                22.1135

                     22                     23                     24
                      A                      A                      A
 Frequencies --   1008.7021              1067.4298              1084.8746
 Red. masses --      2.3764                 1.6834                 2.2918
 Frc consts  --      1.4246                 1.1301                 1.5892
 IR Inten    --      3.6346                50.5052                57.5523

                     25                     26                     27
                      A                      A                      A
 Frequencies --   1096.4334              1142.5393              1175.0566
 Red. masses --      1.9512                 1.2630                 1.9641
 Frc consts  --      1.3820                 0.9714                 1.5978
 IR Inten    --     10.6599                65.3775                30.4487

                     28                     29                     30
                      A                      A                      A
 Frequencies --   1182.4237              1206.2580              1213.2686
 Red. masses --      2.3119                 1.4168                 1.3539
 Frc consts  --      1.9044                 1.2146                 1.1742
 IR Inten    --      7.2959                 5.3454                12.6494

                     31                     32                     33
                      A                      A                      A
 Frequencies --   1239.5337              1276.0502              1294.9607
 Red. masses --      1.7874                 1.2846                 1.3497
 Frc consts  --      1.6181                 1.2324                 1.3335
 IR Inten    --     11.1422                15.7914                33.4644

                     34                     35                     36
                      A                      A                      A
 Frequencies --   1312.1524              1327.8319              1360.4000
 Red. masses --      1.5057                 1.7282                 1.5559
 Frc consts  --      1.5274                 1.7952                 1.6966
 IR Inten    --      1.8819                 9.2209                47.5772

                     37                     38                     39
                      A                      A                      A
 Frequencies --   1409.7403              1453.2362              1472.3571
 Red. masses --      1.5675                 1.1297                 1.0844
 Frc consts  --      1.8354                 1.4057                 1.3850
 IR Inten    --      3.0963                 2.8781                 3.8175

                     40                     41                     42
                      A                      A                      A
 Frequencies --   1494.7058              1734.5251              3006.9907
 Red. masses --      1.0923                 8.4733                 1.0702
 Frc consts  --      1.4378                15.0198                 5.7014
 IR Inten    --      1.3551                 1.9581                52.2590

                     43                     44                     45
                      A                      A                      A
 Frequencies --   3026.5319              3055.7277              3059.4453
 Red. masses --      1.0851                 1.0581                 1.0805
 Frc consts  --      5.8561                 5.8213                 5.9589
 IR Inten    --     51.3004                43.3127                17.8863

                     46                     47                     48
                      A                      A                      A
 Frequencies --   3067.8509              3111.4669              3116.0251
 Red. masses --      1.0701                 1.1080                 1.1054
 Frc consts  --      5.9341                 6.3198                 6.3238
 IR Inten    --     27.9502                16.0000                19.0488

                     49                     50                     51
                      A                      A                      A
 Frequencies --   3185.8400              3800.7718              3824.0239
 Red. masses --      1.0945                 1.0661                 1.0662
 Frc consts  --      6.5449                 9.0736                 9.1863
 IR Inten    --     17.3326                13.8101                27.0855

 - Thermochemistry -
 -------------------
 Temperature   298.150 Kelvin.  Pressure   1.00000 Atm.
 Atom     1 has atomic number  8 and mass  15.99491

 Molecular mass:   126.06808 amu.
 Principal axes and moments of inertia in atomic units:
                           1         2         3
     Eigenvalues --   771.679221142.759721210.23356
           X            0.99909   0.01168   0.04090
           Y           -0.01559   0.99520   0.09659
           Z           -0.03958  -0.09714   0.99448
 This molecule is an asymmetric top.
 Rotational symmetry number  1.
 Warning -- assumption of classical behavior for rotation
           may cause significant error
 Rotational temperatures (Kelvin)      0.11224     0.07579     0.07157
 Rotational constants (GHZ):           2.33872     1.57928     1.49123
 Zero-point vibrational energy     417190.1 (Joules/Mol)
                                   99.71084 (Kcal/Mol)
 Warning -- explicit consideration of  11 degrees of freedom as
           vibrations may cause significant error
 Vibrational temperatures:    130.27   266.14   319.56   329.58   374.89
          (Kelvin)            431.71   482.80   587.90   659.81   735.95
                              793.03   940.86  1044.96  1086.02  1149.44
                             1210.06  1228.74  1286.31  1335.66  1381.53
                             1406.06  1451.30  1535.79  1560.89  1577.52
                             1643.86  1690.64  1701.24  1735.53  1745.62
                             1783.41  1835.95  1863.16  1887.89  1910.45
                             1957.31  2028.30  2090.88  2118.39  2150.55
                             2495.59  4326.38  4354.50  4396.51  4401.85
                             4413.95  4476.70  4483.26  4583.71  5468.46
                             5501.91

 Zero-point correction=                           0.158899 (Hartree/Particle)
 Thermal correction to Energy=                    0.167368
 Thermal correction to Enthalpy=                  0.168312
 Thermal correction to Gibbs Free Energy=         0.126281
 Sum of electronic and zero-point Energies=           -423.000995
 Sum of electronic and thermal Energies=              -422.992526
 Sum of electronic and thermal Enthalpies=            -422.991582
 Sum of electronic and thermal Free Energies=         -423.033613

                     E (Thermal)             CV                S
                      KCal/Mol        Cal/Mol-Kelvin    Cal/Mol-Kelvin
 Total                  105.025             33.194             88.463
 Electronic               0.000              0.000              0.000
 Translational            0.889              2.981             40.409
 Rotational               0.889              2.981             28.458
 Vibrational            103.247             27.233             19.596
 Vibration     1          0.602              1.956              3.648
 Vibration     2          0.631              1.860              2.278
 Vibration     3          0.648              1.807              1.942
 Vibration     4          0.652              1.797              1.886
 Vibration     5          0.669              1.745              1.658
 Vibration     6          0.693              1.674              1.417
 Vibration     7          0.717              1.604              1.233
 Vibration     8          0.773              1.452              0.932
 Vibration     9          0.817              1.342              0.770
 Vibration    10          0.867              1.224              0.630
 Vibration    11          0.906              1.137              0.542

 Normal termination of Gaussian 09 at Tue Jan 28 03:34:40 2020.
