 Gaussian 09, Revision D.01,
 Gaussian 09:  ES64L-G09RevD.01 24-Apr-2013

 -----------------------------
 # b3lyp 6-31G(2df,p) opt Freq
 -----------------------------

 -----
 titel
 -----
 Symbolic Z-matrix:
 Charge =  0 Multiplicity = 1

 SCF Done:  E(RB3LYP) =  -423.145605811     A.U. after   14 cycles
 Optimization completed.
    -- Stationary point found.
 Normal termination of Gaussian 09 at Tue Jan 28 08:20:56 2020.

 ----------------------------------------------------------------------
 #N Geom=AllCheck Guess=TCheck SCRF=Check GenChk RB3LYP/6-31G(2df,p) Fr
 eq
 ----------------------------------------------------------------------

 Structure from the checkpoint file:  "/scratch/puck/g09_5430b20a-9a0f-4045-bd7f-d00eca2230bc/Gau-106670.chk"
 -----
 titel
 -----
 Charge =  0 Multiplicity = 1

                         Standard orientation:
 ---------------------------------------------------------------------
 Center     Atomic      Atomic             Coordinates (Angstroms)
 Number     Number       Type             X           Y           Z
 ---------------------------------------------------------------------
      1          6           0        0.127080    2.298410    0.399047
      2          8           0        1.110253    1.389085   -0.066757
      3          6           0        0.845906    0.027350    0.203319
      4          6           0       -0.237926   -0.584488   -0.746624
      5          6           0       -1.669831   -0.443607   -0.236242
      6          6           0       -2.123716   -1.484421    0.772257
      7          8           0       -2.409554    0.433044   -0.621098
      8          6           0        2.108689   -0.699677    0.061467
      9          6           0        3.125699   -1.327457   -0.055647
     10          1           0       -0.096844    2.134396    1.464820
     11          1           0        0.552261    3.297618    0.280929
     12          1           0       -0.804404    2.229998   -0.172622
     13          1           0        0.506727   -0.079149    1.249351
     14          1           0       -0.145284   -0.085434   -1.713769
     15          1           0       -0.013746   -1.647749   -0.873318
     16          1           0       -3.087157   -1.200002    1.196312
     17          1           0       -2.221563   -2.454768    0.270463
     18          1           0       -1.384488   -1.618680    1.569348
     19          1           0        4.033509   -1.869913   -0.154140
 ---------------------------------------------------------------------

 SCF Done:  E(RB3LYP) =  -423.145605811     A.U. after    1 cycles

 The electronic state is 1-A.
 Alpha  occ. eigenvalues --  -19.14788 -19.13604 -10.27855 -10.27309 -10.22287
 Alpha  occ. eigenvalues --  -10.19866 -10.19618 -10.18794 -10.18247  -1.04758
 Alpha  occ. eigenvalues --   -1.04044  -0.80914  -0.76164  -0.72757  -0.69798
 Alpha  occ. eigenvalues --   -0.63842  -0.54733  -0.53725  -0.50181  -0.49735
 Alpha  occ. eigenvalues --   -0.47343  -0.45671  -0.44972  -0.43651  -0.40914
 Alpha  occ. eigenvalues --   -0.40344  -0.39037  -0.38307  -0.36034  -0.32349
 Alpha  occ. eigenvalues --   -0.28395  -0.27931  -0.25959  -0.24928
 Alpha virt. eigenvalues --   -0.02481   0.03220   0.04796   0.08468   0.11534
 Alpha virt. eigenvalues --    0.11906   0.12458   0.13283   0.14468   0.15509
 Alpha virt. eigenvalues --    0.16301   0.16859   0.19159   0.19826   0.20334

 Mulliken charges:
               1
     1  C   -0.250868
     2  O   -0.239059
     3  C   -0.084884
     4  C   -0.300465
     5  C    0.368680
     6  C   -0.474378
     7  O   -0.295301
     8  C    0.314736
     9  C   -0.409935
    10  H    0.101804
    11  H    0.129602
    12  H    0.148647
    13  H    0.095156
    14  H    0.140921
    15  H    0.123715
    16  H    0.145288
    17  H    0.147747
    18  H    0.138890
    19  H    0.199705
 Sum of Mulliken charges =   0.00000

 Dipole moment (field-independent basis, Debye):
    X=              0.2675    Y=             -2.0316    Z=              1.3115  Tot=              2.4329
 Quadrupole moment (field-independent basis, Debye-Ang):
   XX=            -57.1321   YY=            -49.0796   ZZ=            -53.1573
   XY=              0.0171   XZ=             -2.7028   YZ=              1.8176

  Exact polarizability:  95.574 -12.102  81.362  -2.746  -1.023  59.605
 Approx polarizability: 135.001 -26.722 117.164  -2.030  -3.513  90.325

                      1                      2                      3
                      A                      A                      A
 Frequencies --     19.2569                60.8931                91.0820
 Red. masses --      3.9956                 3.6302                 2.7087
 Frc consts  --      0.0009                 0.0079                 0.0132
 IR Inten    --      3.5802                 1.5468                 4.9682

                      4                      5                      6
                      A                      A                      A
 Frequencies --    128.9513               146.3762               161.7161
 Red. masses --      1.3563                 1.8373                 4.3097
 Frc consts  --      0.0133                 0.0232                 0.0664
 IR Inten    --      0.5213                 0.2084                 1.7217

                      7                      8                      9
                      A                      A                      A
 Frequencies --    227.4825               233.6790               331.1702
 Red. masses --      1.3647                 3.0724                 3.8094
 Frc consts  --      0.0416                 0.0988                 0.2462
 IR Inten    --      2.7668                 2.2011                 3.2863

                     10                     11                     12
                      A                      A                      A
 Frequencies --    370.4335               421.5144               461.6900
 Red. masses --      2.2969                 2.8861                 4.9630
 Frc consts  --      0.1857                 0.3021                 0.6233
 IR Inten    --      1.8165                 3.4318                 5.7274

                     13                     14                     15
                      A                      A                      A
 Frequencies --    537.1296               564.3656               581.9830
 Red. masses --      5.6889                 3.5731                 2.5449
 Frc consts  --      0.9670                 0.6705                 0.5079
 IR Inten    --      4.3775                15.8788                 2.9469

                     16                     17                     18
                      A                      A                      A
 Frequencies --    629.2965               669.5048               801.5587
 Red. masses --      1.2187                 1.2499                 3.2288
 Frc consts  --      0.2844                 0.3301                 1.2222
 IR Inten    --     43.1788                33.2617                 2.9941

                     19                     20                     21
                      A                      A                      A
 Frequencies --    838.4069               923.8405               955.6057
 Red. masses --      2.2838                 2.6118                 2.6927
 Frc consts  --      0.9458                 1.3134                 1.4487
 IR Inten    --      5.4565                 3.8434                 9.9404

                     22                     23                     24
                      A                      A                      A
 Frequencies --   1009.3764              1053.5261              1064.7529
 Red. masses --      2.9141                 2.1255                 2.6195
 Frc consts  --      1.7493                 1.3900                 1.7497
 IR Inten    --     53.6745                 4.6171                 7.7217

                     25                     26                     27
                      A                      A                      A
 Frequencies --   1135.9485              1178.9050              1187.3894
 Red. masses --      4.4053                 1.3661                 1.5005
 Frc consts  --      3.3492                 1.1186                 1.2464
 IR Inten    --    130.3770                12.5838                30.4146

                     28                     29                     30
                      A                      A                      A
 Frequencies --   1218.1750              1242.1159              1276.7625
 Red. masses --      1.6195                 1.5120                 1.4413
 Frc consts  --      1.4160                 1.3744                 1.3843
 IR Inten    --     45.5772                34.2977                19.0948

                     31                     32                     33
                      A                      A                      A
 Frequencies --   1344.6051              1369.6595              1384.3391
 Red. masses --      1.2361                 1.4075                 1.3056
 Frc consts  --      1.3167                 1.5557                 1.4742
 IR Inten    --     19.8729                71.7342                36.8581

                     34                     35                     36
                      A                      A                      A
 Frequencies --   1457.0816              1465.7624              1477.0704
 Red. masses --      1.0720                 1.0750                 1.1036
 Frc consts  --      1.3410                 1.3608                 1.4187
 IR Inten    --      7.9418                 5.1878                 7.8712

                     37                     38                     39
                      A                      A                      A
 Frequencies --   1477.7043              1495.2352              1516.7903
 Red. masses --      1.0632                 1.0850                 1.0526
 Frc consts  --      1.3679                 1.4292                 1.4268
 IR Inten    --      5.5742                 4.4936                12.1197

                     40                     41                     42
                      A                      A                      A
 Frequencies --   1809.0428              2244.2710              2937.0497
 Red. masses --     10.3632                 5.8944                 1.0800
 Frc consts  --     19.9822                17.4920                 5.4889
 IR Inten    --    156.1103                 1.7510                28.8581

                     43                     44                     45
                      A                      A                      A
 Frequencies --   2984.1723              3034.7121              3061.9885
 Red. masses --      1.0465                 1.0379                 1.0593
 Frc consts  --      5.4907                 5.6320                 5.8514
 IR Inten    --     51.9225                 1.7503                 5.5717

                     46                     47                     48
                      A                      A                      A
 Frequencies --   3076.5540              3094.1159              3124.7949
 Red. masses --      1.0870                 1.0971                 1.1030
 Frc consts  --      6.0617                 6.1882                 6.3454
 IR Inten    --     28.3475                 8.3118                19.5917

                     49                     50                     51
                      A                      A                      A
 Frequencies --   3127.5265              3154.5646              3503.8110
 Red. masses --      1.1042                 1.1019                 1.1636
 Frc consts  --      6.3636                 6.4606                 8.4165
 IR Inten    --      4.8919                 9.8784                66.2344

 - Thermochemistry -
 -------------------
 Temperature   298.150 Kelvin.  Pressure   1.00000 Atm.
 Atom     1 has atomic number  6 and mass  12.00000

 Molecular mass:   126.06808 amu.
 Principal axes and moments of inertia in atomic units:
                           1         2         3
     Eigenvalues --   817.003531603.940112173.34581
           X            0.99973   0.01679  -0.01590
           Y           -0.01672   0.99985   0.00442
           Z            0.01597  -0.00415   0.99986
 This molecule is an asymmetric top.
 Rotational symmetry number  1.
 Warning -- assumption of classical behavior for rotation
           may cause significant error
 Rotational temperatures (Kelvin)      0.10601     0.05400     0.03985
 Rotational constants (GHZ):           2.20898     1.12519     0.83040
 Zero-point vibrational energy     404719.0 (Joules/Mol)
                                   96.73017 (Kcal/Mol)
 Warning -- explicit consideration of  15 degrees of freedom as
           vibrations may cause significant error
 Vibrational temperatures:     27.71    87.61   131.05   185.53   210.60
          (Kelvin)            232.67   327.30   336.21   476.48   532.97
                              606.46   664.27   772.81   812.00   837.34
                              905.42   963.27  1153.26  1206.28  1329.20
                             1374.90  1452.27  1515.79  1531.94  1634.37
                             1696.18  1708.39  1752.68  1787.13  1836.97
                             1934.58  1970.63  1991.75  2096.41  2108.90
                             2125.17  2126.08  2151.31  2182.32  2602.81
                             3229.00  4225.75  4293.55  4366.27  4405.51
                             4426.47  4451.74  4495.88  4499.81  4538.71
                             5041.20

 Zero-point correction=                           0.154149 (Hartree/Particle)
 Thermal correction to Energy=                    0.165005
 Thermal correction to Enthalpy=                  0.165949
 Thermal correction to Gibbs Free Energy=         0.116479
 Sum of electronic and zero-point Energies=           -422.991456
 Sum of electronic and thermal Energies=              -422.980601
 Sum of electronic and thermal Enthalpies=            -422.979657
 Sum of electronic and thermal Free Energies=         -423.029127

                     E (Thermal)             CV                S
                      KCal/Mol        Cal/Mol-Kelvin    Cal/Mol-Kelvin
 Total                  103.542             37.513            104.119
 Electronic               0.000              0.000              0.000
 Translational            0.889              2.981             40.409
 Rotational               0.889              2.981             29.434
 Vibrational            101.765             31.551             34.277
 Vibration     1          0.593              1.986              6.709
 Vibration     2          0.597              1.973              4.428
 Vibration     3          0.602              1.956              3.637
 Vibration     4          0.611              1.924              2.962
 Vibration     5          0.617              1.907              2.719
 Vibration     6          0.622              1.889              2.530
 Vibration     7          0.651              1.799              1.899
 Vibration     8          0.654              1.789              1.851
 Vibration     9          0.714              1.613              1.254
 Vibration    10          0.742              1.533              1.078
 Vibration    11          0.784              1.423              0.887
 Vibration    12          0.819              1.335              0.761
 Vibration    13          0.892              1.168              0.571
 Vibration    14          0.920              1.108              0.515
 Vibration    15          0.939              1.070              0.482

 Optimization completed.
    -- Stationary point found.
 Normal termination of Gaussian 09 at Tue Jan 28 09:03:46 2020.
