 Gaussian 09, Revision D.01,
 Gaussian 09:  ES64L-G09RevD.01 24-Apr-2013

 -----------------------------
 # b3lyp 6-31G(2df,p) opt Freq
 -----------------------------

 -----
 titel
 -----
 Symbolic Z-matrix:
 Charge =  0 Multiplicity = 1

 SCF Done:  E(RB3LYP) =  -423.162967375     A.U. after   14 cycles
 Optimization completed.
    -- Stationary point found.
 Normal termination of Gaussian 09 at Tue Jan 28 13:30:02 2020.

 ----------------------------------------------------------------------
 #N Geom=AllCheck Guess=TCheck SCRF=Check GenChk RB3LYP/6-31G(2df,p) Fr
 eq
 ----------------------------------------------------------------------

 Structure from the checkpoint file:  "/scratch/puck/g09_f55d448f-4bd6-4d60-9717-0ff594560279/Gau-118583.chk"
 -----
 titel
 -----
 Charge =  0 Multiplicity = 1

                         Standard orientation:
 ---------------------------------------------------------------------
 Center     Atomic      Atomic             Coordinates (Angstroms)
 Number     Number       Type             X           Y           Z
 ---------------------------------------------------------------------
      1          6           0       -3.195720   -0.448914    0.035199
      2          8           0       -2.057465    0.318437    0.369379
      3          6           0       -0.936182    0.017147   -0.397610
      4          6           0       -0.054582   -1.233598   -0.027797
      5          6           0        1.176703   -0.314649    0.015796
      6          6           0        2.524854   -0.477291   -0.658827
      7          6           0        2.444418   -0.403820    0.832131
      8          6           0        0.307782    0.902085   -0.115410
      9          8           0        0.489998    2.080762   -0.005249
     10          1           0       -3.038222   -1.521792    0.219872
     11          1           0       -4.015861   -0.099047    0.666089
     12          1           0       -3.473882   -0.315517   -1.021552
     13          1           0       -1.169508    0.030828   -1.476323
     14          1           0       -0.326953   -1.632486    0.953029
     15          1           0       -0.037584   -2.041039   -0.762517
     16          1           0        2.726624   -1.439015   -1.118962
     17          1           0        2.909190    0.381343   -1.199230
     18          1           0        2.597343   -1.312643    1.404252
     19          1           0        2.764959    0.510023    1.321419
 ---------------------------------------------------------------------

 SCF Done:  E(RB3LYP) =  -423.162967375     A.U. after    1 cycles

 The electronic state is 1-A.
 Alpha  occ. eigenvalues --  -19.15028 -19.13265 -10.26156 -10.23982 -10.23037
 Alpha  occ. eigenvalues --  -10.20518 -10.20348 -10.20092 -10.19305  -1.04967
 Alpha  occ. eigenvalues --   -1.03536  -0.88167  -0.80525  -0.70065  -0.63344
 Alpha  occ. eigenvalues --   -0.61451  -0.60535  -0.52212  -0.50404  -0.49840
 Alpha  occ. eigenvalues --   -0.46526  -0.45655  -0.45122  -0.42181  -0.40034
 Alpha  occ. eigenvalues --   -0.39157  -0.38046  -0.37088  -0.35926  -0.32588
 Alpha  occ. eigenvalues --   -0.31592  -0.28989  -0.25914  -0.23742
 Alpha virt. eigenvalues --   -0.02542   0.08811   0.09963   0.10438   0.11710
 Alpha virt. eigenvalues --    0.12780   0.13771   0.14677   0.15441   0.16008
 Alpha virt. eigenvalues --    0.18081   0.18448   0.18900   0.20705   0.22275

 Mulliken charges:
               1
     1  C   -0.236991
     2  O   -0.237348
     3  C    0.038243
     4  C   -0.380364
     5  C    0.235461
     6  C   -0.305738
     7  C   -0.307918
     8  C    0.316178
     9  O   -0.308592
    10  H    0.110161
    11  H    0.133954
    12  H    0.109078
    13  H    0.089806
    14  H    0.117234
    15  H    0.105526
    16  H    0.123346
    17  H    0.134965
    18  H    0.124188
    19  H    0.138812
 Sum of Mulliken charges =   0.00000

 Dipole moment (field-independent basis, Debye):
    X=             -0.0560    Y=             -3.5605    Z=             -0.8661  Tot=              3.6648
 Quadrupole moment (field-independent basis, Debye-Ang):
   XX=            -47.5044   YY=            -58.6768   ZZ=            -51.6023
   XY=              0.5080   XZ=              1.1635   YZ=             -0.5722

  Exact polarizability:  97.576  -0.811  74.499   1.101   0.004  64.338
 Approx polarizability: 118.653  -2.366 118.513   0.592   1.881  98.579

                      1                      2                      3
                      A                      A                      A
 Frequencies --     50.2825                85.0947               155.7432
 Red. masses --      3.2184                 2.7976                 3.0559
 Frc consts  --      0.0048                 0.0119                 0.0437
 IR Inten    --      0.3519                 2.2232                 0.3111

                      4                      5                      6
                      A                      A                      A
 Frequencies --    180.9703               205.2203               213.8301
 Red. masses --      1.8277                 2.2802                 2.5370
 Frc consts  --      0.0353                 0.0566                 0.0683
 IR Inten    --      0.8105                 1.8542                 1.5341

                      7                      8                      9
                      A                      A                      A
 Frequencies --    291.0990               332.6011               385.8230
 Red. masses --      2.5422                 3.7605                 3.1257
 Frc consts  --      0.1269                 0.2451                 0.2741
 IR Inten    --      1.1938                 0.9998                 7.3836

                     10                     11                     12
                      A                      A                      A
 Frequencies --    493.4426               574.3276               702.4129
 Red. masses --      3.0193                 3.2049                 2.9196
 Frc consts  --      0.4331                 0.6229                 0.8487
 IR Inten    --      5.1256                 4.0378                 1.2326

                     13                     14                     15
                      A                      A                      A
 Frequencies --    753.1349               787.1359               809.8192
 Red. masses --      3.5631                 1.3150                 1.9828
 Frc consts  --      1.1908                 0.4800                 0.7661
 IR Inten    --      2.0398                 0.2016                 0.7706

                     16                     17                     18
                      A                      A                      A
 Frequencies --    830.4336               905.9052               926.6675
 Red. masses --      3.5105                 1.7677                 2.0334
 Frc consts  --      1.4264                 0.8547                 1.0288
 IR Inten    --      1.2598                 6.5915                31.7306

                     19                     20                     21
                      A                      A                      A
 Frequencies --    971.3856              1028.7412              1042.5020
 Red. masses --      2.2919                 3.4577                 2.4123
 Frc consts  --      1.2742                 2.1560                 1.5446
 IR Inten    --      1.7083                42.4085                54.5710

                     22                     23                     24
                      A                      A                      A
 Frequencies --   1059.6150              1063.2633              1083.9652
 Red. masses --      2.2329                 1.7863                 1.5134
 Frc consts  --      1.4771                 1.1898                 1.0477
 IR Inten    --     16.6675                69.9536                 7.7744

                     25                     26                     27
                      A                      A                      A
 Frequencies --   1129.8760              1170.2121              1182.5474
 Red. masses --      1.3499                 2.0627                 1.3042
 Frc consts  --      1.0153                 1.6642                 1.0745
 IR Inten    --     17.3395                56.1872                 4.6797

                     28                     29                     30
                      A                      A                      A
 Frequencies --   1186.2874              1198.0561              1229.5000
 Red. masses --      1.3037                 1.3033                 2.3124
 Frc consts  --      1.0809                 1.1021                 2.0596
 IR Inten    --      8.2870                 0.3568                89.6798

                     31                     32                     33
                      A                      A                      A
 Frequencies --   1247.6619              1262.1227              1364.4912
 Red. masses --      1.4757                 2.2234                 2.4656
 Frc consts  --      1.3535                 2.0867                 2.7046
 IR Inten    --      0.8676                 6.8471                14.4446

                     34                     35                     36
                      A                      A                      A
 Frequencies --   1372.7738              1457.7096              1478.7391
 Red. masses --      1.6245                 1.0883                 1.1243
 Frc consts  --      1.8037                 1.3625                 1.4485
 IR Inten    --     59.1073                 2.0773                 1.8570

                     37                     38                     39
                      A                      A                      A
 Frequencies --   1482.4365              1488.5929              1490.7663
 Red. masses --      1.1020                 1.1748                 1.2818
 Frc consts  --      1.4269                 1.5337                 1.6784
 IR Inten    --      5.4486                 7.0847                 4.8453

                     40                     41                     42
                      A                      A                      A
 Frequencies --   1506.4217              1885.5656              2957.4451
 Red. masses --      1.0620                12.7483                 1.0800
 Frc consts  --      1.4199                26.7047                 5.5655
 IR Inten    --      6.4094               235.6745                32.9977

                     43                     44                     45
                      A                      A                      A
 Frequencies --   2980.0706              3029.5828              3063.1882
 Red. masses --      1.0375                 1.1031                 1.0581
 Frc consts  --      5.4285                 5.9653                 5.8494
 IR Inten    --     58.8439                47.1764                22.4653

                     46                     47                     48
                      A                      A                      A
 Frequencies --   3120.6299              3121.0313              3129.7732
 Red. masses --      1.0993                 1.1061                 1.0502
 Frc consts  --      6.3074                 6.3481                 6.0613
 IR Inten    --     13.2199                31.8482                12.8256

                     49                     50                     51
                      A                      A                      A
 Frequencies --   3132.4538              3213.5775              3228.5994
 Red. masses --      1.0566                 1.1187                 1.1167
 Frc consts  --      6.1084                 6.8070                 6.8582
 IR Inten    --      8.9951                 0.1466                 6.5166

 - Thermochemistry -
 -------------------
 Temperature   298.150 Kelvin.  Pressure   1.00000 Atm.
 Atom     1 has atomic number  6 and mass  12.00000

 Molecular mass:   126.06808 amu.
 Principal axes and moments of inertia in atomic units:
                           1         2         3
     Eigenvalues --   534.895071677.767822002.20718
           X            0.99996   0.00603   0.00583
           Y           -0.00602   0.99998  -0.00075
           Z           -0.00583   0.00071   0.99998
 This molecule is an asymmetric top.
 Rotational symmetry number  1.
 Warning -- assumption of classical behavior for rotation
           may cause significant error
 Rotational temperatures (Kelvin)      0.16193     0.05162     0.04326
 Rotational constants (GHZ):           3.37401     1.07568     0.90138
 Zero-point vibrational energy     412972.0 (Joules/Mol)
                                   98.70268 (Kcal/Mol)
 Warning -- explicit consideration of  11 degrees of freedom as
           vibrations may cause significant error
 Vibrational temperatures:     72.35   122.43   224.08   260.38   295.27
          (Kelvin)            307.65   418.83   478.54   555.11   709.95
                              826.33  1010.61  1083.59  1132.51  1165.15
                             1194.81  1303.39  1333.27  1397.61  1480.13
                             1499.93  1524.55  1529.80  1559.58  1625.64
                             1683.67  1701.42  1706.80  1723.73  1768.97
                             1795.10  1815.91  1963.20  1975.11  2097.32
                             2127.57  2132.89  2141.75  2144.88  2167.40
                             2712.90  4255.10  4287.65  4358.89  4407.24
                             4489.88  4490.46  4503.04  4506.90  4623.62
                             4645.23

 Zero-point correction=                           0.157293 (Hartree/Particle)
 Thermal correction to Energy=                    0.166488
 Thermal correction to Enthalpy=                  0.167432
 Thermal correction to Gibbs Free Energy=         0.122662
 Sum of electronic and zero-point Energies=           -423.005675
 Sum of electronic and thermal Energies=              -422.996479
 Sum of electronic and thermal Enthalpies=            -422.995535
 Sum of electronic and thermal Free Energies=         -423.040305

                     E (Thermal)             CV                S
                      KCal/Mol        Cal/Mol-Kelvin    Cal/Mol-Kelvin
 Total                  104.473             33.277             94.227
 Electronic               0.000              0.000              0.000
 Translational            0.889              2.981             40.409
 Rotational               0.889              2.981             28.976
 Vibrational            102.695             27.315             24.842
 Vibration     1          0.595              1.977              4.806
 Vibration     2          0.601              1.960              3.770
 Vibration     3          0.620              1.896              2.601
 Vibration     4          0.630              1.866              2.318
 Vibration     5          0.640              1.832              2.086
 Vibration     6          0.644              1.820              2.011
 Vibration     7          0.687              1.690              1.468
 Vibration     8          0.715              1.610              1.247
 Vibration     9          0.755              1.500              1.016
 Vibration    10          0.849              1.265              0.675
 Vibration    11          0.931              1.087              0.496

 Optimization completed.
    -- Stationary point found.
 Normal termination of Gaussian 09 at Tue Jan 28 14:09:27 2020.
