 Gaussian 09, Revision D.01,
 Gaussian 09:  ES64L-G09RevD.01 24-Apr-2013

 -----------------------------
 # b3lyp 6-31G(2df,p) opt Freq
 -----------------------------

 -----
 titel
 -----
 Symbolic Z-matrix:
 Charge =  0 Multiplicity = 1

 SCF Done:  E(RB3LYP) =  -423.189603725     A.U. after   14 cycles
 Optimization completed.
    -- Stationary point found.
 Normal termination of Gaussian 09 at Tue Jan 28 03:03:22 2020.

 ----------------------------------------------------------------------
 #N Geom=AllCheck Guess=TCheck SCRF=Check GenChk RB3LYP/6-31G(2df,p) Fr
 eq
 ----------------------------------------------------------------------

 Structure from the checkpoint file:  "/scratch/puck/g09_7c17b22d-a9b2-4e6c-ab0e-f10134b5b2ba/Gau-114334.chk"
 -----
 titel
 -----
 Charge =  0 Multiplicity = 1

                         Standard orientation:
 ---------------------------------------------------------------------
 Center     Atomic      Atomic             Coordinates (Angstroms)
 Number     Number       Type             X           Y           Z
 ---------------------------------------------------------------------
      1          6           0        2.440802    0.100900   -0.225125
      2          6           0        1.013055   -0.203618   -0.673438
      3          6           0        0.512885   -1.631551   -0.248363
      4          6           0       -0.695367   -1.212261    0.604134
      5          8           0       -0.172540   -0.068954    1.357235
      6          6           0       -0.067365    0.638021    0.061464
      7          6           0        0.016466    2.132816    0.137863
      8          6           0       -1.367472   -0.134535   -0.268966
      9          8           0       -2.431529    0.097352   -0.751929
     10          1           0        3.139772   -0.626585   -0.650731
     11          1           0        2.763795    1.096959   -0.544426
     12          1           0        2.518590    0.045520    0.865053
     13          1           0        0.923843   -0.060421   -1.756135
     14          1           0        0.236714   -2.268133   -1.093422
     15          1           0        1.255580   -2.157506    0.357474
     16          1           0       -1.231692   -1.943077    1.205694
     17          1           0        0.004810    2.554325   -0.872222
     18          1           0       -0.835029    2.539173    0.689240
     19          1           0        0.938149    2.453932    0.631618
 ---------------------------------------------------------------------

 SCF Done:  E(RB3LYP) =  -423.189603725     A.U. after    1 cycles

 The electronic state is 1-A.
 Alpha  occ. eigenvalues --  -19.15642 -19.14617 -10.27363 -10.24781 -10.24529
 Alpha  occ. eigenvalues --  -10.20353 -10.19639 -10.18938 -10.18247  -1.07417
 Alpha  occ. eigenvalues --   -1.04384  -0.81529  -0.76891  -0.72984  -0.66951
 Alpha  occ. eigenvalues --   -0.64977  -0.57006  -0.52000  -0.50160  -0.47465
 Alpha  occ. eigenvalues --   -0.46418  -0.45675  -0.42588  -0.41247  -0.40168
 Alpha  occ. eigenvalues --   -0.39561  -0.38036  -0.37897  -0.35836  -0.34980
 Alpha  occ. eigenvalues --   -0.34136  -0.33069  -0.27065  -0.24308
 Alpha virt. eigenvalues --   -0.00982   0.07587   0.08950   0.11597   0.12100
 Alpha virt. eigenvalues --    0.13578   0.14302   0.15134   0.15440   0.15872
 Alpha virt. eigenvalues --    0.16516   0.17499   0.18085   0.19336   0.21674

 Mulliken charges:
               1
     1  C   -0.419285
     2  C   -0.010321
     3  C   -0.253865
     4  C   -0.041189
     5  O   -0.329388
     6  C    0.277559
     7  C   -0.507907
     8  C    0.412741
     9  O   -0.321135
    10  H    0.118084
    11  H    0.116905
    12  H    0.132750
    13  H    0.083329
    14  H    0.113407
    15  H    0.114362
    16  H    0.101236
    17  H    0.135401
    18  H    0.141633
    19  H    0.135684
 Sum of Mulliken charges =   0.00000

 Dipole moment (field-independent basis, Debye):
    X=              2.4145    Y=             -0.5090    Z=             -0.4690  Tot=              2.5118
 Quadrupole moment (field-independent basis, Debye-Ang):
   XX=            -59.5288   YY=            -48.5999   ZZ=            -55.3719
   XY=              1.2509   XZ=             -3.3033   YZ=             -0.4711

  Exact polarizability:  81.782   0.726  79.384   0.844  -1.891  63.793
 Approx polarizability: 117.005   0.008 109.755   7.857  -3.102 108.503

                      1                      2                      3
                      A                      A                      A
 Frequencies --    116.6507               148.7177               176.9576
 Red. masses --      4.1546                 1.1963                 2.5369
 Frc consts  --      0.0333                 0.0156                 0.0468
 IR Inten    --      1.9223                 1.1518                 2.9913

                      4                      5                      6
                      A                      A                      A
 Frequencies --    219.6215               257.6967               264.5219
 Red. masses --      2.3381                 1.2818                 2.5763
 Frc consts  --      0.0664                 0.0502                 0.1062
 IR Inten    --      1.0234                 1.4673                 0.8994

                      7                      8                      9
                      A                      A                      A
 Frequencies --    323.8177               411.4681               478.5887
 Red. masses --      2.4591                 2.1624                 4.1133
 Frc consts  --      0.1519                 0.2157                 0.5551
 IR Inten    --      2.6070                 0.5818                 7.1656

                     10                     11                     12
                      A                      A                      A
 Frequencies --    516.4250               616.3142               690.0398
 Red. masses --      4.4864                 3.7794                 3.4104
 Frc consts  --      0.7050                 0.8458                 0.9568
 IR Inten    --      4.3523                 1.2350                 0.1874

                     13                     14                     15
                      A                      A                      A
 Frequencies --    703.9085               763.2755               817.0602
 Red. masses --      4.0909                 4.7439                 3.1456
 Frc consts  --      1.1943                 1.6283                 1.2373
 IR Inten    --      2.0773                 6.0290                24.6811

                     16                     17                     18
                      A                      A                      A
 Frequencies --    839.3595               884.2177               902.7889
 Red. masses --      2.8531                 2.3949                 4.6543
 Frc consts  --      1.1843                 1.1032                 2.2350
 IR Inten    --     21.0694                 8.4121                28.0681

                     19                     20                     21
                      A                      A                      A
 Frequencies --    932.0764               942.2903              1022.3154
 Red. masses --      1.5056                 2.2740                 1.9371
 Frc consts  --      0.7707                 1.1896                 1.1928
 IR Inten    --     10.3699                12.4450                 9.8165

                     22                     23                     24
                      A                      A                      A
 Frequencies --   1031.1315              1064.9943              1081.8543
 Red. masses --      1.8209                 1.7477                 1.7467
 Frc consts  --      1.1407                 1.1679                 1.2045
 IR Inten    --      2.3075                 5.8950                 1.7775

                     25                     26                     27
                      A                      A                      A
 Frequencies --   1124.1556              1165.3475              1192.9083
 Red. masses --      2.2091                 1.7612                 2.0748
 Frc consts  --      1.6448                 1.4092                 1.7396
 IR Inten    --     13.5572                 4.0636                 4.2341

                     28                     29                     30
                      A                      A                      A
 Frequencies --   1213.4734              1257.0859              1277.2830
 Red. masses --      1.5923                 1.4363                 1.5946
 Frc consts  --      1.3814                 1.3373                 1.5327
 IR Inten    --      3.4611                 0.7428                 4.3998

                     31                     32                     33
                      A                      A                      A
 Frequencies --   1302.9562              1340.9214              1366.3257
 Red. masses --      1.4637                 2.6674                 1.4777
 Frc consts  --      1.4641                 2.8259                 1.6253
 IR Inten    --      1.4836                 2.4695                 3.2529

                     34                     35                     36
                      A                      A                      A
 Frequencies --   1406.1845              1413.8013              1476.0801
 Red. masses --      1.2669                 1.4832                 1.0513
 Frc consts  --      1.4760                 1.7467                 1.3496
 IR Inten    --      5.1351                 9.2142                 3.4815

                     37                     38                     39
                      A                      A                      A
 Frequencies --   1485.4823              1488.5192              1501.3907
 Red. masses --      1.0962                 1.0484                 1.0453
 Frc consts  --      1.4252                 1.3686                 1.3882
 IR Inten    --      3.3535                 8.6202                 1.0739

                     40                     41                     42
                      A                      A                      A
 Frequencies --   1505.5982              1917.2172              3034.0529
 Red. masses --      1.0526                12.5615                 1.0353
 Frc consts  --      1.4058                27.2042                 5.6151
 IR Inten    --      2.5499               314.0553                19.8961

                     43                     44                     45
                      A                      A                      A
 Frequencies --   3043.1619              3046.4015              3061.0096
 Red. masses --      1.0760                 1.0421                 1.0597
 Frc consts  --      5.8710                 5.6980                 5.8503
 IR Inten    --     11.5330                17.3249                20.2876

                     46                     47                     48
                      A                      A                      A
 Frequencies --   3099.7308              3109.2785              3114.4119
 Red. masses --      1.1014                 1.1060                 1.1026
 Frc consts  --      6.2349                 6.3000                 6.3009
 IR Inten    --     24.5383                 8.0884                28.2155

                     49                     50                     51
                      A                      A                      A
 Frequencies --   3115.9824              3126.3948              3153.6766
 Red. masses --      1.1004                 1.1019                 1.0918
 Frc consts  --      6.2951                 6.3459                 6.3978
 IR Inten    --      9.2001                10.8321                23.3041

 - Thermochemistry -
 -------------------
 Temperature   298.150 Kelvin.  Pressure   1.00000 Atm.
 Atom     1 has atomic number  6 and mass  12.00000

 Molecular mass:   126.06808 amu.
 Principal axes and moments of inertia in atomic units:
                           1         2         3
     Eigenvalues --   729.449171067.985331370.78240
           X            0.99969   0.00635  -0.02405
           Y           -0.00625   0.99997   0.00426
           Z            0.02408  -0.00411   0.99970
 This molecule is an asymmetric top.
 Rotational symmetry number  1.
 Warning -- assumption of classical behavior for rotation
           may cause significant error
 Rotational temperatures (Kelvin)      0.11874     0.08110     0.06319
 Rotational constants (GHZ):           2.47412     1.68986     1.31658
 Zero-point vibrational energy     415971.0 (Joules/Mol)
                                   99.41946 (Kcal/Mol)
 Warning -- explicit consideration of  11 degrees of freedom as
           vibrations may cause significant error
 Vibrational temperatures:    167.83   213.97   254.60   315.99   370.77
          (Kelvin)            380.59   465.90   592.01   688.58   743.02
                              886.74   992.81  1012.77  1098.18  1175.57
                             1207.65  1272.19  1298.91  1341.05  1355.74
                             1470.88  1483.57  1532.29  1556.55  1617.41
                             1676.67  1716.33  1745.92  1808.66  1837.72
                             1874.66  1929.28  1965.84  2023.18  2034.14
                             2123.75  2137.28  2141.64  2160.16  2166.22
                             2758.44  4365.32  4378.43  4383.09  4404.10
                             4459.82  4473.55  4480.94  4483.20  4498.18
                             4537.43

 Zero-point correction=                           0.158435 (Hartree/Particle)
 Thermal correction to Energy=                    0.166936
 Thermal correction to Enthalpy=                  0.167880
 Thermal correction to Gibbs Free Energy=         0.125692
 Sum of electronic and zero-point Energies=           -423.031169
 Sum of electronic and thermal Energies=              -423.022668
 Sum of electronic and thermal Enthalpies=            -423.021724
 Sum of electronic and thermal Free Energies=         -423.063911

                     E (Thermal)             CV                S
                      KCal/Mol        Cal/Mol-Kelvin    Cal/Mol-Kelvin
 Total                  104.754             32.600             88.791
 Electronic               0.000              0.000              0.000
 Translational            0.889              2.981             40.409
 Rotational               0.889              2.981             28.459
 Vibrational            102.976             26.638             19.924
 Vibration     1          0.608              1.936              3.155
 Vibration     2          0.618              1.904              2.689
 Vibration     3          0.628              1.871              2.360
 Vibration     4          0.647              1.811              1.962
 Vibration     5          0.667              1.750              1.677
 Vibration     6          0.671              1.738              1.632
 Vibration     7          0.708              1.628              1.291
 Vibration     8          0.775              1.445              0.921
 Vibration     9          0.835              1.298              0.714
 Vibration    10          0.871              1.214              0.618
 Vibration    11          0.976              0.997              0.422

 Normal termination of Gaussian 09 at Tue Jan 28 03:49:23 2020.
