 Gaussian 09, Revision D.01,
 Gaussian 09:  ES64L-G09RevD.01 24-Apr-2013

 -----------------------------
 # b3lyp 6-31G(2df,p) opt Freq
 -----------------------------

 -----
 titel
 -----
 Symbolic Z-matrix:
 Charge =  0 Multiplicity = 1

 SCF Done:  E(RB3LYP) =  -423.179392498     A.U. after   13 cycles
 Optimization completed.
    -- Stationary point found.
 Normal termination of Gaussian 09 at Mon Jan 27 23:51:35 2020.

 ----------------------------------------------------------------------
 #N Geom=AllCheck Guess=TCheck SCRF=Check GenChk RB3LYP/6-31G(2df,p) Fr
 eq
 ----------------------------------------------------------------------

 Structure from the checkpoint file:  "/scratch/puck/g09_3127c13c-1634-418e-abf0-790eb82d8eac/Gau-194062.chk"
 -----
 titel
 -----
 Charge =  0 Multiplicity = 1

                         Standard orientation:
 ---------------------------------------------------------------------
 Center     Atomic      Atomic             Coordinates (Angstroms)
 Number     Number       Type             X           Y           Z
 ---------------------------------------------------------------------
      1          6           0       -2.528960   -0.073383   -0.125806
      2          6           0       -1.188117    0.555879    0.234461
      3          6           0       -0.217481   -0.340816    1.035477
      4          8           0       -0.118483   -1.452040    0.130419
      5          6           0        0.567706   -0.740002   -0.914929
      6          6           0        1.901171   -0.507885   -0.183555
      7          6           0        1.191254    0.419320    0.818365
      8          8           0        0.849745    1.482254   -0.089100
      9          6           0       -0.103943    0.727842   -0.855813
     10          1           0       -3.073952    0.565615   -0.828886
     11          1           0       -2.405026   -1.059381   -0.575702
     12          1           0       -3.155123   -0.185135    0.766357
     13          1           0       -1.335581    1.535721    0.695105
     14          1           0       -0.476537   -0.673049    2.039009
     15          1           0        0.536538   -1.288964   -1.853287
     16          1           0        2.285646   -1.452283    0.203138
     17          1           0        2.670398    0.044780   -0.723933
     18          1           0        1.716570    0.799009    1.691812
     19          1           0       -0.342809    1.226234   -1.793363
 ---------------------------------------------------------------------

 SCF Done:  E(RB3LYP) =  -423.179392498     A.U. after    1 cycles

 The electronic state is 1-A.
 Alpha  occ. eigenvalues --  -19.13912 -19.13758 -10.23625 -10.23592 -10.23399
 Alpha  occ. eigenvalues --  -10.23386 -10.18585 -10.18070 -10.17142  -1.07346
 Alpha  occ. eigenvalues --   -1.01968  -0.78615  -0.75910  -0.72757  -0.68251
 Alpha  occ. eigenvalues --   -0.59135  -0.56875  -0.55232  -0.53708  -0.50656
 Alpha  occ. eigenvalues --   -0.45844  -0.42428  -0.41908  -0.39876  -0.39228
 Alpha  occ. eigenvalues --   -0.38865  -0.36857  -0.35676  -0.34019  -0.33330
 Alpha  occ. eigenvalues --   -0.32149  -0.30281  -0.27847  -0.23286
 Alpha virt. eigenvalues --    0.08867   0.10153   0.11497   0.13391   0.14263
 Alpha virt. eigenvalues --    0.15105   0.15538   0.15774   0.16312   0.16535
 Alpha virt. eigenvalues --    0.16977   0.17649   0.19561   0.20084   0.20915

 Mulliken charges:
               1
     1  C   -0.429372
     2  C    0.061304
     3  C    0.021439
     4  O   -0.264606
     5  C    0.038211
     6  C   -0.197226
     7  C    0.038042
     8  O   -0.266693
     9  C    0.020936
    10  H    0.111065
    11  H    0.134378
    12  H    0.114385
    13  H    0.081719
    14  H    0.078668
    15  H    0.083389
    16  H    0.105852
    17  H    0.106389
    18  H    0.082751
    19  H    0.079369
 Sum of Mulliken charges =   0.00000

 Dipole moment (field-independent basis, Debye):
    X=             -0.0577    Y=             -0.0327    Z=              0.0087  Tot=              0.0669
 Quadrupole moment (field-independent basis, Debye-Ang):
   XX=            -52.0481   YY=            -58.7884   ZZ=            -48.5398
   XY=             -2.6352   XZ=              0.4276   YZ=              0.6453

  Exact polarizability:  82.819  -2.300  65.827   0.334   0.284  70.521
 Approx polarizability: 108.833  -0.108 107.292   0.433  -0.328 109.071

                      1                      2                      3
                      A                      A                      A
 Frequencies --    183.1290               219.6647               275.1817
 Red. masses --      1.0714                 2.6307                 2.7598
 Frc consts  --      0.0212                 0.0748                 0.1231
 IR Inten    --      0.0974                 0.4397                 0.6812

                      4                      5                      6
                      A                      A                      A
 Frequencies --    418.0344               512.9984               572.2813
 Red. masses --      2.6510                 3.2606                 3.5250
 Frc consts  --      0.2730                 0.5056                 0.6802
 IR Inten    --      3.9161                 2.6618                 5.5627

                      7                      8                      9
                      A                      A                      A
 Frequencies --    596.6075               623.3153               683.9979
 Red. masses --      5.1893                 6.6037                 3.6843
 Frc consts  --      1.0883                 1.5117                 1.0156
 IR Inten    --     14.6747                 3.2865                 0.8942

                     10                     11                     12
                      A                      A                      A
 Frequencies --    755.2908               814.4667               819.3379
 Red. masses --      2.6849                 2.8458                 4.4130
 Frc consts  --      0.9024                 1.1122                 1.7455
 IR Inten    --      1.5634                 0.3041                 2.6909

                     13                     14                     15
                      A                      A                      A
 Frequencies --    863.2493               906.0968               913.9805
 Red. masses --      2.5316                 2.7467                 3.2390
 Frc consts  --      1.1115                 1.3287                 1.5942
 IR Inten    --      2.7571                23.0868                25.5375

                     16                     17                     18
                      A                      A                      A
 Frequencies --    925.3930               927.6681               963.6738
 Red. masses --      2.7638                 2.5392                 2.1895
 Frc consts  --      1.3945                 1.2874                 1.1980
 IR Inten    --     55.2109                24.1527                 2.4447

                     19                     20                     21
                      A                      A                      A
 Frequencies --    970.7232               984.1497              1024.1144
 Red. masses --      2.9109                 2.1626                 1.9648
 Frc consts  --      1.6161                 1.2341                 1.2141
 IR Inten    --      0.8722                19.9980                13.5188

                     22                     23                     24
                      A                      A                      A
 Frequencies --   1034.7833              1060.0891              1082.8013
 Red. masses --      3.6395                 1.9619                 1.1945
 Frc consts  --      2.2961                 1.2990                 0.8252
 IR Inten    --     24.2786                10.1896                 1.1947

                     25                     26                     27
                      A                      A                      A
 Frequencies --   1128.3553              1137.4971              1144.2635
 Red. masses --      2.1264                 1.9662                 1.4032
 Frc consts  --      1.5951                 1.4989                 1.0825
 IR Inten    --      3.1146                 0.2406                 0.7515

                     28                     29                     30
                      A                      A                      A
 Frequencies --   1200.5495              1235.8550              1244.9704
 Red. masses --      1.6651                 1.3973                 1.3365
 Frc consts  --      1.4140                 1.2574                 1.2205
 IR Inten    --      3.7724                 0.8511                 2.1815

                     31                     32                     33
                      A                      A                      A
 Frequencies --   1255.1575              1264.9812              1274.4182
 Red. masses --      1.4053                 1.5831                 1.4861
 Frc consts  --      1.3044                 1.4925                 1.4220
 IR Inten    --      0.6008                 6.5751                 3.5151

                     34                     35                     36
                      A                      A                      A
 Frequencies --   1289.1685              1319.5220              1339.3834
 Red. masses --      1.5309                 1.4301                 1.4486
 Frc consts  --      1.4990                 1.4670                 1.5311
 IR Inten    --      5.1066                 8.4981                 0.9061

                     37                     38                     39
                      A                      A                      A
 Frequencies --   1378.9124              1406.2598              1472.8550
 Red. masses --      1.5811                 1.2488                 1.1145
 Frc consts  --      1.7712                 1.4551                 1.4245
 IR Inten    --      0.7944                 3.1065                 2.9818

                     40                     41                     42
                      A                      A                      A
 Frequencies --   1494.4178              1507.6200              3036.3008
 Red. masses --      1.0459                 1.0489                 1.0391
 Frc consts  --      1.3762                 1.4047                 5.6441
 IR Inten    --      3.7988                 3.6070                33.4114

                     43                     44                     45
                      A                      A                      A
 Frequencies --   3080.4200              3086.1102              3091.6230
 Red. masses --      1.0844                 1.0570                 1.1006
 Frc consts  --      6.0625                 5.9314                 6.1979
 IR Inten    --     13.7781                20.1714                22.2800

                     46                     47                     48
                      A                      A                      A
 Frequencies --   3140.5335              3141.5643              3143.0567
 Red. masses --      1.0969                 1.0911                 1.0918
 Frc consts  --      6.3744                 6.3449                 6.3550
 IR Inten    --     10.9649                28.2918                13.9103

                     49                     50                     51
                      A                      A                      A
 Frequencies --   3150.1704              3151.9084              3157.1038
 Red. masses --      1.1066                 1.0916                 1.0945
 Frc consts  --      6.4703                 6.3894                 6.4276
 IR Inten    --     18.0292                61.0620                 2.0164

 - Thermochemistry -
 -------------------
 Temperature   298.150 Kelvin.  Pressure   1.00000 Atm.
 Atom     1 has atomic number  6 and mass  12.00000

 Molecular mass:   126.06808 amu.
 Principal axes and moments of inertia in atomic units:
                           1         2         3
     Eigenvalues --   572.05421 969.503021128.59061
           X            0.99957  -0.02916   0.00392
           Y            0.02907   0.99938   0.01990
           Z           -0.00450  -0.01978   0.99979
 This molecule is an asymmetric top.
 Rotational symmetry number  1.
 Warning -- assumption of classical behavior for rotation
           may cause significant error
 Rotational temperatures (Kelvin)      0.15141     0.08934     0.07675
 Rotational constants (GHZ):           3.15484     1.86151     1.59911
 Zero-point vibrational energy     427090.8 (Joules/Mol)
                                  102.07715 (Kcal/Mol)
 Warning -- explicit consideration of   7 degrees of freedom as
           vibrations may cause significant error
 Vibrational temperatures:    263.48   316.05   395.92   601.46   738.09
          (Kelvin)            823.38   858.38   896.81   984.12  1086.69
                             1171.83  1178.84  1242.02  1303.67  1315.01
                             1331.43  1334.71  1386.51  1396.65  1415.97
                             1473.47  1488.82  1525.23  1557.91  1623.45
                             1636.60  1646.34  1727.32  1778.12  1791.23
                             1805.89  1820.02  1833.60  1854.82  1898.50
                             1927.07  1983.94  2023.29  2119.11  2150.13
                             2169.13  4368.55  4432.03  4440.22  4448.15
                             4518.52  4520.00  4522.15  4532.39  4534.89
                             4542.36

 Zero-point correction=                           0.162670 (Hartree/Particle)
 Thermal correction to Energy=                    0.169143
 Thermal correction to Enthalpy=                  0.170087
 Thermal correction to Gibbs Free Energy=         0.132158
 Sum of electronic and zero-point Energies=           -423.016722
 Sum of electronic and thermal Energies=              -423.010249
 Sum of electronic and thermal Enthalpies=            -423.009305
 Sum of electronic and thermal Free Energies=         -423.047235

                     E (Thermal)             CV                S
                      KCal/Mol        Cal/Mol-Kelvin    Cal/Mol-Kelvin
 Total                  106.139             27.622             79.829
 Electronic               0.000              0.000              0.000
 Translational            0.889              2.981             40.409
 Rotational               0.889              2.981             27.928
 Vibrational            104.361             21.660             11.492
 Vibration     1          0.631              1.863              2.296
 Vibration     2          0.647              1.811              1.962
 Vibration     3          0.677              1.719              1.563
 Vibration     4          0.781              1.431              0.899
 Vibration     5          0.868              1.221              0.626
 Vibration     6          0.928              1.091              0.500
 Vibration     7          0.954              1.039              0.456

 Normal termination of Gaussian 09 at Tue Jan 28 00:39:36 2020.
