 Gaussian 09, Revision D.01,
 Gaussian 09:  ES64L-G09RevD.01 24-Apr-2013

 -----------------------------
 # b3lyp 6-31G(2df,p) opt Freq
 -----------------------------

 -----
 titel
 -----
 Symbolic Z-matrix:
 Charge =  0 Multiplicity = 1

 SCF Done:  E(RB3LYP) =  -423.204528637     A.U. after   14 cycles
 Optimization completed.
    -- Stationary point found.
 Normal termination of Gaussian 09 at Mon Jan 27 22:02:38 2020.

 ----------------------------------------------------------------------
 #N Geom=AllCheck Guess=TCheck SCRF=Check GenChk RB3LYP/6-31G(2df,p) Fr
 eq
 ----------------------------------------------------------------------

 Structure from the checkpoint file:  "/scratch/puck/g09_6e054f6f-3d4c-4b68-bd44-0a84043fe8ca/Gau-62712.chk"
 -----
 titel
 -----
 Charge =  0 Multiplicity = 1

                         Standard orientation:
 ---------------------------------------------------------------------
 Center     Atomic      Atomic             Coordinates (Angstroms)
 Number     Number       Type             X           Y           Z
 ---------------------------------------------------------------------
      1          6           0       -2.321035   -1.717909    0.086101
      2          6           0       -1.301778   -0.618284   -0.009192
      3          6           0       -0.037580   -0.831673   -0.375821
      4          6           0        0.998339    0.265157   -0.420142
      5          8           0        0.560056    1.484515    0.139192
      6          6           0       -0.773170    1.816780   -0.216602
      7          6           0       -1.759966    0.783340    0.324974
      8          6           0        2.231029   -0.163016    0.378391
      9          8           0        2.935723   -1.085887    0.069225
     10          1           0       -2.745528   -1.771263    1.097080
     11          1           0       -3.162521   -1.536821   -0.594833
     12          1           0       -1.888956   -2.692975   -0.153064
     13          1           0        0.323547   -1.819886   -0.645347
     14          1           0        1.334451    0.412189   -1.464016
     15          1           0       -0.958967    2.809582    0.201572
     16          1           0       -0.867142    1.885812   -1.312069
     17          1           0       -1.866745    0.894274    1.412874
     18          1           0       -2.755316    0.967408   -0.100652
     19          1           0        2.405918    0.456299    1.284866
 ---------------------------------------------------------------------

 SCF Done:  E(RB3LYP) =  -423.204528637     A.U. after    1 cycles

 The electronic state is 1-A.
 Alpha  occ. eigenvalues --  -19.15019 -19.14315 -10.27160 -10.24496 -10.23648
 Alpha  occ. eigenvalues --  -10.19936 -10.19338 -10.18737 -10.18487  -1.05531
 Alpha  occ. eigenvalues --   -1.04287  -0.82281  -0.78215  -0.71878  -0.66945
 Alpha  occ. eigenvalues --   -0.63167  -0.58103  -0.52646  -0.50000  -0.49076
 Alpha  occ. eigenvalues --   -0.46721  -0.45118  -0.44174  -0.42580  -0.41497
 Alpha  occ. eigenvalues --   -0.39692  -0.39004  -0.38297  -0.36853  -0.35550
 Alpha  occ. eigenvalues --   -0.31433  -0.26802  -0.26410  -0.23736
 Alpha virt. eigenvalues --   -0.02840   0.02251   0.08719   0.10570   0.11861
 Alpha virt. eigenvalues --    0.13548   0.13918   0.14563   0.15396   0.16322
 Alpha virt. eigenvalues --    0.17171   0.17379   0.18628   0.22971   0.23345

 Mulliken charges:
               1
     1  C   -0.476158
     2  C    0.299764
     3  C   -0.178598
     4  C    0.004063
     5  O   -0.270775
     6  C   -0.083326
     7  C   -0.294493
     8  C    0.134821
     9  O   -0.248376
    10  H    0.127765
    11  H    0.124997
    12  H    0.126493
    13  H    0.107425
    14  H    0.101675
    15  H    0.110953
    16  H    0.095412
    17  H    0.117418
    18  H    0.104030
    19  H    0.096908
 Sum of Mulliken charges =   0.00000

 Dipole moment (field-independent basis, Debye):
    X=             -3.0779    Y=              0.9637    Z=             -0.1634  Tot=              3.2293
 Quadrupole moment (field-independent basis, Debye-Ang):
   XX=            -57.6708   YY=            -54.2211   ZZ=            -52.2705
   XY=              3.1467   XZ=             -0.2078   YZ=             -0.4303

  Exact polarizability:  99.683  -3.226  78.413  -3.847   3.301  60.910
 Approx polarizability: 141.575 -11.471 110.737  -9.846   8.111  95.486

                      1                      2                      3
                      A                      A                      A
 Frequencies --     36.6296                86.0244               141.3347
 Red. masses --      2.7543                 3.6750                 2.6128
 Frc consts  --      0.0022                 0.0160                 0.0308
 IR Inten    --     14.7985                 0.0318                 0.6551

                      4                      5                      6
                      A                      A                      A
 Frequencies --    193.3718               220.8485               280.9718
 Red. masses --      1.2265                 2.4939                 2.3337
 Frc consts  --      0.0270                 0.0717                 0.1085
 IR Inten    --      0.2744                 1.4629                 2.2496

                      7                      8                      9
                      A                      A                      A
 Frequencies --    341.3411               408.0952               409.9578
 Red. masses --      2.7002                 3.0786                 5.1949
 Frc consts  --      0.1854                 0.3021                 0.5144
 IR Inten    --      1.9842                10.3268                 1.0374

                     10                     11                     12
                      A                      A                      A
 Frequencies --    458.8435               534.6501               571.1492
 Red. masses --      3.1313                 3.0108                 3.4252
 Frc consts  --      0.3884                 0.5071                 0.6583
 IR Inten    --      3.7553                15.4433                 1.1689

                     13                     14                     15
                      A                      A                      A
 Frequencies --    695.4955               794.2985               848.7500
 Red. masses --      3.6566                 2.3469                 1.4516
 Frc consts  --      1.0421                 0.8724                 0.6161
 IR Inten    --     13.4176                 1.1104                 8.1769

                     16                     17                     18
                      A                      A                      A
 Frequencies --    887.4005               894.3011               986.0395
 Red. masses --      2.3290                 2.2801                 2.1551
 Frc consts  --      1.0806                 1.0744                 1.2345
 IR Inten    --      4.4253                15.5719                18.5485

                     19                     20                     21
                      A                      A                      A
 Frequencies --    995.4349              1033.2709              1040.7353
 Red. masses --      2.1309                 1.4356                 1.8040
 Frc consts  --      1.2440                 0.9031                 1.1512
 IR Inten    --      6.6327                 2.6258                 3.6425

                     22                     23                     24
                      A                      A                      A
 Frequencies --   1061.8455              1088.5680              1112.3394
 Red. masses --      2.3307                 2.2300                 2.1518
 Frc consts  --      1.5483                 1.5569                 1.5687
 IR Inten    --     10.9666                 4.4405                 2.1103

                     25                     26                     27
                      A                      A                      A
 Frequencies --   1163.6967              1185.5212              1238.8705
 Red. masses --      3.9582                 2.1495                 1.2402
 Frc consts  --      3.1581                 1.7799                 1.1215
 IR Inten    --     74.4380                39.6283                 2.6716

                     28                     29                     30
                      A                      A                      A
 Frequencies --   1270.2539              1294.5392              1310.8227
 Red. masses --      1.5294                 1.3218                 1.4106
 Frc consts  --      1.4540                 1.3051                 1.4281
 IR Inten    --      5.4860                14.3210                14.3611

                     31                     32                     33
                      A                      A                      A
 Frequencies --   1334.0208              1378.8645              1388.6158
 Red. masses --      1.2976                 1.6651                 1.3395
 Frc consts  --      1.3605                 1.8652                 1.5218
 IR Inten    --      3.2407                 3.6677                10.2771

                     34                     35                     36
                      A                      A                      A
 Frequencies --   1413.9856              1418.3613              1468.8111
 Red. masses --      1.2953                 1.3056                 1.0893
 Frc consts  --      1.5259                 1.5475                 1.3846
 IR Inten    --      2.7463                 7.2289                 2.3157

                     37                     38                     39
                      A                      A                      A
 Frequencies --   1479.6686              1489.0789              1502.3287
 Red. masses --      1.0468                 1.0610                 1.0921
 Frc consts  --      1.3504                 1.3861                 1.4522
 IR Inten    --      6.6825                 5.0841                 1.5562

                     40                     41                     42
                      A                      A                      A
 Frequencies --   1739.3480              1839.4021              2904.0709
 Red. masses --      7.1271                10.8521                 1.0853
 Frc consts  --     12.7039                21.6330                 5.3927
 IR Inten    --      2.9539               177.4389                87.6922

                     43                     44                     45
                      A                      A                      A
 Frequencies --   2924.9420              2981.2256              3011.1758
 Red. masses --      1.0796                 1.0709                 1.0554
 Frc consts  --      5.4416                 5.6079                 5.6380
 IR Inten    --     45.8303                49.0823                11.6090

                     46                     47                     48
                      A                      A                      A
 Frequencies --   3017.3836              3046.3083              3062.9211
 Red. masses --      1.0431                 1.0992                 1.0986
 Frc consts  --      5.5952                 6.0102                 6.0722
 IR Inten    --     48.7834                26.8076                22.6432

                     49                     50                     51
                      A                      A                      A
 Frequencies --   3092.7143              3115.0674              3175.5292
 Red. masses --      1.0941                 1.0991                 1.0904
 Frc consts  --      6.1659                 6.2838                 6.4784
 IR Inten    --     37.0048                18.5296                 6.0179

 - Thermochemistry -
 -------------------
 Temperature   298.150 Kelvin.  Pressure   1.00000 Atm.
 Atom     1 has atomic number  6 and mass  12.00000

 Molecular mass:   126.06808 amu.
 Principal axes and moments of inertia in atomic units:
                           1         2         3
     Eigenvalues --   705.716481437.966732018.92816
           X            0.99938   0.03497  -0.00355
           Y           -0.03497   0.99939  -0.00137
           Z            0.00350   0.00150   0.99999
 This molecule is an asymmetric top.
 Rotational symmetry number  1.
 Warning -- assumption of classical behavior for rotation
           may cause significant error
 Rotational temperatures (Kelvin)      0.12273     0.06023     0.04290
 Rotational constants (GHZ):           2.55732     1.25506     0.89391
 Zero-point vibrational energy     414920.1 (Joules/Mol)
                                   99.16828 (Kcal/Mol)
 Warning -- explicit consideration of  12 degrees of freedom as
           vibrations may cause significant error
 Vibrational temperatures:     52.70   123.77   203.35   278.22   317.75
          (Kelvin)            404.26   491.11   587.16   589.84   660.17
                              769.24   821.76  1000.66  1142.82  1221.16
                             1276.77  1286.70  1418.69  1432.21  1486.64
                             1497.38  1527.76  1566.20  1600.41  1674.30
                             1705.70  1782.46  1827.61  1862.55  1885.98
                             1919.36  1983.88  1997.91  2034.41  2040.70
                             2113.29  2128.91  2142.45  2161.51  2502.53
                             2646.49  4178.31  4208.33  4289.31  4332.40
                             4341.34  4382.95  4406.85  4449.72  4481.88
                             4568.87

 Zero-point correction=                           0.158035 (Hartree/Particle)
 Thermal correction to Energy=                    0.167041
 Thermal correction to Enthalpy=                  0.167985
 Thermal correction to Gibbs Free Energy=         0.123335
 Sum of electronic and zero-point Energies=           -423.046494
 Sum of electronic and thermal Energies=              -423.037488
 Sum of electronic and thermal Enthalpies=            -423.036544
 Sum of electronic and thermal Free Energies=         -423.081194

                     E (Thermal)             CV                S
                      KCal/Mol        Cal/Mol-Kelvin    Cal/Mol-Kelvin
 Total                  104.820             32.717             93.974
 Electronic               0.000              0.000              0.000
 Translational            0.889              2.981             40.409
 Rotational               0.889              2.981             29.106
 Vibrational            103.042             26.755             24.459
 Vibration     1          0.594              1.982              5.434
 Vibration     2          0.601              1.959              3.749
 Vibration     3          0.615              1.912              2.786
 Vibration     4          0.635              1.849              2.195
 Vibration     5          0.648              1.809              1.952
 Vibration     6          0.681              1.709              1.528
 Vibration     7          0.721              1.593              1.206
 Vibration     8          0.773              1.453              0.933
 Vibration     9          0.774              1.449              0.927
 Vibration    10          0.817              1.341              0.769
 Vibration    11          0.890              1.173              0.577
 Vibration    12          0.927              1.094              0.502

 Normal termination of Gaussian 09 at Mon Jan 27 22:43:15 2020.
