 Gaussian 09, Revision D.01,
 Gaussian 09:  ES64L-G09RevD.01 24-Apr-2013

 -----------------------------
 # b3lyp 6-31G(2df,p) opt Freq
 -----------------------------

 -----
 titel
 -----
 Symbolic Z-matrix:
 Charge =  0 Multiplicity = 1

 SCF Done:  E(RB3LYP) =  -423.198710856     A.U. after   14 cycles
 Optimization completed.
    -- Stationary point found.
 Normal termination of Gaussian 09 at Mon Jan 27 13:11:48 2020.

 ----------------------------------------------------------------------
 #N Geom=AllCheck Guess=TCheck SCRF=Check GenChk RB3LYP/6-31G(2df,p) Fr
 eq
 ----------------------------------------------------------------------

 Structure from the checkpoint file:  "/scratch/puck/g09_d7e816e0-6a36-40e6-8cf7-0fced81478aa/Gau-38087.chk"
 -----
 titel
 -----
 Charge =  0 Multiplicity = 1

                         Standard orientation:
 ---------------------------------------------------------------------
 Center     Atomic      Atomic             Coordinates (Angstroms)
 Number     Number       Type             X           Y           Z
 ---------------------------------------------------------------------
      1          8           0       -0.851491    2.024649   -0.106231
      2          6           0       -0.147824    1.037653   -0.064923
      3          6           0        1.360896    1.185625    0.151508
      4          8           0        2.144896    0.082130   -0.245342
      5          6           0        1.656195   -1.144152    0.275072
      6          6           0        0.307251   -1.475497   -0.358319
      7          6           0       -0.695032   -0.357015   -0.106281
      8          6           0       -1.846460   -0.580521    0.882454
      9          6           0       -2.124953   -0.499707   -0.581138
     10          1           0        1.708665    2.059194   -0.404673
     11          1           0        1.498942    1.400712    1.227639
     12          1           0        2.405482   -1.901880    0.030696
     13          1           0        1.570415   -1.089428    1.373744
     14          1           0        0.462538   -1.601428   -1.436893
     15          1           0       -0.074890   -2.428096    0.026735
     16          1           0       -1.882064   -1.547541    1.372956
     17          1           0       -2.133079    0.264664    1.497462
     18          1           0       -2.369057   -1.412629   -1.113737
     19          1           0       -2.594636    0.403889   -0.951576
 ---------------------------------------------------------------------

 SCF Done:  E(RB3LYP) =  -423.198710856     A.U. after    1 cycles

 The electronic state is 1-A.
 Alpha  occ. eigenvalues --  -19.14865 -19.12709 -10.26773 -10.23669 -10.23625
 Alpha  occ. eigenvalues --  -10.20919 -10.20204 -10.19545 -10.19484  -1.04874
 Alpha  occ. eigenvalues --   -1.03414  -0.87535  -0.76996  -0.73466  -0.62870
 Alpha  occ. eigenvalues --   -0.62841  -0.60930  -0.52566  -0.50771  -0.49919
 Alpha  occ. eigenvalues --   -0.47337  -0.45702  -0.44651  -0.41740  -0.41348
 Alpha  occ. eigenvalues --   -0.40484  -0.38763  -0.36342  -0.35067  -0.33241
 Alpha  occ. eigenvalues --   -0.30907  -0.29284  -0.27568  -0.23220
 Alpha virt. eigenvalues --   -0.02048   0.08711   0.09551   0.11296   0.12027
 Alpha virt. eigenvalues --    0.12684   0.14029   0.15072   0.15937   0.16493
 Alpha virt. eigenvalues --    0.16913   0.18529   0.20482   0.22329   0.22412

 Mulliken charges:
               1
     1  O   -0.326763
     2  C    0.300975
     3  C   -0.181109
     4  O   -0.242819
     5  C   -0.085143
     6  C   -0.298401
     7  C    0.233353
     8  C   -0.282957
     9  C   -0.297838
    10  H    0.139652
    11  H    0.115498
    12  H    0.111801
    13  H    0.089391
    14  H    0.115266
    15  H    0.097744
    16  H    0.117384
    17  H    0.136092
    18  H    0.116017
    19  H    0.141856
 Sum of Mulliken charges =   0.00000

 Dipole moment (field-independent basis, Debye):
    X=              0.0583    Y=             -2.6303    Z=              0.7905  Tot=              2.7472
 Quadrupole moment (field-independent basis, Debye-Ang):
   XX=            -56.4516   YY=            -54.7756   ZZ=            -51.7479
   XY=              2.9801   XZ=              1.1439   YZ=              0.4093

  Exact polarizability:  82.590   1.186  81.018   0.793  -0.086  63.574
 Approx polarizability: 112.206  -1.614 120.245  -1.318  -2.068  99.749

                      1                      2                      3
                      A                      A                      A
 Frequencies --     61.1194               133.9760               252.0824
 Red. masses --      3.7930                 2.4864                 2.6709
 Frc consts  --      0.0083                 0.0263                 0.1000
 IR Inten    --      1.0577                 4.1758                 1.1907

                      4                      5                      6
                      A                      A                      A
 Frequencies --    275.2114               292.9203               368.4505
 Red. masses --      3.3128                 2.8024                 3.5355
 Frc consts  --      0.1478                 0.1417                 0.2828
 IR Inten    --      2.3329                 6.8965                 5.8826

                      7                      8                      9
                      A                      A                      A
 Frequencies --    385.3102               462.8904               500.7648
 Red. masses --      2.1678                 3.5537                 4.2001
 Frc consts  --      0.1896                 0.4486                 0.6205
 IR Inten    --      5.1630                 0.8893                 5.1088

                     10                     11                     12
                      A                      A                      A
 Frequencies --    580.7843               634.3683               669.7908
 Red. masses --      2.6845                 3.6325                 3.1364
 Frc consts  --      0.5335                 0.8613                 0.8290
 IR Inten    --      6.4700                 0.8194                10.6915

                     13                     14                     15
                      A                      A                      A
 Frequencies --    790.5169               817.0452               855.5667
 Red. masses --      1.0905                 2.8309                 2.7896
 Frc consts  --      0.4015                 1.1134                 1.2031
 IR Inten    --      0.3152                 7.2494                 1.7394

                     16                     17                     18
                      A                      A                      A
 Frequencies --    880.4896               943.3516               965.4117
 Red. masses --      2.5143                 1.2998                 2.7207
 Frc consts  --      1.1485                 0.6815                 1.4940
 IR Inten    --     10.6956                 0.3869                41.4367

                     19                     20                     21
                      A                      A                      A
 Frequencies --    992.6505              1019.6032              1027.3817
 Red. masses --      1.9864                 2.0579                 2.2499
 Frc consts  --      1.1532                 1.2605                 1.3992
 IR Inten    --      5.5719                10.3667                 4.9695

                     22                     23                     24
                      A                      A                      A
 Frequencies --   1061.4879              1090.3909              1117.9051
 Red. masses --      1.2882                 1.3789                 2.0441
 Frc consts  --      0.8552                 0.9659                 1.5051
 IR Inten    --      5.4389                 1.0188                11.1656

                     25                     26                     27
                      A                      A                      A
 Frequencies --   1131.8305              1167.5700              1203.3702
 Red. masses --      3.9839                 4.2988                 1.2934
 Frc consts  --      3.0069                 3.4527                 1.1036
 IR Inten    --     31.2046               107.8355                 1.1560

                     28                     29                     30
                      A                      A                      A
 Frequencies --   1223.1991              1241.1099              1300.1010
 Red. masses --      1.4217                 1.2358                 2.1742
 Frc consts  --      1.2533                 1.1215                 2.1652
 IR Inten    --     17.7256                13.5335                 3.8308

                     31                     32                     33
                      A                      A                      A
 Frequencies --   1310.1606              1345.5959              1360.8682
 Red. masses --      1.3922                 1.9347                 1.3195
 Frc consts  --      1.4080                 2.0639                 1.4397
 IR Inten    --      5.6736                46.4195                10.6760

                     34                     35                     36
                      A                      A                      A
 Frequencies --   1385.3012              1408.8017              1451.0164
 Red. masses --      1.8586                 1.3096                 1.0901
 Frc consts  --      2.1015                 1.5313                 1.3522
 IR Inten    --     18.7809                11.2925                 4.8495

                     37                     38                     39
                      A                      A                      A
 Frequencies --   1458.9408              1478.1911              1486.1100
 Red. masses --      1.0855                 1.2056                 1.1906
 Frc consts  --      1.3614                 1.5521                 1.5493
 IR Inten    --      6.3079                 6.4275                 2.5352

                     40                     41                     42
                      A                      A                      A
 Frequencies --   1500.9989              1790.4346              2940.4964
 Red. masses --      1.0975                11.9771                 1.0710
 Frc consts  --      1.4568                22.6213                 5.4560
 IR Inten    --      3.1359               130.9053                30.4913

                     43                     44                     45
                      A                      A                      A
 Frequencies --   2965.3608              3026.3251              3068.4323
 Red. masses --      1.0707                 1.0595                 1.1031
 Frc consts  --      5.5474                 5.7173                 6.1191
 IR Inten    --     52.5150                24.4755                26.2338

                     46                     47                     48
                      A                      A                      A
 Frequencies --   3092.0642              3108.5698              3133.8230
 Red. masses --      1.0930                 1.0895                 1.0519
 Frc consts  --      6.1567                 6.2028                 6.0863
 IR Inten    --     38.1926                 9.8845                12.5119

                     49                     50                     51
                      A                      A                      A
 Frequencies --   3137.5756              3223.4093              3237.7444
 Red. masses --      1.0558                 1.1181                 1.1166
 Frc consts  --      6.1238                 6.8449                 6.8965
 IR Inten    --     10.6932                 0.7584                 4.0040

 - Thermochemistry -
 -------------------
 Temperature   298.150 Kelvin.  Pressure   1.00000 Atm.
 Atom     1 has atomic number  8 and mass  15.99491

 Molecular mass:   126.06808 amu.
 Principal axes and moments of inertia in atomic units:
                           1         2         3
     Eigenvalues --   711.263641094.404411595.70260
           X            0.99945   0.03204   0.00820
           Y           -0.03209   0.99946   0.00693
           Z           -0.00798  -0.00719   0.99994
 This molecule is an asymmetric top.
 Rotational symmetry number  1.
 Warning -- assumption of classical behavior for rotation
           may cause significant error
 Rotational temperatures (Kelvin)      0.12177     0.07914     0.05428
 Rotational constants (GHZ):           2.53737     1.64906     1.13100
 Zero-point vibrational energy     420827.5 (Joules/Mol)
                                  100.58020 (Kcal/Mol)
 Warning -- explicit consideration of  10 degrees of freedom as
           vibrations may cause significant error
 Vibrational temperatures:     87.94   192.76   362.69   395.97   421.45
          (Kelvin)            530.12   554.37   666.00   720.49   835.62
                              912.71   963.68  1137.38  1175.54  1230.97
                             1266.83  1357.27  1389.01  1428.20  1466.98
                             1478.17  1527.24  1568.83  1608.41  1628.45
                             1679.87  1731.38  1759.91  1785.68  1870.55
                             1885.03  1936.01  1957.98  1993.14  2026.95
                             2087.69  2099.09  2126.78  2138.18  2159.60
                             2576.03  4230.71  4266.49  4354.20  4414.78
                             4448.79  4472.53  4508.87  4514.27  4637.76
                             4658.39

 Zero-point correction=                           0.160285 (Hartree/Particle)
 Thermal correction to Energy=                    0.168264
 Thermal correction to Enthalpy=                  0.169209
 Thermal correction to Gibbs Free Energy=         0.127570
 Sum of electronic and zero-point Energies=           -423.038426
 Sum of electronic and thermal Energies=              -423.030446
 Sum of electronic and thermal Enthalpies=            -423.029502
 Sum of electronic and thermal Free Energies=         -423.071140

                     E (Thermal)             CV                S
                      KCal/Mol        Cal/Mol-Kelvin    Cal/Mol-Kelvin
 Total                  105.587             31.001             87.635
 Electronic               0.000              0.000              0.000
 Translational            0.889              2.981             40.409
 Rotational               0.889              2.981             28.609
 Vibrational            103.810             25.039             18.617
 Vibration     1          0.597              1.973              4.421
 Vibration     2          0.613              1.919              2.888
 Vibration     3          0.664              1.759              1.716
 Vibration     4          0.677              1.719              1.563
 Vibration     5          0.688              1.687              1.457
 Vibration     6          0.741              1.537              1.086
 Vibration     7          0.754              1.502              1.018
 Vibration     8          0.821              1.332              0.758
 Vibration     9          0.856              1.248              0.656
 Vibration    10          0.937              1.073              0.484

 Normal termination of Gaussian 09 at Mon Jan 27 13:56:02 2020.
