 Gaussian 09, Revision D.01,
 Gaussian 09:  ES64L-G09RevD.01 24-Apr-2013

 -----------------------------
 # b3lyp 6-31G(2df,p) opt Freq
 -----------------------------

 -----
 titel
 -----
 Symbolic Z-matrix:
 Charge =  0 Multiplicity = 1

 SCF Done:  E(RB3LYP) =  -423.171198807     A.U. after   14 cycles
 Optimization completed.
    -- Stationary point found.
 Normal termination of Gaussian 09 at Mon Jan 27 21:59:58 2020.

 ----------------------------------------------------------------------
 #N Geom=AllCheck Guess=TCheck SCRF=Check GenChk RB3LYP/6-31G(2df,p) Fr
 eq
 ----------------------------------------------------------------------

 Structure from the checkpoint file:  "/scratch/puck/g09_bff5ce21-9668-405a-bbab-d1382cc36640/Gau-98343.chk"
 -----
 titel
 -----
 Charge =  0 Multiplicity = 1

                         Standard orientation:
 ---------------------------------------------------------------------
 Center     Atomic      Atomic             Coordinates (Angstroms)
 Number     Number       Type             X           Y           Z
 ---------------------------------------------------------------------
      1          6           0       -1.294180    2.007450   -0.210020
      2          6           0       -0.888280    0.659010    0.366465
      3          6           0        0.275371   -0.173682   -0.275769
      4          6           0       -0.595728   -1.468103   -0.179258
      5          6           0       -1.797202   -0.555958    0.107894
      6          8           0       -2.984091   -0.688645    0.032157
      7          6           0        1.592837   -0.169320    0.442763
      8          6           0        2.722464    0.669190    0.019536
      9          8           0        2.710111   -0.734270   -0.246850
     10          1           0       -1.452455    1.940820   -1.291202
     11          1           0       -2.229865    2.349066    0.242141
     12          1           0       -0.528148    2.766778   -0.024250
     13          1           0       -0.724351    0.739168    1.451013
     14          1           0        0.428117    0.112692   -1.320480
     15          1           0       -0.664839   -2.115283   -1.055903
     16          1           0       -0.341288   -2.084531    0.690861
     17          1           0        1.540301   -0.449389    1.498400
     18          1           0        2.615946    1.310696   -0.854609
     19          1           0        3.456722    1.001777    0.751909
 ---------------------------------------------------------------------

 SCF Done:  E(RB3LYP) =  -423.171198807     A.U. after    1 cycles

 The electronic state is 1-A.
 Alpha  occ. eigenvalues --  -19.15628 -19.13890 -10.27042 -10.24644 -10.24026
 Alpha  occ. eigenvalues --  -10.20733 -10.20394 -10.19625 -10.18903  -1.07664
 Alpha  occ. eigenvalues --   -1.04757  -0.86059  -0.74499  -0.70345  -0.65840
 Alpha  occ. eigenvalues --   -0.63956  -0.59217  -0.52914  -0.50675  -0.48845
 Alpha  occ. eigenvalues --   -0.46428  -0.45487  -0.43411  -0.42614  -0.40590
 Alpha  occ. eigenvalues --   -0.39511  -0.38333  -0.37693  -0.36055  -0.34622
 Alpha  occ. eigenvalues --   -0.33496  -0.30037  -0.27321  -0.24235
 Alpha virt. eigenvalues --   -0.02042   0.08453   0.09121   0.09792   0.10577
 Alpha virt. eigenvalues --    0.11336   0.12140   0.13867   0.14787   0.16008
 Alpha virt. eigenvalues --    0.16414   0.17862   0.18238   0.19079   0.20239

 Mulliken charges:
               1
     1  C   -0.412494
     2  C   -0.108255
     3  C   -0.020062
     4  C   -0.366999
     5  C    0.387078
     6  O   -0.295615
     7  C    0.078758
     8  C   -0.185850
     9  O   -0.236852
    10  H    0.123891
    11  H    0.138891
    12  H    0.120753
    13  H    0.100792
    14  H    0.086029
    15  H    0.136105
    16  H    0.131560
    17  H    0.089974
    18  H    0.114484
    19  H    0.117815
 Sum of Mulliken charges =   0.00000

 Dipole moment (field-independent basis, Debye):
    X=              1.6461    Y=              1.8480    Z=              0.7220  Tot=              2.5780
 Quadrupole moment (field-independent basis, Debye-Ang):
   XX=            -67.3366   YY=            -52.1891   ZZ=            -50.4599
   XY=              1.9712   XZ=              1.7557   YZ=             -0.8086

  Exact polarizability:  91.124   3.955  76.629   0.244  -0.240  62.143
 Approx polarizability: 126.438   4.736 108.848  -1.760   1.013  97.657

                      1                      2                      3
                      A                      A                      A
 Frequencies --     60.2589                64.2828               148.1181
 Red. masses --      3.7780                 4.1297                 3.1059
 Frc consts  --      0.0081                 0.0101                 0.0401
 IR Inten    --      1.2784                 4.6268                 4.9165

                      4                      5                      6
                      A                      A                      A
 Frequencies --    183.9372               199.7247               233.3320
 Red. masses --      1.0684                 3.6493                 2.4819
 Frc consts  --      0.0213                 0.0858                 0.0796
 IR Inten    --      0.5759                 2.0920                 0.3514

                      7                      8                      9
                      A                      A                      A
 Frequencies --    334.4296               353.8305               406.2514
 Red. masses --      5.4528                 2.8214                 4.6986
 Frc consts  --      0.3593                 0.2081                 0.4569
 IR Inten    --      0.5631                 0.2478                 7.2545

                     10                     11                     12
                      A                      A                      A
 Frequencies --    486.7155               578.1484               664.0586
 Red. masses --      1.9306                 3.0190                 3.4119
 Frc consts  --      0.2695                 0.5945                 0.8865
 IR Inten    --      1.6652                 1.2682                 6.9360

                     13                     14                     15
                      A                      A                      A
 Frequencies --    752.6862               767.7407               856.8495
 Red. masses --      2.9712                 2.0218                 7.1210
 Frc consts  --      0.9918                 0.7021                 3.0803
 IR Inten    --      2.5090                 7.4515                25.7330

                     16                     17                     18
                      A                      A                      A
 Frequencies --    884.3258               896.5188               918.9724
 Red. masses --      1.5214                 2.0409                 2.7862
 Frc consts  --      0.7010                 0.9665                 1.3863
 IR Inten    --      8.1576                 7.9770                 6.0670

                     19                     20                     21
                      A                      A                      A
 Frequencies --    972.9572              1020.8543              1046.3079
 Red. masses --      1.3552                 1.8955                 2.5197
 Frc consts  --      0.7558                 1.1639                 1.6252
 IR Inten    --     10.0428                42.0980                 8.0132

                     22                     23                     24
                      A                      A                      A
 Frequencies --   1075.7370              1097.3874              1127.5779
 Red. masses --      2.2404                 1.3320                 2.2163
 Frc consts  --      1.5276                 0.9451                 1.6603
 IR Inten    --      8.8673                 5.1900                 8.4650

                     25                     26                     27
                      A                      A                      A
 Frequencies --   1148.7041              1156.9139              1170.9928
 Red. masses --      1.8624                 1.3905                 1.3972
 Frc consts  --      1.4479                 1.0965                 1.1288
 IR Inten    --      5.6593                 3.4178                 2.3633

                     28                     29                     30
                      A                      A                      A
 Frequencies --   1187.7603              1207.9232              1233.2250
 Red. masses --      1.9993                 1.4783                 1.5602
 Frc consts  --      1.6619                 1.2708                 1.3980
 IR Inten    --      6.2281                 1.0864                 3.2154

                     31                     32                     33
                      A                      A                      A
 Frequencies --   1249.3511              1292.8921              1308.9314
 Red. masses --      1.3802                 1.6916                 1.4092
 Frc consts  --      1.2693                 1.6660                 1.4225
 IR Inten    --      0.3572                 8.4426                15.8146

                     34                     35                     36
                      A                      A                      A
 Frequencies --   1346.0451              1405.6715              1441.5035
 Red. masses --      1.6297                 1.2185                 1.1306
 Frc consts  --      1.7397                 1.4186                 1.3842
 IR Inten    --      6.3798                 1.5748                 6.2277

                     37                     38                     39
                      A                      A                      A
 Frequencies --   1455.9037              1494.0868              1494.5819
 Red. masses --      1.6754                 1.0454                 1.0494
 Frc consts  --      2.0923                 1.3750                 1.3812
 IR Inten    --     12.0757                 7.7072                 2.3107

                     40                     41                     42
                      A                      A                      A
 Frequencies --   1529.1854              1891.2069              3009.3120
 Red. masses --      1.3846                12.6063                 1.0813
 Frc consts  --      1.9076                26.5653                 5.7693
 IR Inten    --      4.0230               279.2668                 8.2338

                     43                     44                     45
                      A                      A                      A
 Frequencies --   3037.1890              3049.6660              3064.5423
 Red. masses --      1.0349                 1.0641                 1.0832
 Frc consts  --      5.6245                 5.8308                 5.9935
 IR Inten    --     20.0757                 5.1296                 0.5961

                     46                     47                     48
                      A                      A                      A
 Frequencies --   3077.6770              3081.7670              3105.9726
 Red. masses --      1.0826                 1.0561                 1.1021
 Frc consts  --      6.0419                 5.9096                 6.2641
 IR Inten    --     42.2392                18.1648                20.3880

                     49                     50                     51
                      A                      A                      A
 Frequencies --   3113.8247              3121.5796              3167.8666
 Red. masses --      1.1012                 1.1010                 1.1196
 Frc consts  --      6.2907                 6.3212                 6.6196
 IR Inten    --     15.3406                10.3638                27.0629

 - Thermochemistry -
 -------------------
 Temperature   298.150 Kelvin.  Pressure   1.00000 Atm.
 Atom     1 has atomic number  6 and mass  12.00000

 Molecular mass:   126.06808 amu.
 Principal axes and moments of inertia in atomic units:
                           1         2         3
     Eigenvalues --   544.071771787.296972205.04555
           X            0.99997  -0.00446   0.00615
           Y            0.00453   0.99993  -0.01130
           Z           -0.00610   0.01133   0.99992
 This molecule is an asymmetric top.
 Rotational symmetry number  1.
 Warning -- assumption of classical behavior for rotation
           may cause significant error
 Rotational temperatures (Kelvin)      0.15920     0.04846     0.03928
 Rotational constants (GHZ):           3.31710     1.00976     0.81846
 Zero-point vibrational energy     412563.8 (Joules/Mol)
                                   98.60511 (Kcal/Mol)
 Warning -- explicit consideration of  11 degrees of freedom as
           vibrations may cause significant error
 Vibrational temperatures:     86.70    92.49   213.11   264.64   287.36
          (Kelvin)            335.71   481.17   509.08   584.50   700.27
                              831.83   955.43  1082.95  1104.61  1232.81
                             1272.35  1289.89  1322.19  1399.87  1468.78
                             1505.40  1547.74  1578.89  1622.33  1652.73
                             1664.54  1684.80  1708.92  1737.93  1774.33
                             1797.54  1860.18  1883.26  1936.66  2022.45
                             2074.00  2094.72  2149.66  2150.37  2200.15
                             2721.02  4329.72  4369.83  4387.78  4409.19
                             4428.09  4433.97  4468.80  4480.09  4491.25
                             4557.85

 Zero-point correction=                           0.157137 (Hartree/Particle)
 Thermal correction to Energy=                    0.166243
 Thermal correction to Enthalpy=                  0.167187
 Thermal correction to Gibbs Free Energy=         0.122453
 Sum of electronic and zero-point Energies=           -423.014062
 Sum of electronic and thermal Energies=              -423.004956
 Sum of electronic and thermal Enthalpies=            -423.004012
 Sum of electronic and thermal Free Energies=         -423.048746

                     E (Thermal)             CV                S
                      KCal/Mol        Cal/Mol-Kelvin    Cal/Mol-Kelvin
 Total                  104.319             33.041             94.150
 Electronic               0.000              0.000              0.000
 Translational            0.889              2.981             40.409
 Rotational               0.889              2.981             29.152
 Vibrational            102.541             27.080             24.590
 Vibration     1          0.597              1.973              4.449
 Vibration     2          0.597              1.971              4.321
 Vibration     3          0.617              1.905              2.696
 Vibration     4          0.631              1.862              2.288
 Vibration     5          0.638              1.840              2.136
 Vibration     6          0.654              1.790              1.853
 Vibration     7          0.716              1.607              1.239
 Vibration     8          0.730              1.567              1.149
 Vibration     9          0.771              1.457              0.940
 Vibration    10          0.843              1.280              0.692
 Vibration    11          0.935              1.079              0.489

 Optimization completed.
    -- Stationary point found.
 Normal termination of Gaussian 09 at Mon Jan 27 22:40:07 2020.
