 Gaussian 09, Revision D.01,
 Gaussian 09:  ES64L-G09RevD.01 24-Apr-2013

 -----------------------------
 # b3lyp 6-31G(2df,p) opt Freq
 -----------------------------

 -----
 titel
 -----
 Symbolic Z-matrix:
 Charge =  0 Multiplicity = 1

 SCF Done:  E(RB3LYP) =  -423.179751138     A.U. after   12 cycles
 Optimization completed.
    -- Stationary point found.
 Normal termination of Gaussian 09 at Tue Jan 28 10:13:44 2020.

 ----------------------------------------------------------------------
 #N Geom=AllCheck Guess=TCheck SCRF=Check GenChk RB3LYP/6-31G(2df,p) Fr
 eq
 ----------------------------------------------------------------------

 Structure from the checkpoint file:  "/scratch/puck/g09_12ca8e35-dffa-4777-95b8-19067582cd99/Gau-22735.chk"
 -----
 titel
 -----
 Charge =  0 Multiplicity = 1

                         Standard orientation:
 ---------------------------------------------------------------------
 Center     Atomic      Atomic             Coordinates (Angstroms)
 Number     Number       Type             X           Y           Z
 ---------------------------------------------------------------------
      1          6           0       -2.891718   -0.449796    0.207611
      2          6           0       -1.911885    0.593268   -0.345988
      3          6           0       -0.464264    0.206147   -0.192515
      4          6           0        0.187540   -1.018138   -0.831001
      5          6           0        1.584203   -0.727492   -0.243679
      6          8           0        1.847017    0.605672   -0.668490
      7          6           0        0.685822    1.210538   -0.128939
      8          6           0        0.342261    0.391389    1.093644
      9          8           0        1.334050   -0.617969    1.154175
     10          1           0       -3.926267   -0.110366    0.099116
     11          1           0       -2.797564   -1.404037   -0.320299
     12          1           0       -2.707252   -0.638699    1.270169
     13          1           0       -2.127908    0.774728   -1.407249
     14          1           0       -2.080249    1.552352    0.161186
     15          1           0       -0.215465   -1.968044   -0.473502
     16          1           0        0.187211   -0.989069   -1.923221
     17          1           0        2.426297   -1.383045   -0.446456
     18          1           0        0.620365    2.282277   -0.247491
     19          1           0       -0.019459    0.746786    2.047473
 ---------------------------------------------------------------------

 SCF Done:  E(RB3LYP) =  -423.179751138     A.U. after    1 cycles

 The electronic state is 1-A.
 Alpha  occ. eigenvalues --  -19.14913 -19.14902 -10.27840 -10.23263 -10.23225
 Alpha  occ. eigenvalues --  -10.19745 -10.19348 -10.18683 -10.17873  -1.10702
 Alpha  occ. eigenvalues --   -0.99706  -0.84856  -0.76493  -0.75007  -0.63776
 Alpha  occ. eigenvalues --   -0.61823  -0.60164  -0.55995  -0.51340  -0.47720
 Alpha  occ. eigenvalues --   -0.46718  -0.44705  -0.42843  -0.42336  -0.40928
 Alpha  occ. eigenvalues --   -0.39000  -0.37871  -0.36712  -0.35449  -0.33925
 Alpha  occ. eigenvalues --   -0.31593  -0.30776  -0.25108  -0.23572
 Alpha virt. eigenvalues --    0.08929   0.09859   0.11520   0.11992   0.13208
 Alpha virt. eigenvalues --    0.13851   0.14951   0.15528   0.15924   0.16797
 Alpha virt. eigenvalues --    0.18129   0.18412   0.19085   0.20457   0.21988

 Mulliken charges:
               1
     1  C   -0.375134
     2  C   -0.300012
     3  C    0.244311
     4  C   -0.295218
     5  C    0.148208
     6  O   -0.252935
     7  C   -0.015188
     8  C    0.000028
     9  O   -0.252202
    10  H    0.113412
    11  H    0.120700
    12  H    0.120570
    13  H    0.103557
    14  H    0.097136
    15  H    0.112386
    16  H    0.110319
    17  H    0.099382
    18  H    0.110471
    19  H    0.110209
 Sum of Mulliken charges =   0.00000

 Dipole moment (field-independent basis, Debye):
    X=             -1.9541    Y=              0.0780    Z=             -0.4769  Tot=              2.0130
 Quadrupole moment (field-independent basis, Debye-Ang):
   XX=            -55.8756   YY=            -50.5435   ZZ=            -54.0471
   XY=             -2.5887   XZ=             -1.2151   YZ=              3.0102

  Exact polarizability:  81.144  -2.021  70.660  -0.845   2.323  66.308
 Approx polarizability: 108.439  -2.270 106.970  -1.039   0.285 105.691

                      1                      2                      3
                      A                      A                      A
 Frequencies --     86.2856               148.6705               207.7128
 Red. masses --      2.3689                 3.1593                 1.2888
 Frc consts  --      0.0104                 0.0411                 0.0328
 IR Inten    --      0.2769                 0.0860                 0.2230

                      4                      5                      6
                      A                      A                      A
 Frequencies --    301.4722               348.1822               448.7319
 Red. masses --      1.7159                 3.0176                 2.0838
 Frc consts  --      0.0919                 0.2155                 0.2472
 IR Inten    --      0.2133                 0.4670                 0.1601

                      7                      8                      9
                      A                      A                      A
 Frequencies --    551.7820               590.6305               616.2821
 Red. masses --      4.2947                 4.1577                 3.7027
 Frc consts  --      0.7704                 0.8545                 0.8286
 IR Inten    --      3.7879                 9.9916                 9.6124

                     10                     11                     12
                      A                      A                      A
 Frequencies --    714.3679               740.6304               782.2218
 Red. masses --      5.2724                 4.2558                 1.2940
 Frc consts  --      1.5853                 1.3754                 0.4665
 IR Inten    --      5.2592                15.3109                 1.8861

                     13                     14                     15
                      A                      A                      A
 Frequencies --    831.8753               856.2807               877.5215
 Red. masses --      2.7807                 4.1009                 1.9188
 Frc consts  --      1.1338                 1.7716                 0.8705
 IR Inten    --      2.5996                58.9830                 8.0175

                     16                     17                     18
                      A                      A                      A
 Frequencies --    911.6625               926.6919               972.0642
 Red. masses --      2.3768                 2.0076                 2.1471
 Frc consts  --      1.1639                 1.0158                 1.1954
 IR Inten    --      5.3869                19.6472                 9.8385

                     19                     20                     21
                      A                      A                      A
 Frequencies --    989.1032               999.8726              1024.3112
 Red. masses --      2.0427                 2.4895                 2.8640
 Frc consts  --      1.1774                 1.4664                 1.7704
 IR Inten    --     10.5363                 8.4844                23.7897

                     22                     23                     24
                      A                      A                      A
 Frequencies --   1038.6796              1051.0878              1062.5736
 Red. masses --      2.1764                 2.1241                 2.3849
 Frc consts  --      1.3834                 1.3827                 1.5865
 IR Inten    --      1.3767                 1.1883                25.9278

                     25                     26                     27
                      A                      A                      A
 Frequencies --   1081.7608              1106.3357              1160.8438
 Red. masses --      3.6803                 1.7776                 1.3324
 Frc consts  --      2.5374                 1.2819                 1.0579
 IR Inten    --     58.1206                 4.7139                 1.5392

                     28                     29                     30
                      A                      A                      A
 Frequencies --   1186.9077              1226.8809              1237.8251
 Red. masses --      1.7436                 1.2212                 1.7953
 Frc consts  --      1.4472                 1.0830                 1.6207
 IR Inten    --      8.2991                 1.8293                 6.0998

                     31                     32                     33
                      A                      A                      A
 Frequencies --   1277.0317              1288.8284              1332.3550
 Red. masses --      1.4619                 2.1198                 1.5216
 Frc consts  --      1.4046                 2.0746                 1.5915
 IR Inten    --      0.1054                34.2559                 1.0606

                     34                     35                     36
                      A                      A                      A
 Frequencies --   1345.1482              1366.6210              1410.1360
 Red. masses --      1.4808                 1.4555                 1.3738
 Frc consts  --      1.5787                 1.6016                 1.6095
 IR Inten    --     10.8195                 1.8355                 5.7127

                     37                     38                     39
                      A                      A                      A
 Frequencies --   1414.6882              1478.6834              1483.8505
 Red. masses --      2.4097                 1.1632                 1.0692
 Frc consts  --      2.8414                 1.4985                 1.3871
 IR Inten    --      8.9041                 3.7828                 0.8996

                     40                     41                     42
                      A                      A                      A
 Frequencies --   1498.1656              1507.6077              3012.9746
 Red. masses --      1.0403                 1.0712                 1.0595
 Frc consts  --      1.3757                 1.4345                 5.6670
 IR Inten    --      5.4732                 1.7573                32.7075

                     43                     44                     45
                      A                      A                      A
 Frequencies --   3036.9766              3042.6290              3070.9483
 Red. masses --      1.0350                 1.1017                 1.0575
 Frc consts  --      5.6241                 6.0090                 5.8758
 IR Inten    --     22.3436                16.8925                15.8725

                     46                     47                     48
                      A                      A                      A
 Frequencies --   3106.9294              3108.1475              3129.3406
 Red. masses --      1.1019                 1.1016                 1.1084
 Frc consts  --      6.2671                 6.2703                 6.3953
 IR Inten    --     34.3738                33.9373                13.5248

                     49                     50                     51
                      A                      A                      A
 Frequencies --   3178.8833              3223.8008              3232.4306
 Red. masses --      1.0934                 1.0915                 1.0984
 Frc consts  --      6.5100                 6.6837                 6.7620
 IR Inten    --     24.8706                 3.1093                 7.3767

 - Thermochemistry -
 -------------------
 Temperature   298.150 Kelvin.  Pressure   1.00000 Atm.
 Atom     1 has atomic number  6 and mass  12.00000

 Molecular mass:   126.06808 amu.
 Principal axes and moments of inertia in atomic units:
                           1         2         3
     Eigenvalues --   507.077101350.714311389.59558
           X            0.99998   0.00057  -0.00700
           Y            0.00161   0.95153   0.30754
           Z            0.00684  -0.30754   0.95151
 This molecule is an asymmetric top.
 Rotational symmetry number  1.
 Warning -- assumption of classical behavior for rotation
           may cause significant error
 Rotational temperatures (Kelvin)      0.17081     0.06412     0.06233
 Rotational constants (GHZ):           3.55911     1.33614     1.29875
 Zero-point vibrational energy     422433.8 (Joules/Mol)
                                  100.96411 (Kcal/Mol)
 Warning -- explicit consideration of   9 degrees of freedom as
           vibrations may cause significant error
 Vibrational temperatures:    124.15   213.90   298.85   433.75   500.96
          (Kelvin)            645.62   793.89   849.78   886.69  1027.81
                             1065.60  1125.44  1196.88  1232.00  1262.56
                             1311.68  1333.30  1398.58  1423.10  1438.59
                             1473.75  1494.43  1512.28  1528.80  1556.41
                             1591.77  1670.19  1707.69  1765.21  1780.95
                             1837.36  1854.33  1916.96  1935.37  1966.26
                             2028.87  2035.42  2127.49  2134.93  2155.52
                             2169.11  4334.99  4369.53  4377.66  4418.40
                             4470.17  4471.93  4502.42  4573.70  4638.32
                             4650.74

 Zero-point correction=                           0.160897 (Hartree/Particle)
 Thermal correction to Energy=                    0.168261
 Thermal correction to Enthalpy=                  0.169206
 Thermal correction to Gibbs Free Energy=         0.128960
 Sum of electronic and zero-point Energies=           -423.018855
 Sum of electronic and thermal Energies=              -423.011490
 Sum of electronic and thermal Enthalpies=            -423.010546
 Sum of electronic and thermal Free Energies=         -423.050792

                     E (Thermal)             CV                S
                      KCal/Mol        Cal/Mol-Kelvin    Cal/Mol-Kelvin
 Total                  105.586             29.422             84.705
 Electronic               0.000              0.000              0.000
 Translational            0.889              2.981             40.409
 Rotational               0.889              2.981             28.344
 Vibrational            103.808             23.460             15.952
 Vibration     1          0.601              1.959              3.743
 Vibration     2          0.618              1.904              2.689
 Vibration     3          0.641              1.829              2.064
 Vibration     4          0.693              1.671              1.409
 Vibration     5          0.726              1.579              1.174
 Vibration     6          0.808              1.364              0.800
 Vibration     7          0.907              1.136              0.540
 Vibration     8          0.948              1.052              0.466
 Vibration     9          0.976              0.997              0.422

 Optimization completed.
    -- Stationary point found.
 Normal termination of Gaussian 09 at Tue Jan 28 10:58:10 2020.
