 Gaussian 09, Revision D.01,
 Gaussian 09:  ES64L-G09RevD.01 24-Apr-2013

 -----------------------------
 # b3lyp 6-31G(2df,p) opt Freq
 -----------------------------

 -----
 titel
 -----
 Symbolic Z-matrix:
 Charge =  0 Multiplicity = 1

 SCF Done:  E(RB3LYP) =  -423.159146385     A.U. after   14 cycles
 Optimization completed.
    -- Stationary point found.
 Normal termination of Gaussian 09 at Mon Jan 27 22:56:04 2020.

 ----------------------------------------------------------------------
 #N Geom=AllCheck Guess=TCheck SCRF=Check GenChk RB3LYP/6-31G(2df,p) Fr
 eq
 ----------------------------------------------------------------------

 Structure from the checkpoint file:  "/scratch/puck/g09_65c30917-fa9b-4279-ac62-49bd5c99eb5f/Gau-75322.chk"
 -----
 titel
 -----
 Charge =  0 Multiplicity = 1

                         Standard orientation:
 ---------------------------------------------------------------------
 Center     Atomic      Atomic             Coordinates (Angstroms)
 Number     Number       Type             X           Y           Z
 ---------------------------------------------------------------------
      1          6           0        3.270327    0.432827   -0.330432
      2          6           0        1.993047    0.030665    0.374113
      3          6           0        1.035251   -0.851747   -0.363714
      4          8           0       -0.033533   -1.284088    0.488372
      5          6           0       -0.473653    0.090778    0.656452
      6          6           0        0.700182    0.612043   -0.170742
      7          6           0       -1.842810    0.382496    0.041345
      8          6           0       -2.643292   -0.789890   -0.472567
      9          8           0       -2.224328    1.529150   -0.004380
     10          1           0        4.060660   -0.306337   -0.164095
     11          1           0        3.116037    0.518713   -1.411626
     12          1           0        3.632068    1.401948    0.028384
     13          1           0        2.072121   -0.121336    1.449403
     14          1           0        1.268449   -1.454997   -1.234171
     15          1           0       -0.500427    0.389546    1.713142
     16          1           0        0.656876    1.441520   -0.863124
     17          1           0       -2.106171   -1.277289   -1.292877
     18          1           0       -2.750414   -1.549080    0.309220
     19          1           0       -3.620623   -0.446209   -0.812919
 ---------------------------------------------------------------------

 SCF Done:  E(RB3LYP) =  -423.159146385     A.U. after    1 cycles

 The electronic state is 1-A.
 Alpha  occ. eigenvalues --  -19.14878 -19.13140 -10.27138 -10.24656 -10.24528
 Alpha  occ. eigenvalues --  -10.20339 -10.20263 -10.18952 -10.18625  -1.06353
 Alpha  occ. eigenvalues --   -1.04034  -0.84919  -0.75681  -0.72568  -0.70020
 Alpha  occ. eigenvalues --   -0.59196  -0.57983  -0.52471  -0.50638  -0.49927
 Alpha  occ. eigenvalues --   -0.47039  -0.44583  -0.43232  -0.41988  -0.41664
 Alpha  occ. eigenvalues --   -0.39761  -0.38522  -0.37443  -0.36025  -0.34591
 Alpha  occ. eigenvalues --   -0.32045  -0.28593  -0.26024  -0.23189
 Alpha virt. eigenvalues --   -0.01739   0.07268   0.10133   0.10616   0.11742
 Alpha virt. eigenvalues --    0.13339   0.13796   0.14413   0.15074   0.15958
 Alpha virt. eigenvalues --    0.16494   0.17122   0.17609   0.20398   0.22610

 Mulliken charges:
               1
     1  C   -0.424245
     2  C   -0.044168
     3  C    0.086749
     4  O   -0.297974
     5  C    0.005490
     6  C   -0.123077
     7  C    0.345911
     8  C   -0.473749
     9  O   -0.302608
    10  H    0.125796
    11  H    0.118691
    12  H    0.128005
    13  H    0.092695
    14  H    0.104458
    15  H    0.109730
    16  H    0.112736
    17  H    0.148924
    18  H    0.150084
    19  H    0.136552
 Sum of Mulliken charges =   0.00000

 Dipole moment (field-independent basis, Debye):
    X=              1.7482    Y=             -1.1141    Z=             -0.6612  Tot=              2.1760
 Quadrupole moment (field-independent basis, Debye-Ang):
   XX=            -51.9626   YY=            -58.7904   ZZ=            -50.7888
   XY=              5.6469   XZ=             -0.7426   YZ=              1.6321

  Exact polarizability:  95.087   0.008  71.329   0.226   2.048  62.461
 Approx polarizability: 114.733  -5.739 119.619  -0.252   1.992  95.898

                      1                      2                      3
                      A                      A                      A
 Frequencies --     12.2064               116.3608               140.3609
 Red. masses --      3.6973                 3.0416                 1.4126
 Frc consts  --      0.0003                 0.0243                 0.0164
 IR Inten    --      5.0618                 1.8412                 1.0134

                      4                      5                      6
                      A                      A                      A
 Frequencies --    153.9585               214.5913               249.2703
 Red. masses --      1.7273                 1.1933                 2.7897
 Frc consts  --      0.0241                 0.0324                 0.1021
 IR Inten    --      2.3171                 0.7253                 0.9508

                      7                      8                      9
                      A                      A                      A
 Frequencies --    287.8037               318.2548               448.4687
 Red. masses --      3.3652                 3.1738                 4.2950
 Frc consts  --      0.1642                 0.1894                 0.5090
 IR Inten    --      2.9496                 2.6227                 5.4747

                     10                     11                     12
                      A                      A                      A
 Frequencies --    495.6515               515.0583               577.6846
 Red. masses --      2.8567                 5.9002                 2.9744
 Frc consts  --      0.4135                 0.9222                 0.5848
 IR Inten    --     12.6836                 0.4369                11.6078

                     13                     14                     15
                      A                      A                      A
 Frequencies --    776.6337               788.1111               828.9098
 Red. masses --      1.8032                 2.9786                 3.8923
 Frc consts  --      0.6408                 1.0900                 1.5757
 IR Inten    --      8.4094                 7.1413                 9.9784

                     16                     17                     18
                      A                      A                      A
 Frequencies --    862.5446               893.8322               957.1833
 Red. masses --      1.9021                 1.8639                 2.2471
 Frc consts  --      0.8338                 0.8774                 1.2130
 IR Inten    --      3.3486                 4.2248                15.0247

                     19                     20                     21
                      A                      A                      A
 Frequencies --    977.2717              1008.0683              1012.5865
 Red. masses --      2.1512                 1.8271                 2.1428
 Frc consts  --      1.2105                 1.0939                 1.2945
 IR Inten    --     26.9775                31.2266                34.8210

                     22                     23                     24
                      A                      A                      A
 Frequencies --   1029.9786              1035.0141              1064.9020
 Red. masses --      1.5627                 1.7488                 2.2016
 Frc consts  --      0.9768                 1.1038                 1.4710
 IR Inten    --     16.0115                 1.2192                11.6893

                     25                     26                     27
                      A                      A                      A
 Frequencies --   1082.5035              1113.0593              1145.7032
 Red. masses --      1.9288                 2.1951                 1.6880
 Frc consts  --      1.3317                 1.6023                 1.3055
 IR Inten    --     12.2462                 3.8569                15.4401

                     28                     29                     30
                      A                      A                      A
 Frequencies --   1196.3483              1215.1083              1232.8443
 Red. masses --      1.3239                 2.1423                 2.3751
 Frc consts  --      1.1164                 1.8637                 2.1269
 IR Inten    --      0.6866                 3.3343                65.3808

                     31                     32                     33
                      A                      A                      A
 Frequencies --   1259.1590              1287.7007              1332.7232
 Red. masses --      1.5872                 1.5720                 1.5579
 Frc consts  --      1.4827                 1.5358                 1.6303
 IR Inten    --     19.3637                 3.2533                 5.8192

                     34                     35                     36
                      A                      A                      A
 Frequencies --   1380.8801              1416.1115              1417.9621
 Red. masses --      1.3368                 1.9686                 1.4464
 Frc consts  --      1.5019                 2.3260                 1.7134
 IR Inten    --     38.3508                 2.1757                 1.3016

                     37                     38                     39
                      A                      A                      A
 Frequencies --   1450.2145              1464.9540              1492.9539
 Red. masses --      1.0568                 1.0525                 1.0471
 Frc consts  --      1.3095                 1.3308                 1.3751
 IR Inten    --     14.6695                 9.1570                 2.4375

                     40                     41                     42
                      A                      A                      A
 Frequencies --   1502.9640              1811.1427              3021.6093
 Red. masses --      1.0733                11.2724                 1.0831
 Frc consts  --      1.4284                21.7858                 5.8264
 IR Inten    --      4.9952               147.1827                35.0244

                     43                     44                     45
                      A                      A                      A
 Frequencies --   3030.9188              3045.1052              3094.6356
 Red. masses --      1.0351                 1.0353                 1.0989
 Frc consts  --      5.6026                 5.6562                 6.2004
 IR Inten    --     29.0768                 0.5661                12.4091

                     46                     47                     48
                      A                      A                      A
 Frequencies --   3099.5308              3105.9181              3121.2870
 Red. masses --      1.1019                 1.0969                 1.0901
 Frc consts  --      6.2370                 6.2346                 6.2572
 IR Inten    --     19.5641                 4.3237                26.6219

                     49                     50                     51
                      A                      A                      A
 Frequencies --   3156.9634              3173.3473              3211.4704
 Red. masses --      1.1043                 1.0917                 1.0955
 Frc consts  --      6.4846                 6.4773                 6.6569
 IR Inten    --     12.0183                17.7366                 3.5516

 - Thermochemistry -
 -------------------
 Temperature   298.150 Kelvin.  Pressure   1.00000 Atm.
 Atom     1 has atomic number  6 and mass  12.00000

 Molecular mass:   126.06808 amu.
 Principal axes and moments of inertia in atomic units:
                           1         2         3
     Eigenvalues --   455.543161790.367182043.32795
           X            0.99944   0.03348   0.00024
           Y           -0.03347   0.99907   0.02731
           Z            0.00067  -0.02731   0.99963
 This molecule is an asymmetric top.
 Rotational symmetry number  1.
 Warning -- assumption of classical behavior for rotation
           may cause significant error
 Rotational temperatures (Kelvin)      0.19013     0.04838     0.04239
 Rotational constants (GHZ):           3.96173     1.00803     0.88324
 Zero-point vibrational energy     410485.5 (Joules/Mol)
                                   98.10840 (Kcal/Mol)
 Warning -- explicit consideration of  12 degrees of freedom as
           vibrations may cause significant error
 Vibrational temperatures:     17.56   167.42   201.95   221.51   308.75
          (Kelvin)            358.64   414.08   457.90   645.25   713.13
                              741.05   831.16  1117.40  1133.91  1192.61
                             1241.01  1286.02  1377.17  1406.07  1450.38
                             1456.88  1481.91  1489.15  1532.15  1557.48
                             1601.44  1648.41  1721.28  1748.27  1773.79
                             1811.65  1852.71  1917.49  1986.78  2037.47
                             2040.13  2086.53  2107.74  2148.02  2162.43
                             2605.83  4347.42  4360.81  4381.22  4452.48
                             4459.53  4468.72  4490.83  4542.16  4565.73
                             4620.58

 Zero-point correction=                           0.156346 (Hartree/Particle)
 Thermal correction to Energy=                    0.165634
 Thermal correction to Enthalpy=                  0.166579
 Thermal correction to Gibbs Free Energy=         0.120641
 Sum of electronic and zero-point Energies=           -423.002801
 Sum of electronic and thermal Energies=              -422.993512
 Sum of electronic and thermal Enthalpies=            -422.992568
 Sum of electronic and thermal Free Energies=         -423.038505

                     E (Thermal)             CV                S
                      KCal/Mol        Cal/Mol-Kelvin    Cal/Mol-Kelvin
 Total                  103.937             33.632             96.684
 Electronic               0.000              0.000              0.000
 Translational            0.889              2.981             40.409
 Rotational               0.889              2.981             28.901
 Vibrational            102.160             27.670             27.374
 Vibration     1          0.593              1.987              7.615
 Vibration     2          0.608              1.936              3.160
 Vibration     3          0.615              1.913              2.799
 Vibration     4          0.619              1.898              2.623
 Vibration     5          0.645              1.819              2.004
 Vibration     6          0.662              1.764              1.736
 Vibration     7          0.685              1.696              1.487
 Vibration     8          0.705              1.639              1.319
 Vibration     9          0.807              1.364              0.800
 Vibration    10          0.851              1.260              0.669
 Vibration    11          0.870              1.217              0.622
 Vibration    12          0.934              1.080              0.490

 Normal termination of Gaussian 09 at Mon Jan 27 23:37:21 2020.
