 Gaussian 09, Revision D.01,
 Gaussian 09:  ES64L-G09RevD.01 24-Apr-2013

 -----------------------------
 # b3lyp 6-31G(2df,p) opt Freq
 -----------------------------

 -----
 titel
 -----
 Symbolic Z-matrix:
 Charge =  0 Multiplicity = 1

 SCF Done:  E(RB3LYP) =  -423.120226681     A.U. after   12 cycles
 Optimization completed.
    -- Stationary point found.
 Normal termination of Gaussian 09 at Tue Jan 28 01:55:38 2020.

 ----------------------------------------------------------------------
 #N Geom=AllCheck Guess=TCheck SCRF=Check GenChk RB3LYP/6-31G(2df,p) Fr
 eq
 ----------------------------------------------------------------------

 Structure from the checkpoint file:  "/scratch/puck/g09_2fa4f1bb-e938-40e8-84a3-e3a70054ad49/Gau-57421.chk"
 -----
 titel
 -----
 Charge =  0 Multiplicity = 1

                         Standard orientation:
 ---------------------------------------------------------------------
 Center     Atomic      Atomic             Coordinates (Angstroms)
 Number     Number       Type             X           Y           Z
 ---------------------------------------------------------------------
      1          8           0        2.695268   -0.076191   -0.643964
      2          6           0        1.509948   -0.732403   -0.299953
      3          6           0        1.206465   -0.818577    1.167665
      4          6           0        0.379809    0.067613    0.280840
      5          6           0        0.252283    1.584679    0.284435
      6          8           0       -1.138140    1.484936   -0.115729
      7          6           0       -1.090319    0.055605   -0.057172
      8          6           0       -2.215444   -0.746112    0.507935
      9          6           0       -1.888524   -0.802158   -0.981106
     10          1           0        2.561883    0.354024   -1.495691
     11          1           0        1.255905   -1.593248   -0.920069
     12          1           0        0.765402   -1.733930    1.549407
     13          1           0        1.907826   -0.332917    1.838685
     14          1           0        0.360207    2.072850    1.260440
     15          1           0        0.856953    2.120577   -0.457388
     16          1           0       -1.982140   -1.608560    1.124684
     17          1           0       -3.106327   -0.202568    0.803659
     18          1           0       -1.437167   -1.704388   -1.382086
     19          1           0       -2.564873   -0.293689   -1.659956
 ---------------------------------------------------------------------

 SCF Done:  E(RB3LYP) =  -423.120226681     A.U. after    1 cycles

 The electronic state is 1-A.
 Alpha  occ. eigenvalues --  -19.14987 -19.13477 -10.24079 -10.24002 -10.23188
 Alpha  occ. eigenvalues --  -10.20010 -10.18983 -10.18448 -10.18332  -1.04333
 Alpha  occ. eigenvalues --   -1.03267  -0.85618  -0.84149  -0.69027  -0.63208
 Alpha  occ. eigenvalues --   -0.61026  -0.59802  -0.53922  -0.52373  -0.51175
 Alpha  occ. eigenvalues --   -0.48402  -0.46294  -0.42682  -0.42052  -0.39477
 Alpha  occ. eigenvalues --   -0.37004  -0.36707  -0.35757  -0.34573  -0.32522
 Alpha  occ. eigenvalues --   -0.28932  -0.27934  -0.26522  -0.22272
 Alpha virt. eigenvalues --    0.06712   0.07795   0.08816   0.10478   0.11093
 Alpha virt. eigenvalues --    0.12621   0.12982   0.14388   0.16664   0.17548
 Alpha virt. eigenvalues --    0.18541   0.19726   0.21066   0.23242   0.23522

 Mulliken charges:
               1
     1  O   -0.417717
     2  C    0.036306
     3  C   -0.371704
     4  C    0.168800
     5  C   -0.137161
     6  O   -0.319491
     7  C    0.414118
     8  C   -0.334340
     9  C   -0.343955
    10  H    0.289906
    11  H    0.087664
    12  H    0.117005
    13  H    0.128097
    14  H    0.108426
    15  H    0.096832
    16  H    0.113229
    17  H    0.125700
    18  H    0.112595
    19  H    0.125690
 Sum of Mulliken charges =   0.00000

 Dipole moment (field-independent basis, Debye):
    X=              0.1969    Y=             -0.9004    Z=             -0.5037  Tot=              1.0503
 Quadrupole moment (field-independent basis, Debye-Ang):
   XX=            -58.3935   YY=            -53.1387   ZZ=            -49.2488
   XY=              3.8881   XZ=             -1.9019   YZ=             -0.3105

  Exact polarizability:  83.681   4.244  73.289   0.644  -0.534  70.802
 Approx polarizability: 111.005   3.345 106.837   0.108  -1.741 105.638

                      1                      2                      3
                      A                      A                      A
 Frequencies --     77.0175               130.2253               163.4719
 Red. masses --      3.3760                 3.4089                 3.4793
 Frc consts  --      0.0118                 0.0341                 0.0548
 IR Inten    --      1.2922                 2.2064                 3.1308

                      4                      5                      6
                      A                      A                      A
 Frequencies --    220.4204               267.6272               321.7964
 Red. masses --      2.5749                 2.6466                 1.2274
 Frc consts  --      0.0737                 0.1117                 0.0749
 IR Inten    --      0.3009                 4.9284               102.3454

                      7                      8                      9
                      A                      A                      A
 Frequencies --    354.2610               430.8640               470.6110
 Red. masses --      2.2052                 2.3951                 3.3113
 Frc consts  --      0.1631                 0.2620                 0.4321
 IR Inten    --     16.0964                 0.1551                 7.6642

                     10                     11                     12
                      A                      A                      A
 Frequencies --    526.1149               552.8268               628.0171
 Red. masses --      2.9437                 3.9525                 3.3232
 Frc consts  --      0.4801                 0.7117                 0.7722
 IR Inten    --      0.0714                 1.7900                 5.4540

                     13                     14                     15
                      A                      A                      A
 Frequencies --    755.8667               829.6230               857.7306
 Red. masses --      1.0519                 1.9754                 1.3770
 Frc consts  --      0.3541                 0.8011                 0.5969
 IR Inten    --      1.3844                13.1231                 4.9593

                     16                     17                     18
                      A                      A                      A
 Frequencies --    873.7738               874.1447               912.8161
 Red. masses --      1.9086                 2.4204                 1.9030
 Frc consts  --      0.8585                 1.0897                 0.9343
 IR Inten    --      0.2288                21.1193                13.8965

                     19                     20                     21
                      A                      A                      A
 Frequencies --    960.4027               969.3105               997.5509
 Red. masses --      3.3553                 2.5040                 4.1804
 Frc consts  --      1.8234                 1.3861                 2.4510
 IR Inten    --     20.9555                 2.5775                45.8611

                     22                     23                     24
                      A                      A                      A
 Frequencies --   1022.6419              1037.8558              1046.7026
 Red. masses --      3.0486                 1.4751                 1.4944
 Frc consts  --      1.8784                 0.9362                 0.9647
 IR Inten    --     48.7608                 2.1736                27.7381

                     25                     26                     27
                      A                      A                      A
 Frequencies --   1062.3291              1090.8931              1109.4948
 Red. masses --      1.4899                 2.1436                 1.7290
 Frc consts  --      0.9907                 1.5030                 1.2540
 IR Inten    --      0.1937                 7.4610                21.6597

                     28                     29                     30
                      A                      A                      A
 Frequencies --   1143.3455              1157.7443              1185.2360
 Red. masses --      1.1603                 1.8788                 1.3792
 Frc consts  --      0.8936                 1.4838                 1.1415
 IR Inten    --      0.9599                11.0205                 7.7039

                     31                     32                     33
                      A                      A                      A
 Frequencies --   1190.9336              1230.2441              1295.2959
 Red. masses --      2.1005                 2.5026                 1.2285
 Frc consts  --      1.7553                 2.2317                 1.2144
 IR Inten    --     42.5588                31.0423                76.2048

                     34                     35                     36
                      A                      A                      A
 Frequencies --   1309.2803              1354.1330              1393.9742
 Red. masses --      1.7735                 2.0304                 1.6219
 Frc consts  --      1.7912                 2.1936                 1.8569
 IR Inten    --      1.6539                19.2528                10.7157

                     37                     38                     39
                      A                      A                      A
 Frequencies --   1436.7297              1446.6674              1483.6228
 Red. masses --      1.2665                 1.0965                 1.5792
 Frc consts  --      1.5403                 1.3520                 2.0480
 IR Inten    --      2.7438                 2.1396                15.0598

                     40                     41                     42
                      A                      A                      A
 Frequencies --   1513.5715              1529.0770              3014.7139
 Red. masses --      2.1606                 1.3196                 1.0546
 Frc consts  --      2.9163                 1.8178                 5.6470
 IR Inten    --     28.4762                 4.4627                73.9701

                     43                     44                     45
                      A                      A                      A
 Frequencies --   3057.4034              3089.3562              3124.5037
 Red. masses --      1.1113                 1.0867                 1.0508
 Frc consts  --      6.1207                 6.1106                 6.0441
 IR Inten    --     38.9028                28.6047                12.5072

                     46                     47                     48
                      A                      A                      A
 Frequencies --   3126.1233              3126.9325              3208.0467
 Red. masses --      1.0546                 1.0580                 1.1175
 Frc consts  --      6.0724                 6.0951                 6.7763
 IR Inten    --      9.0525                 5.1406                 0.1257

                     49                     50                     51
                      A                      A                      A
 Frequencies --   3215.5079              3222.3709              3799.2107
 Red. masses --      1.1165                 1.1149                 1.0661
 Frc consts  --      6.8016                 6.8207                 9.0667
 IR Inten    --      4.2986                10.1613                19.7900

 - Thermochemistry -
 -------------------
 Temperature   298.150 Kelvin.  Pressure   1.00000 Atm.
 Atom     1 has atomic number  8 and mass  15.99491

 Molecular mass:   126.06808 amu.
 Principal axes and moments of inertia in atomic units:
                           1         2         3
     Eigenvalues --   617.151431408.301121609.38012
           X            0.99956   0.02933   0.00461
           Y           -0.02934   0.99957   0.00292
           Z           -0.00452  -0.00305   0.99999
 This molecule is an asymmetric top.
 Rotational symmetry number  1.
 Warning -- assumption of classical behavior for rotation
           may cause significant error
 Rotational temperatures (Kelvin)      0.14034     0.06150     0.05382
 Rotational constants (GHZ):           2.92431     1.28150     1.12139
 Zero-point vibrational energy     413898.4 (Joules/Mol)
                                   98.92410 (Kcal/Mol)
 Warning -- explicit consideration of  11 degrees of freedom as
           vibrations may cause significant error
 Vibrational temperatures:    110.81   187.36   235.20   317.14   385.06
          (Kelvin)            462.99   509.70   619.92   677.10   756.96
                              795.39   903.58  1087.52  1193.64  1234.08
                             1257.16  1257.70  1313.34  1381.80  1394.62
                             1435.25  1471.35  1493.24  1505.97  1528.45
                             1569.55  1596.31  1645.02  1665.73  1705.29
                             1713.49  1770.04  1863.64  1883.76  1948.29
                             2005.62  2067.13  2081.43  2134.60  2177.69
                             2200.00  4337.50  4398.92  4444.89  4495.46
                             4497.79  4498.95  4615.66  4626.39  4636.27
                             5466.21

 Zero-point correction=                           0.157646 (Hartree/Particle)
 Thermal correction to Energy=                    0.166213
 Thermal correction to Enthalpy=                  0.167158
 Thermal correction to Gibbs Free Energy=         0.124457
 Sum of electronic and zero-point Energies=           -422.962581
 Sum of electronic and thermal Energies=              -422.954013
 Sum of electronic and thermal Enthalpies=            -422.953069
 Sum of electronic and thermal Free Energies=         -422.995770

                     E (Thermal)             CV                S
                      KCal/Mol        Cal/Mol-Kelvin    Cal/Mol-Kelvin
 Total                  104.300             33.067             89.871
 Electronic               0.000              0.000              0.000
 Translational            0.889              2.981             40.409
 Rotational               0.889              2.981             28.727
 Vibrational            102.523             27.105             20.735
 Vibration     1          0.599              1.964              3.965
 Vibration     2          0.612              1.923              2.943
 Vibration     3          0.623              1.887              2.509
 Vibration     4          0.647              1.810              1.956
 Vibration     5          0.673              1.733              1.611
 Vibration     6          0.707              1.632              1.301
 Vibration     7          0.730              1.567              1.147
 Vibration     8          0.792              1.403              0.856
 Vibration     9          0.828              1.315              0.736
 Vibration    10          0.881              1.192              0.596
 Vibration    11          0.908              1.134              0.538

 Optimization completed.
    -- Stationary point found.
 Normal termination of Gaussian 09 at Tue Jan 28 02:42:07 2020.
