 Gaussian 09, Revision D.01,
 Gaussian 09:  ES64L-G09RevD.01 24-Apr-2013

 -----------------------------
 # b3lyp 6-31G(2df,p) opt Freq
 -----------------------------

 -----
 titel
 -----
 Symbolic Z-matrix:
 Charge =  0 Multiplicity = 1

 SCF Done:  E(RB3LYP) =  -423.173920082     A.U. after   14 cycles
 Optimization completed.
    -- Stationary point found.
 Normal termination of Gaussian 09 at Mon Jan 27 22:14:18 2020.

 ----------------------------------------------------------------------
 #N Geom=AllCheck Guess=TCheck SCRF=Check GenChk RB3LYP/6-31G(2df,p) Fr
 eq
 ----------------------------------------------------------------------

 Structure from the checkpoint file:  "/scratch/puck/g09_5e8936cb-eba7-4119-865e-a7f598a6b7f1/Gau-28534.chk"
 -----
 titel
 -----
 Charge =  0 Multiplicity = 1

                         Standard orientation:
 ---------------------------------------------------------------------
 Center     Atomic      Atomic             Coordinates (Angstroms)
 Number     Number       Type             X           Y           Z
 ---------------------------------------------------------------------
      1          6           0        2.458307   -1.152684   -0.302913
      2          6           0        1.118793   -0.542249   -0.651135
      3          6           0       -0.040303   -0.699756    0.314318
      4          6           0       -1.468344   -0.608650   -0.230186
      5          8           0       -2.469717   -0.773026    0.770201
      6          6           0       -1.547494    0.798485   -0.783549
      7          6           0       -0.420773    1.483908   -0.577357
      8          6           0        0.613682    0.661030    0.115063
      9          8           0        1.485863    1.262460    1.019666
     10          1           0        2.476675   -2.219390   -0.552070
     11          1           0        3.267140   -0.663713   -0.855601
     12          1           0        2.674529   -1.042234    0.762095
     13          1           0        0.869491   -0.555535   -1.710512
     14          1           0        0.131584   -1.265282    1.224172
     15          1           0       -1.625299   -1.341936   -1.038950
     16          1           0       -2.517837   -1.710517    0.984377
     17          1           0       -2.427359    1.152151   -1.307348
     18          1           0       -0.223809    2.503054   -0.891306
     19          1           0        0.962518    1.587428    1.760762
 ---------------------------------------------------------------------

 SCF Done:  E(RB3LYP) =  -423.173920083     A.U. after    1 cycles

 The electronic state is 1-A.
 Alpha  occ. eigenvalues --  -19.14477 -19.13341 -10.23527 -10.23511 -10.19130
 Alpha  occ. eigenvalues --  -10.18298 -10.18014 -10.17851 -10.17328  -1.03075
 Alpha  occ. eigenvalues --   -1.01472  -0.87470  -0.77534  -0.69924  -0.68662
 Alpha  occ. eigenvalues --   -0.57804  -0.57598  -0.55081  -0.51590  -0.50463
 Alpha  occ. eigenvalues --   -0.46721  -0.43949  -0.41375  -0.40508  -0.39321
 Alpha  occ. eigenvalues --   -0.38101  -0.37455  -0.35911  -0.33427  -0.31204
 Alpha  occ. eigenvalues --   -0.30232  -0.26342  -0.25831  -0.23178
 Alpha virt. eigenvalues --    0.00688   0.08465   0.09096   0.11602   0.12071
 Alpha virt. eigenvalues --    0.13323   0.14403   0.15971   0.16632   0.17371
 Alpha virt. eigenvalues --    0.17945   0.19978   0.20903   0.22312   0.23264

 Mulliken charges:
               1
     1  C   -0.417321
     2  C   -0.048342
     3  C   -0.189644
     4  C    0.065650
     5  O   -0.437708
     6  C   -0.085218
     7  C   -0.166564
     8  C    0.381110
     9  O   -0.471328
    10  H    0.111736
    11  H    0.121432
    12  H    0.128535
    13  H    0.082714
    14  H    0.083455
    15  H    0.073222
    16  H    0.279822
    17  H    0.101919
    18  H    0.101723
    19  H    0.284809
 Sum of Mulliken charges =   0.00000

 Dipole moment (field-independent basis, Debye):
    X=             -0.2655    Y=             -1.1009    Z=             -0.0562  Tot=              1.1338
 Quadrupole moment (field-independent basis, Debye-Ang):
   XX=            -58.4229   YY=            -48.0317   ZZ=            -50.3664
   XY=              0.9670   XZ=              0.9823   YZ=             -0.4966

  Exact polarizability:  90.730   1.086  77.271   1.877  -1.920  64.193
 Approx polarizability: 128.921  10.297 115.498   2.463  -0.501  98.906

                      1                      2                      3
                      A                      A                      A
 Frequencies --    127.1932               180.4614               190.8395
 Red. masses --      4.3756                 1.2247                 2.7058
 Frc consts  --      0.0417                 0.0235                 0.0581
 IR Inten    --      0.9632                 0.6899                 1.5365

                      4                      5                      6
                      A                      A                      A
 Frequencies --    219.3019               272.9381               290.9020
 Red. masses --      2.5209                 1.5688                 1.6912
 Frc consts  --      0.0714                 0.0689                 0.0843
 IR Inten    --      1.1646                65.9993                40.7298

                      7                      8                      9
                      A                      A                      A
 Frequencies --    325.1606               353.4678               410.2757
 Red. masses --      1.6038                 1.9119                 3.4577
 Frc consts  --      0.0999                 0.1407                 0.3429
 IR Inten    --     23.6569                68.3868                 4.1707

                     10                     11                     12
                      A                      A                      A
 Frequencies --    419.8488               488.2197               588.1849
 Red. masses --      3.5076                 3.4123                 3.5484
 Frc consts  --      0.3643                 0.4792                 0.7233
 IR Inten    --     10.1021                 0.9675                 6.8440

                     13                     14                     15
                      A                      A                      A
 Frequencies --    651.4421               726.0506               769.3568
 Red. masses --      4.9957                 2.5760                 3.0494
 Frc consts  --      1.2491                 0.8001                 1.0635
 IR Inten    --     10.3321                 3.4735                 8.0216

                     16                     17                     18
                      A                      A                      A
 Frequencies --    807.1016               853.8510               893.7776
 Red. masses --      1.9995                 3.2532                 2.0489
 Frc consts  --      0.7674                 1.3974                 0.9644
 IR Inten    --     12.2078                12.7006                 7.5015

                     19                     20                     21
                      A                      A                      A
 Frequencies --    944.8393               956.4654               974.1409
 Red. masses --      1.9315                 1.5847                 1.4823
 Frc consts  --      1.0159                 0.8542                 0.8288
 IR Inten    --      3.9319                22.8374                 0.1596

                     22                     23                     24
                      A                      A                      A
 Frequencies --   1028.1461              1049.9039              1053.3277
 Red. masses --      1.4979                 1.8191                 3.4438
 Frc consts  --      0.9329                 1.1814                 2.2512
 IR Inten    --      9.8006                11.8754                63.3150

                     25                     26                     27
                      A                      A                      A
 Frequencies --   1084.1870              1114.9607              1140.6906
 Red. masses --      2.4387                 1.3032                 1.7689
 Frc consts  --      1.6889                 0.9545                 1.3561
 IR Inten    --     25.3347                 5.5327                 9.5090

                     28                     29                     30
                      A                      A                      A
 Frequencies --   1144.5823              1216.8978              1225.2298
 Red. masses --      1.7771                 1.1509                 1.7874
 Frc consts  --      1.3717                 1.0041                 1.5809
 IR Inten    --     26.0833                45.9529                21.9030

                     31                     32                     33
                      A                      A                      A
 Frequencies --   1249.1782              1278.9078              1312.3235
 Red. masses --      1.9008                 1.6817                 1.4558
 Frc consts  --      1.7475                 1.6206                 1.4771
 IR Inten    --     30.8768                97.3178                40.5581

                     34                     35                     36
                      A                      A                      A
 Frequencies --   1339.5938              1374.1792              1410.6801
 Red. masses --      1.3722                 1.8852                 1.4506
 Frc consts  --      1.4508                 2.0975                 1.7008
 IR Inten    --      8.6806                25.2905                 6.0539

                     37                     38                     39
                      A                      A                      A
 Frequencies --   1414.8223              1446.7407              1491.2399
 Red. masses --      1.4399                 2.3102                 1.0540
 Frc consts  --      1.6981                 2.8489                 1.3810
 IR Inten    --      4.2724                17.0142                 2.1157

                     40                     41                     42
                      A                      A                      A
 Frequencies --   1501.5539              1663.6133              2959.1754
 Red. masses --      1.0794                 6.6407                 1.0820
 Frc consts  --      1.4338                10.8285                 5.5822
 IR Inten    --      8.3368                 4.0828                52.8714

                     43                     44                     45
                      A                      A                      A
 Frequencies --   3034.9086              3094.1293              3115.2380
 Red. masses --      1.0373                 1.1010                 1.0911
 Frc consts  --      5.6291                 6.2101                 6.2387
 IR Inten    --     37.2453                22.8133                 0.8252

                     46                     47                     48
                      A                      A                      A
 Frequencies --   3131.9486              3171.8606              3190.0548
 Red. masses --      1.0958                 1.0902                 1.0860
 Frc consts  --      6.3329                 6.4624                 6.5112
 IR Inten    --     26.5838                 8.5844                 5.9778

                     49                     50                     51
                      A                      A                      A
 Frequencies --   3216.8488              3794.5136              3810.1534
 Red. masses --      1.1035                 1.0661                 1.0661
 Frc consts  --      6.7279                 9.0443                 9.1189
 IR Inten    --     14.2972                21.4564                15.7682

 - Thermochemistry -
 -------------------
 Temperature   298.150 Kelvin.  Pressure   1.00000 Atm.
 Atom     1 has atomic number  6 and mass  12.00000

 Molecular mass:   126.06808 amu.
 Principal axes and moments of inertia in atomic units:
                           1         2         3
     Eigenvalues --   666.599401364.609711606.79075
           X            0.99945  -0.03309   0.00323
           Y            0.03312   0.99938  -0.01173
           Z           -0.00284   0.01183   0.99993
 This molecule is an asymmetric top.
 Rotational symmetry number  1.
 Warning -- assumption of classical behavior for rotation
           may cause significant error
 Rotational temperatures (Kelvin)      0.12993     0.06347     0.05390
 Rotational constants (GHZ):           2.70738     1.32253     1.12320
 Zero-point vibrational energy     415722.7 (Joules/Mol)
                                   99.36011 (Kcal/Mol)
 Warning -- explicit consideration of  12 degrees of freedom as
           vibrations may cause significant error
 Vibrational temperatures:    183.00   259.64   274.58   315.53   392.70
          (Kelvin)            418.54   467.83   508.56   590.29   604.07
                              702.44   846.27   937.28  1044.62  1106.93
                             1161.24  1228.50  1285.94  1359.41  1376.14
                             1401.57  1479.27  1510.58  1515.50  1559.90
                             1604.18  1641.20  1646.80  1750.84  1762.83
                             1797.29  1840.06  1888.14  1927.37  1977.13
                             2029.65  2035.61  2081.53  2145.56  2160.40
                             2393.57  4257.59  4366.55  4451.76  4482.13
                             4506.17  4563.59  4589.77  4628.32  5459.45
                             5481.95

 Zero-point correction=                           0.158340 (Hartree/Particle)
 Thermal correction to Energy=                    0.167132
 Thermal correction to Enthalpy=                  0.168076
 Thermal correction to Gibbs Free Energy=         0.125500
 Sum of electronic and zero-point Energies=           -423.015580
 Sum of electronic and thermal Energies=              -423.006788
 Sum of electronic and thermal Enthalpies=            -423.005844
 Sum of electronic and thermal Free Energies=         -423.048421

                     E (Thermal)             CV                S
                      KCal/Mol        Cal/Mol-Kelvin    Cal/Mol-Kelvin
 Total                  104.877             34.269             89.610
 Electronic               0.000              0.000              0.000
 Translational            0.889              2.981             40.409
 Rotational               0.889              2.981             28.771
 Vibrational            103.099             28.308             20.430
 Vibration     1          0.611              1.926              2.988
 Vibration     2          0.629              1.866              2.324
 Vibration     3          0.634              1.853              2.220
 Vibration     4          0.647              1.812              1.965
 Vibration     5          0.676              1.723              1.578
 Vibration     6          0.687              1.691              1.469
 Vibration     7          0.709              1.625              1.284
 Vibration     8          0.730              1.568              1.151
 Vibration     9          0.774              1.448              0.926
 Vibration    10          0.783              1.427              0.892
 Vibration    11          0.844              1.276              0.688
 Vibration    12          0.945              1.057              0.470

 Normal termination of Gaussian 09 at Tue Jan 28 00:27:13 2020.
