 Gaussian 09, Revision D.01,
 Gaussian 09:  ES64L-G09RevD.01 24-Apr-2013

 -----------------------------
 # b3lyp 6-31G(2df,p) opt Freq
 -----------------------------

 -----
 titel
 -----
 Symbolic Z-matrix:
 Charge =  0 Multiplicity = 1

 SCF Done:  E(RB3LYP) =  -423.146972179     A.U. after   12 cycles
 Optimization completed.
    -- Stationary point found.
 Normal termination of Gaussian 09 at Mon Jan 27 18:06:25 2020.

 ----------------------------------------------------------------------
 #N Geom=AllCheck Guess=TCheck SCRF=Check GenChk RB3LYP/6-31G(2df,p) Fr
 eq
 ----------------------------------------------------------------------

 Structure from the checkpoint file:  "/scratch/puck/g09_a4f7d98f-8268-43b3-877e-11c6fc1a8a89/Gau-114848.chk"
 -----
 titel
 -----
 Charge =  0 Multiplicity = 1

                         Standard orientation:
 ---------------------------------------------------------------------
 Center     Atomic      Atomic             Coordinates (Angstroms)
 Number     Number       Type             X           Y           Z
 ---------------------------------------------------------------------
      1          6           0        0.701871    2.101291    0.168282
      2          6           0       -0.027920    0.795693   -0.042506
      3          6           0       -1.488887    0.718412    0.405450
      4          8           0       -1.836265   -0.628907    0.054067
      5          6           0       -0.627268   -1.112038   -0.485523
      6          6           0        0.058349   -0.038915   -1.378006
      7          6           0        1.441950   -0.587770   -0.958702
      8          6           0        0.594012   -0.591252    0.338012
      9          8           0        0.962709   -0.893802    1.634667
     10          1           0        0.192438    2.921453   -0.349867
     11          1           0        0.739344    2.353689    1.233592
     12          1           0        1.730832    2.064080   -0.199111
     13          1           0       -1.605585    0.869040    1.486134
     14          1           0       -2.139008    1.426548   -0.124257
     15          1           0       -0.717732   -2.150741   -0.803265
     16          1           0       -0.260292    0.282590   -2.366975
     17          1           0        1.721952   -1.562761   -1.369566
     18          1           0        2.283545    0.105314   -0.998290
     19          1           0        1.130317   -1.840061    1.699692
 ---------------------------------------------------------------------

 SCF Done:  E(RB3LYP) =  -423.146972179     A.U. after    1 cycles

 The electronic state is 1-A.
 Alpha  occ. eigenvalues --  -19.14903 -19.13246 -10.24151 -10.23111 -10.21854
 Alpha  occ. eigenvalues --  -10.20031 -10.19599 -10.18615 -10.17905  -1.04936
 Alpha  occ. eigenvalues --   -1.02644  -0.89365  -0.75848  -0.68344  -0.66155
 Alpha  occ. eigenvalues --   -0.62838  -0.58506  -0.53837  -0.52597  -0.47678
 Alpha  occ. eigenvalues --   -0.45942  -0.43730  -0.42727  -0.41027  -0.40503
 Alpha  occ. eigenvalues --   -0.38082  -0.37786  -0.33826  -0.33614  -0.32507
 Alpha  occ. eigenvalues --   -0.30584  -0.29519  -0.27647  -0.22672
 Alpha virt. eigenvalues --    0.07521   0.09250   0.11662   0.12557   0.13673
 Alpha virt. eigenvalues --    0.14769   0.15236   0.15644   0.16192   0.17510
 Alpha virt. eigenvalues --    0.17593   0.18527   0.20142   0.20842   0.21985

 Mulliken charges:
               1
     1  C   -0.510073
     2  C    0.268177
     3  C   -0.143066
     4  O   -0.281571
     5  C    0.064614
     6  C   -0.138702
     7  C   -0.333814
     8  C    0.339349
     9  O   -0.478688
    10  H    0.118875
    11  H    0.130285
    12  H    0.123710
    13  H    0.107507
    14  H    0.096668
    15  H    0.080359
    16  H    0.080140
    17  H    0.087668
    18  H    0.103066
    19  H    0.285495
 Sum of Mulliken charges =   0.00000

 Dipole moment (field-independent basis, Debye):
    X=              1.2876    Y=             -0.1856    Z=             -0.7613  Tot=              1.5073
 Quadrupole moment (field-independent basis, Debye-Ang):
   XX=            -56.9151   YY=            -47.2231   ZZ=            -54.0902
   XY=             -3.8878   XZ=             -0.2234   YZ=             -1.0141

  Exact polarizability:  73.647  -3.556  79.302  -2.290   2.533  70.451
 Approx polarizability: 108.195  -3.593 113.306  -1.522   1.970 108.844

                      1                      2                      3
                      A                      A                      A
 Frequencies --    180.0509               191.1453               220.9797
 Red. masses --      1.5540                 1.1460                 1.6813
 Frc consts  --      0.0297                 0.0247                 0.0484
 IR Inten    --     15.2555                17.8007                33.2082

                      4                      5                      6
                      A                      A                      A
 Frequencies --    243.4727               276.9939               314.4658
 Red. masses --      2.4263                 3.9938                 2.6581
 Frc consts  --      0.0847                 0.1805                 0.1549
 IR Inten    --     23.1685                18.9281                 2.7832

                      7                      8                      9
                      A                      A                      A
 Frequencies --    417.4468               462.1377               480.7816
 Red. masses --      2.2850                 2.4541                 3.5569
 Frc consts  --      0.2346                 0.3088                 0.4844
 IR Inten    --      0.4408                 1.5816                 1.7473

                     10                     11                     12
                      A                      A                      A
 Frequencies --    631.4209               661.0288               707.1698
 Red. masses --      3.5772                 3.7178                 4.7173
 Frc consts  --      0.8403                 0.9571                 1.3899
 IR Inten    --      2.5831                 4.5967                 1.6858

                     13                     14                     15
                      A                      A                      A
 Frequencies --    726.0801               768.7734               840.1330
 Red. masses --      3.9033                 3.9856                 2.9271
 Frc consts  --      1.2124                 1.3878                 1.2173
 IR Inten    --     10.7219                14.9792                 6.0026

                     16                     17                     18
                      A                      A                      A
 Frequencies --    913.2334               944.1628               957.1895
 Red. masses --      2.1706                 1.7919                 1.7795
 Frc consts  --      1.0666                 0.9412                 0.9606
 IR Inten    --      1.3386                 6.7102                 7.5919

                     19                     20                     21
                      A                      A                      A
 Frequencies --    976.2320               985.8445              1016.2876
 Red. masses --      2.4698                 1.8703                 1.8785
 Frc consts  --      1.3868                 1.0710                 1.1431
 IR Inten    --      6.6110                14.9798                13.3405

                     22                     23                     24
                      A                      A                      A
 Frequencies --   1022.3950              1074.2305              1082.2196
 Red. masses --      1.6682                 2.6297                 1.4415
 Frc consts  --      1.0274                 1.7880                 0.9947
 IR Inten    --     12.6960                66.6877                21.2764

                     25                     26                     27
                      A                      A                      A
 Frequencies --   1101.7860              1130.6557              1164.5260
 Red. masses --      1.8737                 1.6619                 1.6827
 Frc consts  --      1.3401                 1.2518                 1.3445
 IR Inten    --     30.1292                 1.6786                10.7088

                     28                     29                     30
                      A                      A                      A
 Frequencies --   1191.9616              1202.8846              1231.6639
 Red. masses --      1.4135                 1.8713                 1.6175
 Frc consts  --      1.1832                 1.5953                 1.4457
 IR Inten    --      3.8650                 2.3319                 1.3746

                     31                     32                     33
                      A                      A                      A
 Frequencies --   1241.3883              1254.5602              1288.3388
 Red. masses --      2.2322                 2.2574                 2.3108
 Frc consts  --      2.0267                 2.0934                 2.2599
 IR Inten    --      6.5344                13.2690               135.5241

                     34                     35                     36
                      A                      A                      A
 Frequencies --   1330.2892              1354.7860              1408.5355
 Red. masses --      1.9258                 1.9526                 1.7875
 Frc consts  --      2.0079                 2.1115                 2.0894
 IR Inten    --     53.0229                19.5053                15.6538

                     37                     38                     39
                      A                      A                      A
 Frequencies --   1417.2818              1491.6437              1496.1424
 Red. masses --      1.4042                 1.0468                 1.0851
 Frc consts  --      1.6619                 1.3723                 1.4310
 IR Inten    --      3.6540                 6.0482                 4.2199

                     40                     41                     42
                      A                      A                      A
 Frequencies --   1516.7927              1525.5409              3013.5222
 Red. masses --      1.0931                 1.1627                 1.0556
 Frc consts  --      1.4817                 1.5943                 5.6480
 IR Inten    --      0.7963                 8.6883                57.6742

                     43                     44                     45
                      A                      A                      A
 Frequencies --   3033.3545              3053.1696              3054.2104
 Red. masses --      1.0372                 1.1092                 1.0592
 Frc consts  --      5.6231                 6.0918                 5.8212
 IR Inten    --     36.2798                30.3072                40.0051

                     46                     47                     48
                      A                      A                      A
 Frequencies --   3092.1128              3111.1418              3123.8348
 Red. masses --      1.1005                 1.1000                 1.1040
 Frc consts  --      6.1995                 6.2731                 6.3475
 IR Inten    --     19.6992                17.4418                26.8809

                     49                     50                     51
                      A                      A                      A
 Frequencies --   3127.7398              3146.7955              3809.6903
 Red. masses --      1.0890                 1.0940                 1.0659
 Frc consts  --      6.2767                 6.3826                 9.1145
 IR Inten    --     43.9450                26.1791                31.4376

 - Thermochemistry -
 -------------------
 Temperature   298.150 Kelvin.  Pressure   1.00000 Atm.
 Atom     1 has atomic number  6 and mass  12.00000

 Molecular mass:   126.06808 amu.
 Principal axes and moments of inertia in atomic units:
                           1         2         3
     Eigenvalues --   855.98045 911.374071061.52642
           X            0.99476  -0.08522  -0.05650
           Y            0.08861   0.99423   0.06041
           Z            0.05103  -0.06510   0.99657
 This molecule is an asymmetric top.
 Rotational symmetry number  1.
 Warning -- assumption of classical behavior for rotation
           may cause significant error
 Rotational temperatures (Kelvin)      0.10119     0.09504     0.08159
 Rotational constants (GHZ):           2.10839     1.98024     1.70014
 Zero-point vibrational energy     418742.2 (Joules/Mol)
                                  100.08178 (Kcal/Mol)
 Warning -- explicit consideration of   9 degrees of freedom as
           vibrations may cause significant error
 Vibrational temperatures:    259.05   275.02   317.94   350.30   398.53
          (Kelvin)            452.45   600.61   664.91   691.74   908.47
                              951.07  1017.46  1044.67  1106.09  1208.76
                             1313.94  1358.44  1377.18  1404.58  1418.41
                             1462.21  1471.00  1545.58  1557.07  1585.22
                             1626.76  1675.49  1714.96  1730.68  1772.09
                             1786.08  1805.03  1853.63  1913.99  1949.23
                             2026.57  2039.15  2146.14  2152.61  2182.32
                             2194.91  4335.78  4364.32  4392.82  4394.32
                             4448.86  4476.23  4494.50  4500.11  4527.53
                             5481.29

 Zero-point correction=                           0.159490 (Hartree/Particle)
 Thermal correction to Energy=                    0.167341
 Thermal correction to Enthalpy=                  0.168286
 Thermal correction to Gibbs Free Energy=         0.127773
 Sum of electronic and zero-point Energies=           -422.987482
 Sum of electronic and thermal Energies=              -422.979631
 Sum of electronic and thermal Enthalpies=            -422.978687
 Sum of electronic and thermal Free Energies=         -423.019199

                     E (Thermal)             CV                S
                      KCal/Mol        Cal/Mol-Kelvin    Cal/Mol-Kelvin
 Total                  105.008             31.521             85.266
 Electronic               0.000              0.000              0.000
 Translational            0.889              2.981             40.409
 Rotational               0.889              2.981             28.206
 Vibrational            103.231             25.559             16.651
 Vibration     1          0.629              1.867              2.328
 Vibration     2          0.634              1.852              2.217
 Vibration     3          0.648              1.809              1.951
 Vibration     4          0.659              1.774              1.777
 Vibration     5          0.678              1.716              1.552
 Vibration     6          0.702              1.646              1.339
 Vibration     7          0.780              1.432              0.901
 Vibration     8          0.820              1.334              0.760
 Vibration     9          0.837              1.293              0.708

 Optimization completed.
    -- Stationary point found.
 Normal termination of Gaussian 09 at Mon Jan 27 18:50:41 2020.
