 Gaussian 09, Revision D.01,
 Gaussian 09:  ES64L-G09RevD.01 24-Apr-2013

 -----------------------------
 # b3lyp 6-31G(2df,p) opt Freq
 -----------------------------

 -----
 titel
 -----
 Symbolic Z-matrix:
 Charge =  0 Multiplicity = 1

 SCF Done:  E(RB3LYP) =  -423.141683603     A.U. after   15 cycles
 Optimization completed.
    -- Stationary point found.
 Normal termination of Gaussian 09 at Tue Jan 28 08:21:18 2020.

 ----------------------------------------------------------------------
 #N Geom=AllCheck Guess=TCheck SCRF=Check GenChk RB3LYP/6-31G(2df,p) Fr
 eq
 ----------------------------------------------------------------------

 Structure from the checkpoint file:  "/scratch/puck/g09_40280fd8-e7ce-4394-a20c-d0593a6e5471/Gau-106592.chk"
 -----
 titel
 -----
 Charge =  0 Multiplicity = 1

                         Standard orientation:
 ---------------------------------------------------------------------
 Center     Atomic      Atomic             Coordinates (Angstroms)
 Number     Number       Type             X           Y           Z
 ---------------------------------------------------------------------
      1          6           0       -2.671870   -0.631906   -0.299478
      2          8           0       -1.443869   -0.805140    0.389719
      3          6           0       -0.374364   -0.024687   -0.123121
      4          6           0       -0.560721    1.396080    0.412082
      5          8           0       -0.972020    2.317425   -0.242988
      6          6           0        0.935768   -0.662780    0.377058
      7          6           0        1.116947   -2.088880   -0.174493
      8          6           0        2.065574    0.203013    0.045476
      9          6           0        2.982357    0.922341   -0.249757
     10          1           0       -2.581385   -0.934924   -1.352313
     11          1           0       -3.402656   -1.273275    0.197672
     12          1           0       -3.022580    0.407500   -0.266296
     13          1           0       -0.394839    0.009187   -1.221723
     14          1           0       -0.363910    1.494254    1.503956
     15          1           0        0.850856   -0.724083    1.471299
     16          1           0        1.232597   -2.068966   -1.262223
     17          1           0        2.009064   -2.552845    0.252968
     18          1           0        0.244159   -2.694059    0.077730
     19          1           0        3.793652    1.559851   -0.501520
 ---------------------------------------------------------------------

 SCF Done:  E(RB3LYP) =  -423.141683603     A.U. after    1 cycles

 The electronic state is 1-A.
 Alpha  occ. eigenvalues --  -19.16252 -19.14647 -10.27254 -10.24881 -10.23444
 Alpha  occ. eigenvalues --  -10.22454 -10.18818 -10.18643 -10.18052  -1.06010
 Alpha  occ. eigenvalues --   -1.04307  -0.83068  -0.74376  -0.72397  -0.67603
 Alpha  occ. eigenvalues --   -0.63054  -0.58757  -0.53989  -0.51016  -0.49368
 Alpha  occ. eigenvalues --   -0.47601  -0.46031  -0.44213  -0.43310  -0.40860
 Alpha  occ. eigenvalues --   -0.39712  -0.38538  -0.37419  -0.36373  -0.33716
 Alpha  occ. eigenvalues --   -0.29523  -0.27585  -0.27253  -0.24270
 Alpha virt. eigenvalues --   -0.03198   0.04564   0.05084   0.09165   0.11129
 Alpha virt. eigenvalues --    0.12130   0.12501   0.13379   0.14820   0.15327
 Alpha virt. eigenvalues --    0.16358   0.17077   0.17271   0.18531   0.21112

 Mulliken charges:
               1
     1  C   -0.248666
     2  O   -0.252389
     3  C    0.057456
     4  C    0.154862
     5  O   -0.248500
     6  C   -0.183905
     7  C   -0.400527
     8  C    0.308157
     9  C   -0.455303
    10  H    0.116373
    11  H    0.133242
    12  H    0.131901
    13  H    0.091468
    14  H    0.084861
    15  H    0.118605
    16  H    0.126104
    17  H    0.127670
    18  H    0.136081
    19  H    0.202510
 Sum of Mulliken charges =   0.00000

 Dipole moment (field-independent basis, Debye):
    X=              0.1204    Y=             -1.8462    Z=              0.1253  Tot=              1.8544
 Quadrupole moment (field-independent basis, Debye-Ang):
   XX=            -48.0300   YY=            -58.5131   ZZ=            -52.8727
   XY=              4.5791   XZ=             -0.0417   YZ=              1.8562

  Exact polarizability:  93.065   9.595  81.257  -1.309  -2.311  62.002
 Approx polarizability: 124.731  18.310 119.904  -4.503 -12.774  98.907

                      1                      2                      3
                      A                      A                      A
 Frequencies --     47.8414                57.7345               100.0768
 Red. masses --      5.7277                 3.9257                 2.4937
 Frc consts  --      0.0077                 0.0077                 0.0147
 IR Inten    --      5.5606                 1.8738                 2.1134

                      4                      5                      6
                      A                      A                      A
 Frequencies --    117.3787               180.7684               196.4876
 Red. masses --      2.9861                 1.3245                 3.0830
 Frc consts  --      0.0242                 0.0255                 0.0701
 IR Inten    --      2.2778                 0.1611                 0.4948

                      7                      8                      9
                      A                      A                      A
 Frequencies --    215.8532               236.8179               282.1107
 Red. masses --      1.1431                 2.2364                 3.2846
 Frc consts  --      0.0314                 0.0739                 0.1540
 IR Inten    --      1.0219                 5.9060                 0.6427

                     10                     11                     12
                      A                      A                      A
 Frequencies --    330.1782               401.2240               412.9295
 Red. masses --      3.1127                 4.1123                 3.7787
 Frc consts  --      0.1999                 0.3900                 0.3796
 IR Inten    --      8.0255                12.1655                 7.6217

                     13                     14                     15
                      A                      A                      A
 Frequencies --    480.0154               538.2378               566.3746
 Red. masses --      5.5622                 3.6312                 3.9610
 Frc consts  --      0.7551                 0.6198                 0.7486
 IR Inten    --      4.7961                 0.1678                12.2247

                     16                     17                     18
                      A                      A                      A
 Frequencies --    638.4490               655.0810               851.8664
 Red. masses --      1.2120                 1.2342                 2.5329
 Frc consts  --      0.2911                 0.3120                 1.0829
 IR Inten    --     39.7807                41.0829                 0.7316

                     19                     20                     21
                      A                      A                      A
 Frequencies --    935.3655               942.6727              1005.3616
 Red. masses --      2.5031                 1.6480                 3.3069
 Frc consts  --      1.2903                 0.8628                 1.9693
 IR Inten    --     11.7785                 9.6739                 7.6154

                     22                     23                     24
                      A                      A                      A
 Frequencies --   1057.9535              1085.2914              1110.8487
 Red. masses --      2.8478                 1.9444                 2.4629
 Frc consts  --      1.8780                 1.3494                 1.7906
 IR Inten    --      2.5325                 2.9240                 4.9591

                     25                     26                     27
                      A                      A                      A
 Frequencies --   1128.3420              1163.6287              1187.0791
 Red. masses --      4.9659                 2.2202                 1.3067
 Frc consts  --      3.7251                 1.7712                 1.0849
 IR Inten    --    169.7865                10.8493                 1.4393

                     28                     29                     30
                      A                      A                      A
 Frequencies --   1219.5187              1266.6730              1312.1865
 Red. masses --      1.4993                 1.4444                 1.3198
 Frc consts  --      1.3137                 1.3654                 1.3389
 IR Inten    --     16.1871                 7.3401                 9.6565

                     31                     32                     33
                      A                      A                      A
 Frequencies --   1335.6623              1369.8629              1402.0398
 Red. masses --      1.4257                 1.3284                 1.2093
 Frc consts  --      1.4986                 1.4686                 1.4006
 IR Inten    --      1.3767                 8.4096                 4.0992

                     34                     35                     36
                      A                      A                      A
 Frequencies --   1419.2342              1480.0607              1488.4788
 Red. masses --      1.2021                 1.1213                 1.0585
 Frc consts  --      1.4266                 1.4472                 1.3817
 IR Inten    --      1.4889                 1.5469                 4.6519

                     37                     38                     39
                      A                      A                      A
 Frequencies --   1493.8335              1500.0581              1511.0891
 Red. masses --      1.0464                 1.0501                 1.0587
 Frc consts  --      1.3757                 1.3922                 1.4243
 IR Inten    --      5.4648                 3.1674                10.5320

                     40                     41                     42
                      A                      A                      A
 Frequencies --   1833.2275              2235.8683              2877.6218
 Red. masses --     10.3756                 5.9230                 1.0835
 Frc consts  --     20.5445                17.4455                 5.2862
 IR Inten    --    127.2395                 0.3078                84.8512

                     43                     44                     45
                      A                      A                      A
 Frequencies --   2998.0049              3007.7830              3021.1141
 Red. masses --      1.0377                 1.0798                 1.0839
 Frc consts  --      5.4955                 5.7555                 5.8288
 IR Inten    --     44.1825                 1.9506                35.1975

                     46                     47                     48
                      A                      A                      A
 Frequencies --   3050.4093              3059.0254              3122.8223
 Red. masses --      1.0349                 1.1018                 1.1018
 Frc consts  --      5.6737                 6.0744                 6.3305
 IR Inten    --     18.9080                33.5061                18.5464

                     49                     50                     51
                      A                      A                      A
 Frequencies --   3126.5089              3142.1349              3503.1788
 Red. masses --      1.0998                 1.1025                 1.1624
 Frc consts  --      6.3340                 6.4133                 8.4047
 IR Inten    --     22.2997                12.3869                68.6128

 - Thermochemistry -
 -------------------
 Temperature   298.150 Kelvin.  Pressure   1.00000 Atm.
 Atom     1 has atomic number  6 and mass  12.00000

 Molecular mass:   126.06808 amu.
 Principal axes and moments of inertia in atomic units:
                           1         2         3
     Eigenvalues --   849.421891396.561112108.16661
           X            0.99990   0.01285   0.00541
           Y           -0.01293   0.99980   0.01550
           Z           -0.00521  -0.01557   0.99987
 This molecule is an asymmetric top.
 Rotational symmetry number  1.
 Warning -- assumption of classical behavior for rotation
           may cause significant error
 Rotational temperatures (Kelvin)      0.10197     0.06202     0.04108
 Rotational constants (GHZ):           2.12467     1.29228     0.85607
 Zero-point vibrational energy     404950.1 (Joules/Mol)
                                   96.78539 (Kcal/Mol)
 Warning -- explicit consideration of  15 degrees of freedom as
           vibrations may cause significant error
 Vibrational temperatures:     68.83    83.07   143.99   168.88   260.09
          (Kelvin)            282.70   310.56   340.73   405.89   475.05
                              577.27   594.11   690.63   774.40   814.89
                              918.58   942.51  1225.64  1345.78  1356.29
                             1446.49  1522.16  1561.49  1598.26  1623.43
                             1674.20  1707.94  1754.61  1822.46  1887.94
                             1921.72  1970.92  2017.22  2041.96  2129.47
                             2141.59  2149.29  2158.25  2174.12  2637.60
                             3216.91  4140.25  4313.46  4327.52  4346.70
                             4388.85  4401.25  4493.04  4498.34  4520.83
                             5040.29

 Zero-point correction=                           0.154237 (Hartree/Particle)
 Thermal correction to Energy=                    0.165115
 Thermal correction to Enthalpy=                  0.166059
 Thermal correction to Gibbs Free Energy=         0.117437
 Sum of electronic and zero-point Energies=           -422.987446
 Sum of electronic and thermal Energies=              -422.976569
 Sum of electronic and thermal Enthalpies=            -422.975625
 Sum of electronic and thermal Free Energies=         -423.024247

                     E (Thermal)             CV                S
                      KCal/Mol        Cal/Mol-Kelvin    Cal/Mol-Kelvin
 Total                  103.611             37.558            102.334
 Electronic               0.000              0.000              0.000
 Translational            0.889              2.981             40.409
 Rotational               0.889              2.981             29.304
 Vibrational            101.834             31.596             32.621
 Vibration     1          0.595              1.978              4.905
 Vibration     2          0.596              1.974              4.533
 Vibration     3          0.604              1.949              3.453
 Vibration     4          0.608              1.935              3.143
 Vibration     5          0.630              1.866              2.320
 Vibration     6          0.636              1.845              2.166
 Vibration     7          0.645              1.817              1.994
 Vibration     8          0.656              1.784              1.827
 Vibration     9          0.681              1.707              1.521
 Vibration    10          0.713              1.615              1.259
 Vibration    11          0.767              1.467              0.958
 Vibration    12          0.777              1.442              0.916
 Vibration    13          0.836              1.294              0.710
 Vibration    14          0.893              1.165              0.569
 Vibration    15          0.922              1.104              0.511

 Optimization completed.
    -- Stationary point found.
 Normal termination of Gaussian 09 at Tue Jan 28 09:05:04 2020.
