 Gaussian 09, Revision D.01,
 Gaussian 09:  ES64L-G09RevD.01 24-Apr-2013

 -----------------------------
 # b3lyp 6-31G(2df,p) opt Freq
 -----------------------------

 -----
 titel
 -----
 Symbolic Z-matrix:
 Charge =  0 Multiplicity = 1

 SCF Done:  E(RB3LYP) =  -423.122766535     A.U. after   14 cycles
 Optimization completed.
    -- Stationary point found.
 Normal termination of Gaussian 09 at Mon Jan 27 12:07:03 2020.

 ----------------------------------------------------------------------
 #N Geom=AllCheck Guess=TCheck SCRF=Check GenChk RB3LYP/6-31G(2df,p) Fr
 eq
 ----------------------------------------------------------------------

 Structure from the checkpoint file:  "/scratch/puck/g09_ed1f133c-9b0e-472b-a251-1388dba65a24/Gau-18738.chk"
 -----
 titel
 -----
 Charge =  0 Multiplicity = 1

                         Standard orientation:
 ---------------------------------------------------------------------
 Center     Atomic      Atomic             Coordinates (Angstroms)
 Number     Number       Type             X           Y           Z
 ---------------------------------------------------------------------
      1          6           0        3.003207   -0.216100   -0.677351
      2          6           0        2.825610    0.949275    0.257086
      3          6           0        1.892252   -0.236721    0.346627
      4          6           0        0.481432   -0.082964   -0.099097
      5          8           0       -0.309786   -1.280279   -0.202237
      6          6           0       -0.668093   -0.319234    0.788743
      7          6           0       -1.974120    0.391909    0.597719
      8          6           0       -3.037635   -0.177523   -0.241796
      9          8           0       -2.236116    0.915080   -0.700966
     10          1           0        2.725857   -0.081234   -1.717503
     11          1           0        3.845934   -0.880310   -0.523618
     12          1           0        3.543807    1.090485    1.056676
     13          1           0        2.430338    1.873498   -0.151669
     14          1           0        2.023521   -0.903294    1.193642
     15          1           0        0.317836    0.609676   -0.925304
     16          1           0       -0.473688   -0.630276    1.817421
     17          1           0       -2.253646    1.052820    1.419980
     18          1           0       -2.849719   -1.123829   -0.742667
     19          1           0       -4.078928    0.062208   -0.032919
 ---------------------------------------------------------------------

 SCF Done:  E(RB3LYP) =  -423.122766535     A.U. after    1 cycles

 The electronic state is 1-A.
 Alpha  occ. eigenvalues --  -19.15325 -19.14856 -10.24223 -10.23841 -10.23691
 Alpha  occ. eigenvalues --  -10.23311 -10.19673 -10.19117 -10.18896  -1.08125
 Alpha  occ. eigenvalues --   -1.06090  -0.86134  -0.71964  -0.68465  -0.65351
 Alpha  occ. eigenvalues --   -0.60389  -0.58377  -0.57789  -0.52465  -0.50532
 Alpha  occ. eigenvalues --   -0.48762  -0.47412  -0.43431  -0.41508  -0.39458
 Alpha  occ. eigenvalues --   -0.38099  -0.36888  -0.36237  -0.35007  -0.31186
 Alpha  occ. eigenvalues --   -0.30122  -0.28093  -0.26565  -0.25835
 Alpha virt. eigenvalues --    0.07346   0.09253   0.09922   0.10628   0.11544
 Alpha virt. eigenvalues --    0.12153   0.13966   0.14904   0.15232   0.15860
 Alpha virt. eigenvalues --    0.17049   0.17577   0.18848   0.19242   0.22284

 Mulliken charges:
               1
     1  C   -0.264404
     2  C   -0.270580
     3  C   -0.015894
     4  C    0.069776
     5  O   -0.262343
     6  C   -0.002095
     7  C    0.046439
     8  C   -0.170823
     9  O   -0.231418
    10  H    0.119973
    11  H    0.117000
    12  H    0.116372
    13  H    0.118190
    14  H    0.088215
    15  H    0.108163
    16  H    0.089634
    17  H    0.094760
    18  H    0.134769
    19  H    0.114268
 Sum of Mulliken charges =   0.00000

 Dipole moment (field-independent basis, Debye):
    X=              0.4037    Y=              0.3418    Z=              1.8391  Tot=              1.9137
 Quadrupole moment (field-independent basis, Debye-Ang):
   XX=            -47.1424   YY=            -56.4162   ZZ=            -51.6521
   XY=              1.5054   XZ=             -2.1304   YZ=              0.4289

  Exact polarizability:  99.904   2.469  64.261  -1.325   1.795  67.001
 Approx polarizability: 118.837   5.491 102.566  -2.105   1.737 105.303

                      1                      2                      3
                      A                      A                      A
 Frequencies --     70.4755                80.5169               126.3413
 Red. masses --      3.0525                 4.7245                 2.7458
 Frc consts  --      0.0089                 0.0180                 0.0258
 IR Inten    --      1.8930                 0.9991                 0.4291

                      4                      5                      6
                      A                      A                      A
 Frequencies --    162.7546               239.2712               290.6074
 Red. masses --      3.4867                 4.5692                 3.1226
 Frc consts  --      0.0544                 0.1541                 0.1554
 IR Inten    --      4.0245                 0.5083                 7.2716

                      7                      8                      9
                      A                      A                      A
 Frequencies --    352.1527               438.2379               520.6966
 Red. masses --      3.8548                 3.6533                 3.2189
 Frc consts  --      0.2817                 0.4134                 0.5142
 IR Inten    --      0.3207                 6.2360                 4.3010

                     10                     11                     12
                      A                      A                      A
 Frequencies --    644.9174               767.0888               782.2192
 Red. masses --      3.3001                 1.3790                 2.3917
 Frc consts  --      0.8087                 0.4781                 0.8622
 IR Inten    --     22.1508                 0.9853                 4.2610

                     13                     14                     15
                      A                      A                      A
 Frequencies --    824.9371               842.3773               876.8165
 Red. masses --      1.5622                 2.2699                 2.8841
 Frc consts  --      0.6264                 0.9490                 1.3064
 IR Inten    --      9.1740                12.2287                16.7761

                     16                     17                     18
                      A                      A                      A
 Frequencies --    899.8637               911.2820               943.6473
 Red. masses --      2.7068                 4.4637                 3.2557
 Frc consts  --      1.2914                 2.1840                 1.7081
 IR Inten    --     16.0337                39.6569                11.7415

                     19                     20                     21
                      A                      A                      A
 Frequencies --    956.8849               990.4857              1051.1505
 Red. masses --      3.2255                 2.0444                 1.8063
 Frc consts  --      1.7401                 1.1817                 1.1759
 IR Inten    --     18.7169                21.9988                 3.6617

                     22                     23                     24
                      A                      A                      A
 Frequencies --   1064.1280              1081.1038              1087.4129
 Red. masses --      1.3440                 1.3309                 1.1772
 Frc consts  --      0.8967                 0.9165                 0.8202
 IR Inten    --      2.8222                 1.6961                 0.5563

                     25                     26                     27
                      A                      A                      A
 Frequencies --   1117.1682              1127.3329              1154.5888
 Red. masses --      1.4363                 1.1654                 1.3002
 Frc consts  --      1.0562                 0.8727                 1.0212
 IR Inten    --      1.5458                 0.5486                 1.9271

                     28                     29                     30
                      A                      A                      A
 Frequencies --   1164.4017              1168.2650              1198.5387
 Red. masses --      1.3957                 1.3294                 1.3802
 Frc consts  --      1.1149                 1.0690                 1.1682
 IR Inten    --      0.9104                 0.4780                 0.4038

                     31                     32                     33
                      A                      A                      A
 Frequencies --   1209.5630              1225.0199              1265.2084
 Red. masses --      2.2360                 1.7725                 1.6253
 Frc consts  --      1.9274                 1.5672                 1.5328
 IR Inten    --      1.0099                 2.6139                19.6930

                     34                     35                     36
                      A                      A                      A
 Frequencies --   1291.6161              1317.2211              1395.1498
 Red. masses --      1.5201                 1.2485                 1.5305
 Frc consts  --      1.4941                 1.2763                 1.7552
 IR Inten    --      5.7761                 6.2661                 2.6239

                     37                     38                     39
                      A                      A                      A
 Frequencies --   1427.3645              1470.4551              1494.5357
 Red. masses --      1.8366                 1.0862                 1.6870
 Frc consts  --      2.2046                 1.3838                 2.2202
 IR Inten    --      4.8112                 1.4379                 9.6929

                     40                     41                     42
                      A                      A                      A
 Frequencies --   1511.7950              1519.6944              3084.3135
 Red. masses --      1.7853                 1.5817                 1.0849
 Frc consts  --      2.4040                 2.1523                 6.0809
 IR Inten    --      6.2451                 3.3622                 9.3152

                     43                     44                     45
                      A                      A                      A
 Frequencies --   3093.4336              3104.2243              3114.3404
 Red. masses --      1.0542                 1.0867                 1.0865
 Frc consts  --      5.9438                 6.1697                 6.2088
 IR Inten    --     32.4658                42.0704                 9.0092

                     46                     47                     48
                      A                      A                      A
 Frequencies --   3133.3274              3137.8267              3155.3831
 Red. masses --      1.0510                 1.0583                 1.0894
 Frc consts  --      6.0797                 6.1393                 6.3908
 IR Inten    --     17.8226                11.4328                 9.9018

                     49                     50                     51
                      A                      A                      A
 Frequencies --   3193.7908              3212.2873              3227.5594
 Red. masses --      1.1189                 1.1177                 1.1154
 Frc consts  --      6.7247                 6.7955                 6.8459
 IR Inten    --     15.0899                 0.4967                16.7377

 - Thermochemistry -
 -------------------
 Temperature   298.150 Kelvin.  Pressure   1.00000 Atm.
 Atom     1 has atomic number  6 and mass  12.00000

 Molecular mass:   126.06808 amu.
 Principal axes and moments of inertia in atomic units:
                           1         2         3
     Eigenvalues --   378.770992181.507882264.82820
           X            0.99995   0.00827  -0.00520
           Y           -0.00804   0.99907   0.04237
           Z            0.00554  -0.04232   0.99909
 This molecule is an asymmetric top.
 Rotational symmetry number  1.
 Rotational temperatures (Kelvin)      0.22867     0.03970     0.03824
 Rotational constants (GHZ):           4.76473     0.82729     0.79686
 Zero-point vibrational energy     415820.6 (Joules/Mol)
                                   99.38351 (Kcal/Mol)
 Warning -- explicit consideration of   9 degrees of freedom as
           vibrations may cause significant error
 Vibrational temperatures:    101.40   115.85   181.78   234.17   344.26
          (Kelvin)            418.12   506.67   630.53   749.17   927.89
                             1103.67  1125.44  1186.90  1211.99  1261.54
                             1294.70  1311.13  1357.70  1376.74  1425.09
                             1512.37  1531.04  1555.47  1564.54  1607.35
                             1621.98  1661.19  1675.31  1680.87  1724.43
                             1740.29  1762.53  1820.35  1858.35  1895.19
                             2007.31  2053.66  2115.65  2150.30  2175.13
                             2186.50  4437.63  4450.76  4466.28  4480.84
                             4508.15  4514.63  4539.89  4595.15  4621.76
                             4643.73

 Zero-point correction=                           0.158378 (Hartree/Particle)
 Thermal correction to Energy=                    0.166931
 Thermal correction to Enthalpy=                  0.167875
 Thermal correction to Gibbs Free Energy=         0.124346
 Sum of electronic and zero-point Energies=           -422.964389
 Sum of electronic and thermal Energies=              -422.955835
 Sum of electronic and thermal Enthalpies=            -422.954891
 Sum of electronic and thermal Free Energies=         -422.998420

                     E (Thermal)             CV                S
                      KCal/Mol        Cal/Mol-Kelvin    Cal/Mol-Kelvin
 Total                  104.751             31.632             91.615
 Electronic               0.000              0.000              0.000
 Translational            0.889              2.981             40.409
 Rotational               0.889              2.981             29.016
 Vibrational            102.973             25.671             22.190
 Vibration     1          0.598              1.968              4.140
 Vibration     2          0.600              1.962              3.878
 Vibration     3          0.611              1.927              3.001
 Vibration     4          0.623              1.888              2.518
 Vibration     5          0.657              1.780              1.808
 Vibration     6          0.687              1.691              1.470
 Vibration     7          0.729              1.571              1.157
 Vibration     8          0.798              1.387              0.832
 Vibration     9          0.876              1.204              0.608

 Optimization completed.
    -- Stationary point found.
 Normal termination of Gaussian 09 at Mon Jan 27 12:49:05 2020.
