 Gaussian 09, Revision D.01,
 Gaussian 09:  ES64L-G09RevD.01 24-Apr-2013

 -----------------------------
 # b3lyp 6-31G(2df,p) opt Freq
 -----------------------------

 -----
 titel
 -----
 Symbolic Z-matrix:
 Charge =  0 Multiplicity = 1

 SCF Done:  E(RB3LYP) =  -423.170442222     A.U. after   14 cycles
 Optimization completed.
    -- Stationary point found.
 Normal termination of Gaussian 09 at Tue Jan 28 14:02:51 2020.

 ----------------------------------------------------------------------
 #N Geom=AllCheck Guess=TCheck SCRF=Check GenChk RB3LYP/6-31G(2df,p) Fr
 eq
 ----------------------------------------------------------------------

 Structure from the checkpoint file:  "/scratch/puck/g09_cac88470-7e6b-431f-bb78-ef079010b439/Gau-28442.chk"
 -----
 titel
 -----
 Charge =  0 Multiplicity = 1

                         Standard orientation:
 ---------------------------------------------------------------------
 Center     Atomic      Atomic             Coordinates (Angstroms)
 Number     Number       Type             X           Y           Z
 ---------------------------------------------------------------------
      1          6           0       -0.768556    2.446292    0.295040
      2          6           0       -0.734812    0.978615    0.002450
      3          6           0       -1.710554    0.247714   -0.553180
      4          6           0       -1.359994   -1.199983   -0.549235
      5          8           0       -1.170137   -1.733185    0.786115
      6          6           0       -0.021576   -1.307278    0.054855
      7          6           0        0.461108    0.104724    0.377469
      8          6           0        1.735277    0.451115   -0.411660
      9          8           0        2.814743   -0.419258   -0.111991
     10          1           0       -0.671917    2.635019    1.371913
     11          1           0        0.058199    2.979392   -0.190143
     12          1           0       -1.705474    2.897275   -0.042447
     13          1           0       -2.659190    0.635379   -0.905879
     14          1           0       -1.762285   -1.905182   -1.269630
     15          1           0        0.702218   -2.077406   -0.193529
     16          1           0        0.683021    0.202125    1.450982
     17          1           0        1.546742    0.331341   -1.483959
     18          1           0        2.010489    1.502880   -0.243237
     19          1           0        3.035988   -0.308475    0.818511
 ---------------------------------------------------------------------

 SCF Done:  E(RB3LYP) =  -423.170442222     A.U. after    1 cycles

 The electronic state is 1-A.
 Alpha  occ. eigenvalues --  -19.14240 -19.14041 -10.23386 -10.23048 -10.22670
 Alpha  occ. eigenvalues --  -10.19635 -10.19488 -10.18919 -10.17958  -1.06086
 Alpha  occ. eigenvalues --   -1.02297  -0.83359  -0.74385  -0.72333  -0.65492
 Alpha  occ. eigenvalues --   -0.63336  -0.57674  -0.53585  -0.51436  -0.49525
 Alpha  occ. eigenvalues --   -0.46576  -0.44113  -0.42703  -0.41852  -0.40963
 Alpha  occ. eigenvalues --   -0.38578  -0.37887  -0.36540  -0.35771  -0.32814
 Alpha  occ. eigenvalues --   -0.30636  -0.27668  -0.25324  -0.23788
 Alpha virt. eigenvalues --    0.00299   0.06854   0.09074   0.11329   0.12690
 Alpha virt. eigenvalues --    0.13094   0.14355   0.15472   0.15823   0.16854
 Alpha virt. eigenvalues --    0.17429   0.17748   0.19055   0.20681   0.23177

 Mulliken charges:
               1
     1  C   -0.495013
     2  C    0.303665
     3  C   -0.201289
     4  C    0.006326
     5  O   -0.270052
     6  C    0.043150
     7  C   -0.161800
     8  C   -0.074621
     9  O   -0.414291
    10  H    0.131441
    11  H    0.128816
    12  H    0.128342
    13  H    0.096582
    14  H    0.095540
    15  H    0.107126
    16  H    0.082957
    17  H    0.117105
    18  H    0.091937
    19  H    0.284078
 Sum of Mulliken charges =   0.00000

 Dipole moment (field-independent basis, Debye):
    X=              0.3530    Y=              2.1176    Z=             -0.1720  Tot=              2.1537
 Quadrupole moment (field-independent basis, Debye-Ang):
   XX=            -54.5314   YY=            -53.4192   ZZ=            -52.4343
   XY=             -0.4036   XZ=              7.1632   YZ=              2.9498

  Exact polarizability:  84.482   2.342  83.734   8.922   3.921  61.303
 Approx polarizability: 124.386   9.285 117.919  15.531   4.706 101.250

                      1                      2                      3
                      A                      A                      A
 Frequencies --    106.1454               122.0731               166.6665
 Red. masses --      3.2765                 2.1781                 2.7188
 Frc consts  --      0.0218                 0.0191                 0.0445
 IR Inten    --      3.6725                 0.5328                 1.4381

                      4                      5                      6
                      A                      A                      A
 Frequencies --    181.5649               224.9950               281.5434
 Red. masses --      1.3034                 3.0800                 2.7113
 Frc consts  --      0.0253                 0.0919                 0.1266
 IR Inten    --      0.8726                13.3861                 4.1044

                      7                      8                      9
                      A                      A                      A
 Frequencies --    328.5631               404.5916               459.1730
 Red. masses --      1.2355                 3.3069                 4.0309
 Frc consts  --      0.0786                 0.3189                 0.5007
 IR Inten    --     99.3901                 2.2240                 5.4827

                     10                     11                     12
                      A                      A                      A
 Frequencies --    496.0746               573.5700               618.6610
 Red. masses --      4.0504                 3.1461                 3.6662
 Frc consts  --      0.5873                 0.6098                 0.8268
 IR Inten    --     13.1530                12.7132                 6.3702

                     13                     14                     15
                      A                      A                      A
 Frequencies --    731.9909               809.8424               853.7420
 Red. masses --      4.8244                 3.0444                 1.7453
 Frc consts  --      1.5230                 1.1764                 0.7495
 IR Inten    --     11.4816                 2.1512                 5.9308

                     16                     17                     18
                      A                      A                      A
 Frequencies --    860.0553               875.3217               920.0968
 Red. masses --      2.3316                 2.7621                 2.5371
 Frc consts  --      1.0161                 1.2469                 1.2655
 IR Inten    --     20.4834                22.3385                 4.5336

                     19                     20                     21
                      A                      A                      A
 Frequencies --    970.2506              1004.8289              1023.9160
 Red. masses --      1.7384                 1.5363                 2.1061
 Frc consts  --      0.9642                 0.9139                 1.3009
 IR Inten    --     10.2517                 8.6540                50.4942

                     22                     23                     24
                      A                      A                      A
 Frequencies --   1043.8077              1061.6737              1075.7592
 Red. masses --      1.6362                 1.8211                 1.8345
 Frc consts  --      1.0503                 1.2094                 1.2508
 IR Inten    --      8.9126                14.9970                 2.1890

                     25                     26                     27
                      A                      A                      A
 Frequencies --   1094.5365              1129.9689              1180.6831
 Red. masses --      3.2933                 1.4514                 1.5228
 Frc consts  --      2.3246                 1.0919                 1.2507
 IR Inten    --     49.5633                 1.1221                15.0724

                     28                     29                     30
                      A                      A                      A
 Frequencies --   1182.3310              1250.8130              1262.8486
 Red. masses --      1.7525                 1.3439                 1.7099
 Frc consts  --      1.4434                 1.2388                 1.6067
 IR Inten    --     18.9305                 2.3570                 2.7505

                     31                     32                     33
                      A                      A                      A
 Frequencies --   1279.6651              1334.8404              1347.7753
 Red. masses --      1.4120                 1.5593                 1.8107
 Frc consts  --      1.3623                 1.6369                 1.9380
 IR Inten    --      0.8875                 8.7062                 6.4915

                     34                     35                     36
                      A                      A                      A
 Frequencies --   1383.2596              1405.0764              1412.6393
 Red. masses --      1.3101                 2.5869                 1.2335
 Frc consts  --      1.4770                 3.0091                 1.4502
 IR Inten    --      0.9836                14.2974                44.4178

                     37                     38                     39
                      A                      A                      A
 Frequencies --   1415.1371              1479.3724              1486.0452
 Red. masses --      1.4214                 1.0468                 1.0639
 Frc consts  --      1.6771                 1.3499                 1.3843
 IR Inten    --      8.9116                 6.8484                 7.1188

                     40                     41                     42
                      A                      A                      A
 Frequencies --   1506.7535              1691.9823              2990.9920
 Red. masses --      1.0857                 6.9846                 1.0706
 Frc consts  --      1.4522                11.7810                 5.6431
 IR Inten    --      0.7571                12.7816                45.2241

                     43                     44                     45
                      A                      A                      A
 Frequencies --   2998.9672              3019.6462              3065.8080
 Red. masses --      1.0784                 1.0389                 1.0981
 Frc consts  --      5.7147                 5.5811                 6.0812
 IR Inten    --     21.1263                33.8990                20.5877

                     46                     47                     48
                      A                      A                      A
 Frequencies --   3075.5760              3112.4523              3160.5777
 Red. masses --      1.0955                 1.0990                 1.0871
 Frc consts  --      6.1053                 6.2724                 6.3981
 IR Inten    --     24.5591                18.1003                11.9750

                     49                     50                     51
                      A                      A                      A
 Frequencies --   3171.1171              3200.1453              3812.5289
 Red. masses --      1.0943                 1.0954                 1.0661
 Frc consts  --      6.4836                 6.6094                 9.1302
 IR Inten    --     29.2650                13.1323                20.5745

 - Thermochemistry -
 -------------------
 Temperature   298.150 Kelvin.  Pressure   1.00000 Atm.
 Atom     1 has atomic number  6 and mass  12.00000

 Molecular mass:   126.06808 amu.
 Principal axes and moments of inertia in atomic units:
                           1         2         3
     Eigenvalues --   863.117571143.906531781.85622
           X            0.99882  -0.04577   0.01638
           Y            0.04537   0.99869   0.02360
           Z           -0.01744  -0.02283   0.99959
 This molecule is an asymmetric top.
 Rotational symmetry number  1.
 Warning -- assumption of classical behavior for rotation
           may cause significant error
 Rotational temperatures (Kelvin)      0.10035     0.07572     0.04861
 Rotational constants (GHZ):           2.09096     1.57770     1.01284
 Zero-point vibrational energy     416578.2 (Joules/Mol)
                                   99.56459 (Kcal/Mol)
 Warning -- explicit consideration of  12 degrees of freedom as
           vibrations may cause significant error
 Vibrational temperatures:    152.72   175.64   239.80   261.23   323.72
          (Kelvin)            405.08   472.73   582.12   660.65   713.74
                              825.24   890.11  1053.17  1165.18  1228.34
                             1237.43  1259.39  1323.81  1395.97  1445.72
                             1473.18  1501.80  1527.51  1547.78  1574.79
                             1625.77  1698.74  1701.11  1799.64  1816.96
                             1841.15  1920.54  1939.15  1990.20  2021.59
                             2032.47  2036.06  2128.48  2138.08  2167.88
                             2434.38  4303.36  4314.84  4344.59  4411.01
                             4425.06  4478.12  4547.36  4562.52  4604.29
                             5485.37

 Zero-point correction=                           0.158666 (Hartree/Particle)
 Thermal correction to Energy=                    0.167384
 Thermal correction to Enthalpy=                  0.168329
 Thermal correction to Gibbs Free Energy=         0.125276
 Sum of electronic and zero-point Energies=           -423.011776
 Sum of electronic and thermal Energies=              -423.003058
 Sum of electronic and thermal Enthalpies=            -423.002114
 Sum of electronic and thermal Free Energies=         -423.045166

                     E (Thermal)             CV                S
                      KCal/Mol        Cal/Mol-Kelvin    Cal/Mol-Kelvin
 Total                  105.035             32.893             90.611
 Electronic               0.000              0.000              0.000
 Translational            0.889              2.981             40.409
 Rotational               0.889              2.981             28.955
 Vibrational            103.258             26.931             21.247
 Vibration     1          0.605              1.944              3.338
 Vibration     2          0.610              1.931              3.067
 Vibration     3          0.624              1.883              2.473
 Vibration     4          0.630              1.865              2.312
 Vibration     5          0.650              1.803              1.919
 Vibration     6          0.681              1.708              1.524
 Vibration     7          0.712              1.618              1.267
 Vibration     8          0.770              1.460              0.946
 Vibration     9          0.817              1.341              0.769
 Vibration    10          0.852              1.259              0.668
 Vibration    11          0.930              1.088              0.497
 Vibration    12          0.979              0.992              0.419

 Normal termination of Gaussian 09 at Tue Jan 28 14:47:35 2020.
