 Gaussian 09, Revision D.01,
 Gaussian 09:  ES64L-G09RevD.01 24-Apr-2013

 -----------------------------
 # b3lyp 6-31G(2df,p) opt Freq
 -----------------------------

 -----
 titel
 -----
 Symbolic Z-matrix:
 Charge =  0 Multiplicity = 1

 SCF Done:  E(RB3LYP) =  -423.207637161     A.U. after   14 cycles
 Optimization completed.
    -- Stationary point found.
 Normal termination of Gaussian 09 at Tue Jan 28 00:43:52 2020.

 ----------------------------------------------------------------------
 #N Geom=AllCheck Guess=TCheck SCRF=Check GenChk RB3LYP/6-31G(2df,p) Fr
 eq
 ----------------------------------------------------------------------

 Structure from the checkpoint file:  "/scratch/puck/g09_7394f901-e12a-4931-9301-f43690632b7c/Gau-81582.chk"
 -----
 titel
 -----
 Charge =  0 Multiplicity = 1

                         Standard orientation:
 ---------------------------------------------------------------------
 Center     Atomic      Atomic             Coordinates (Angstroms)
 Number     Number       Type             X           Y           Z
 ---------------------------------------------------------------------
      1          6           0        2.961650   -0.212576    0.319584
      2          6           0        1.646258   -0.269913   -0.456119
      3          8           0        0.720729   -1.145743    0.215761
      4          6           0       -0.494782   -0.473035    0.487190
      5          6           0       -1.639551   -1.132713   -0.283617
      6          8           0       -2.804746   -0.931899   -0.060624
      7          6           0       -0.294744    0.956961    0.013594
      8          6           0       -1.341167    2.005310    0.199174
      9          6           0        0.911522    1.039375   -0.542612
     10          1           0        3.694123    0.404130   -0.211785
     11          1           0        2.801642    0.212129    1.314837
     12          1           0        3.375874   -1.218614    0.430586
     13          1           0        1.846568   -0.684257   -1.457383
     14          1           0       -0.739369   -0.522526    1.559746
     15          1           0       -1.288270   -1.804522   -1.098928
     16          1           0       -1.505129    2.206465    1.265232
     17          1           0       -1.055259    2.942084   -0.285193
     18          1           0       -2.304792    1.676956   -0.204198
     19          1           0        1.351629    1.928845   -0.977185
 ---------------------------------------------------------------------

 SCF Done:  E(RB3LYP) =  -423.207637161     A.U. after    1 cycles

 The electronic state is 1-A.
 Alpha  occ. eigenvalues --  -19.14561 -19.14477 -10.27093 -10.24397 -10.24249
 Alpha  occ. eigenvalues --  -10.20497 -10.19066 -10.18911 -10.17976  -1.05502
 Alpha  occ. eigenvalues --   -1.04170  -0.81515  -0.78381  -0.70754  -0.69741
 Alpha  occ. eigenvalues --   -0.60963  -0.57815  -0.55238  -0.50060  -0.48121
 Alpha  occ. eigenvalues --   -0.46505  -0.44134  -0.43385  -0.41812  -0.41378
 Alpha  occ. eigenvalues --   -0.39543  -0.39030  -0.38374  -0.37150  -0.34627
 Alpha  occ. eigenvalues --   -0.32425  -0.28216  -0.27243  -0.23075
 Alpha virt. eigenvalues --   -0.03203   0.01917   0.09946   0.10677   0.11839
 Alpha virt. eigenvalues --    0.12211   0.14594   0.15430   0.15968   0.16401
 Alpha virt. eigenvalues --    0.17237   0.17433   0.18261   0.21885   0.22489

 Mulliken charges:
               1
     1  C   -0.387898
     2  C    0.089552
     3  O   -0.289434
     4  C   -0.051615
     5  C    0.129197
     6  O   -0.244243
     7  C    0.291481
     8  C   -0.494948
     9  C   -0.214597
    10  H    0.113807
    11  H    0.121026
    12  H    0.128183
    13  H    0.086810
    14  H    0.108618
    15  H    0.092063
    16  H    0.135313
    17  H    0.126702
    18  H    0.154485
    19  H    0.105499
 Sum of Mulliken charges =   0.00000

 Dipole moment (field-independent basis, Debye):
    X=              2.1548    Y=              1.6730    Z=             -0.4354  Tot=              2.7625
 Quadrupole moment (field-independent basis, Debye-Ang):
   XX=            -59.4945   YY=            -52.4049   ZZ=            -51.8367
   XY=             -1.3833   XZ=             -1.5149   YZ=              0.4152

  Exact polarizability: 102.144  -1.392  73.641  -8.397   1.393  62.256
 Approx polarizability: 146.783   0.099 103.509 -19.804   0.231  97.886

                      1                      2                      3
                      A                      A                      A
 Frequencies --     66.9631                90.4520               136.3260
 Red. masses --      4.7434                 3.7069                 1.8265
 Frc consts  --      0.0125                 0.0179                 0.0200
 IR Inten    --      1.7931                10.0060                 0.9255

                      4                      5                      6
                      A                      A                      A
 Frequencies --    175.3228               194.5234               232.4274
 Red. masses --      1.2619                 2.6739                 1.0829
 Frc consts  --      0.0229                 0.0596                 0.0345
 IR Inten    --      0.3929                 3.5092                 0.3312

                      7                      8                      9
                      A                      A                      A
 Frequencies --    278.7229               307.0447               380.4652
 Red. masses --      2.5971                 3.1543                 3.6192
 Frc consts  --      0.1189                 0.1752                 0.3087
 IR Inten    --      0.7542                 2.0681                 7.0880

                     10                     11                     12
                      A                      A                      A
 Frequencies --    450.4049               477.5786               552.8737
 Red. masses --      3.2734                 4.1808                 2.9670
 Frc consts  --      0.3912                 0.5618                 0.5343
 IR Inten    --      3.9260                10.7237                12.5119

                     13                     14                     15
                      A                      A                      A
 Frequencies --    631.1581               740.2644               837.6195
 Red. masses --      3.8588                 3.6371                 1.5478
 Frc consts  --      0.9057                 1.1743                 0.6398
 IR Inten    --      5.2645                 3.2970                17.5685

                     16                     17                     18
                      A                      A                      A
 Frequencies --    847.7743               862.2565               920.1891
 Red. masses --      2.4885                 2.9445                 1.8854
 Frc consts  --      1.0538                 1.2898                 0.9406
 IR Inten    --     11.1221                 6.4473                 3.2630

                     19                     20                     21
                      A                      A                      A
 Frequencies --   1006.5632              1015.3392              1030.8279
 Red. masses --      1.4673                 2.0298                 1.8543
 Frc consts  --      0.8759                 1.2329                 1.1609
 IR Inten    --      7.0481                20.7056                 1.7169

                     22                     23                     24
                      A                      A                      A
 Frequencies --   1052.5067              1083.6729              1088.7504
 Red. masses --      3.5926                 1.8768                 1.8450
 Frc consts  --      2.3448                 1.2986                 1.2885
 IR Inten    --     25.0036                 5.9766                12.8014

                     25                     26                     27
                      A                      A                      A
 Frequencies --   1111.0191              1133.6415              1203.7171
 Red. masses --      2.9294                 2.2958                 2.2566
 Frc consts  --      2.1305                 1.7383                 1.9264
 IR Inten    --     47.0833                35.7819                18.0187

                     28                     29                     30
                      A                      A                      A
 Frequencies --   1253.0051              1287.8250              1309.8166
 Red. masses --      1.4129                 1.3806                 1.7626
 Frc consts  --      1.3069                 1.3491                 1.7816
 IR Inten    --      0.6275                 0.5535                19.2961

                     31                     32                     33
                      A                      A                      A
 Frequencies --   1346.1710              1374.8176              1388.1164
 Red. masses --      1.6199                 1.2913                 1.2720
 Frc consts  --      1.7296                 1.4381                 1.4441
 IR Inten    --     17.2925                14.8961                 2.9561

                     34                     35                     36
                      A                      A                      A
 Frequencies --   1399.4579              1418.9615              1476.2359
 Red. masses --      1.2564                 1.2691                 1.0432
 Frc consts  --      1.4498                 1.5055                 1.3395
 IR Inten    --      5.4626                 2.7965                 6.9981

                     37                     38                     39
                      A                      A                      A
 Frequencies --   1485.3973              1488.9509              1493.9920
 Red. masses --      1.0513                 1.0600                 1.0509
 Frc consts  --      1.3666                 1.3845                 1.3820
 IR Inten    --      2.8502                 4.7900                 2.4589

                     40                     41                     42
                      A                      A                      A
 Frequencies --   1728.8275              1827.9912              2886.7704
 Red. masses --      7.6969                10.8739                 1.0848
 Frc consts  --     13.5540                21.4084                 5.3261
 IR Inten    --      6.7066               165.2723                81.2887

                     43                     44                     45
                      A                      A                      A
 Frequencies --   2968.4740              2986.9354              3029.2778
 Red. masses --      1.0827                 1.0827                 1.0398
 Frc consts  --      5.6211                 5.6912                 5.6216
 IR Inten    --     58.4413                33.2395                21.0829

                     46                     47                     48
                      A                      A                      A
 Frequencies --   3037.9608              3084.6322              3112.2212
 Red. masses --      1.0344                 1.0946                 1.1011
 Frc consts  --      5.6247                 6.1366                 6.2837
 IR Inten    --     18.6284                 9.1136                19.8451

                     49                     50                     51
                      A                      A                      A
 Frequencies --   3122.3124              3123.4561              3208.7212
 Red. masses --      1.1031                 1.1017                 1.0949
 Frc consts  --      6.3361                 6.3324                 6.6420
 IR Inten    --     22.4587                13.1785                 5.0145

 - Thermochemistry -
 -------------------
 Temperature   298.150 Kelvin.  Pressure   1.00000 Atm.
 Atom     1 has atomic number  6 and mass  12.00000

 Molecular mass:   126.06808 amu.
 Principal axes and moments of inertia in atomic units:
                           1         2         3
     Eigenvalues --   624.592761470.918111932.57470
           X            0.99944  -0.03350  -0.00164
           Y            0.03352   0.99936   0.01214
           Z            0.00124  -0.01219   0.99992
 This molecule is an asymmetric top.
 Rotational symmetry number  1.
 Warning -- assumption of classical behavior for rotation
           may cause significant error
 Rotational temperatures (Kelvin)      0.13867     0.05888     0.04482
 Rotational constants (GHZ):           2.88947     1.22695     0.93385
 Zero-point vibrational energy     411208.7 (Joules/Mol)
                                   98.28125 (Kcal/Mol)
 Warning -- explicit consideration of  12 degrees of freedom as
           vibrations may cause significant error
 Vibrational temperatures:     96.34   130.14   196.14   252.25   279.88
          (Kelvin)            334.41   401.02   441.77   547.40   648.03
                              687.13   795.46   908.09  1065.07  1205.15
                             1219.76  1240.59  1323.95  1448.22  1460.84
                             1483.13  1514.32  1559.16  1566.47  1598.51
                             1631.06  1731.88  1802.79  1852.89  1884.53
                             1936.84  1978.05  1997.19  2013.51  2041.57
                             2123.97  2137.15  2142.27  2149.52  2487.39
                             2630.07  4153.41  4270.97  4297.53  4358.45
                             4370.94  4438.09  4477.79  4492.31  4493.95
                             4616.63

 Zero-point correction=                           0.156621 (Hartree/Particle)
 Thermal correction to Energy=                    0.166071
 Thermal correction to Enthalpy=                  0.167015
 Thermal correction to Gibbs Free Energy=         0.122013
 Sum of electronic and zero-point Energies=           -423.051016
 Sum of electronic and thermal Energies=              -423.041566
 Sum of electronic and thermal Enthalpies=            -423.040622
 Sum of electronic and thermal Free Energies=         -423.085624

                     E (Thermal)             CV                S
                      KCal/Mol        Cal/Mol-Kelvin    Cal/Mol-Kelvin
 Total                  104.211             34.016             94.715
 Electronic               0.000              0.000              0.000
 Translational            0.889              2.981             40.409
 Rotational               0.889              2.981             28.964
 Vibrational            102.434             28.054             25.342
 Vibration     1          0.598              1.970              4.241
 Vibration     2          0.602              1.956              3.650
 Vibration     3          0.614              1.917              2.855
 Vibration     4          0.627              1.873              2.378
 Vibration     5          0.635              1.847              2.184
 Vibration     6          0.653              1.791              1.860
 Vibration     7          0.679              1.713              1.542
 Vibration     8          0.697              1.660              1.378
 Vibration     9          0.750              1.512              1.037
 Vibration    10          0.809              1.360              0.795
 Vibration    11          0.834              1.300              0.717
 Vibration    12          0.908              1.133              0.538

 Optimization completed.
    -- Stationary point found.
 Normal termination of Gaussian 09 at Tue Jan 28 01:25:25 2020.
