 Gaussian 09, Revision D.01,
 Gaussian 09:  ES64L-G09RevD.01 24-Apr-2013

 -----------------------------
 # b3lyp 6-31G(2df,p) opt Freq
 -----------------------------

 -----
 titel
 -----
 Symbolic Z-matrix:
 Charge =  0 Multiplicity = 1

 SCF Done:  E(RB3LYP) =  -423.237697022     A.U. after   14 cycles
 Optimization completed.
    -- Stationary point found.
 Normal termination of Gaussian 09 at Mon Jan 27 22:03:32 2020.

 ----------------------------------------------------------------------
 #N Geom=AllCheck Guess=TCheck SCRF=Check GenChk RB3LYP/6-31G(2df,p) Fr
 eq
 ----------------------------------------------------------------------

 Structure from the checkpoint file:  "/scratch/puck/g09_e3d97bb0-5d10-4a34-9b59-8b9f796409bb/Gau-76248.chk"
 -----
 titel
 -----
 Charge =  0 Multiplicity = 1

                         Standard orientation:
 ---------------------------------------------------------------------
 Center     Atomic      Atomic             Coordinates (Angstroms)
 Number     Number       Type             X           Y           Z
 ---------------------------------------------------------------------
      1          6           0        0.132587   -1.721380    1.140917
      2          6           0        0.113700   -0.879073   -0.158767
      3          6           0       -1.283519   -0.290054   -0.334368
      4          8           0       -2.209249   -0.951595   -0.721952
      5          8           0       -1.491492    1.007841   -0.021268
      6          6           0       -0.447158    1.866794    0.453813
      7          6           0        0.937896    1.412697    0.121689
      8          6           0        1.219394    0.150323   -0.189128
      9          6           0        2.596060   -0.324746   -0.558629
     10          1           0       -0.010576   -1.087358    2.021372
     11          1           0       -0.666252   -2.466015    1.112113
     12          1           0        1.088575   -2.240480    1.250098
     13          1           0        0.230308   -1.574528   -0.997737
     14          1           0       -0.651142    2.843944    0.001978
     15          1           0       -0.578956    1.988865    1.539400
     16          1           0        1.710770    2.175942    0.146360
     17          1           0        2.605917   -0.738467   -1.574930
     18          1           0        3.326228    0.487168   -0.513430
     19          1           0        2.937293   -1.126402    0.107372
 ---------------------------------------------------------------------

 SCF Done:  E(RB3LYP) =  -423.237697022     A.U. after    1 cycles

 The electronic state is 1-A.
 Alpha  occ. eigenvalues --  -19.17840 -19.11124 -10.29979 -10.25312 -10.20869
 Alpha  occ. eigenvalues --  -10.20519 -10.19380 -10.19260 -10.19109  -1.09300
 Alpha  occ. eigenvalues --   -1.00971  -0.84025  -0.77572  -0.73919  -0.68801
 Alpha  occ. eigenvalues --   -0.64336  -0.58834  -0.52210  -0.51197  -0.48675
 Alpha  occ. eigenvalues --   -0.46766  -0.44239  -0.42953  -0.41990  -0.41558
 Alpha  occ. eigenvalues --   -0.40960  -0.39490  -0.38486  -0.36485  -0.34805
 Alpha  occ. eigenvalues --   -0.33031  -0.29022  -0.26359  -0.24837
 Alpha virt. eigenvalues --    0.00730   0.01765   0.07797   0.09971   0.11523
 Alpha virt. eigenvalues --    0.13015   0.13312   0.14078   0.15564   0.16985
 Alpha virt. eigenvalues --    0.17155   0.17863   0.20109   0.21063   0.22070

 Mulliken charges:
               1
     1  C   -0.398393
     2  C   -0.228041
     3  C    0.416668
     4  O   -0.338192
     5  O   -0.228119
     6  C   -0.115309
     7  C   -0.181528
     8  C    0.307236
     9  C   -0.483194
    10  H    0.124805
    11  H    0.146282
    12  H    0.122173
    13  H    0.111332
    14  H    0.132029
    15  H    0.125228
    16  H    0.095642
    17  H    0.133546
    18  H    0.126397
    19  H    0.131437
 Sum of Mulliken charges =   0.00000

 Dipole moment (field-independent basis, Debye):
    X=              3.9685    Y=              1.1903    Z=              1.2800  Tot=              4.3363
 Quadrupole moment (field-independent basis, Debye-Ang):
   XX=            -60.8755   YY=            -49.5044   ZZ=            -52.9790
   XY=             -2.6579   XZ=             -3.5255   YZ=             -0.1306

  Exact polarizability:  82.012  -0.547  91.555  -1.208   5.550  59.884
 Approx polarizability: 113.048   0.654 141.503   1.412  14.585  91.845

                      1                      2                      3
                      A                      A                      A
 Frequencies --     41.8524               115.6322               170.7386
 Red. masses --      3.3840                 4.7537                 1.1095
 Frc consts  --      0.0035                 0.0374                 0.0191
 IR Inten    --      2.7493                 0.4282                 1.9146

                      4                      5                      6
                      A                      A                      A
 Frequencies --    224.0163               226.6978               254.6272
 Red. masses --      2.1456                 1.4718                 1.8192
 Frc consts  --      0.0634                 0.0446                 0.0695
 IR Inten    --      0.9620                 0.7150                 1.4385

                      7                      8                      9
                      A                      A                      A
 Frequencies --    269.0643               307.9594               444.2623
 Red. masses --      2.1502                 3.0247                 6.8582
 Frc consts  --      0.0917                 0.1690                 0.7975
 IR Inten    --      1.9531                 1.7871                 0.6527

                     10                     11                     12
                      A                      A                      A
 Frequencies --    486.6236               550.9823               573.7136
 Red. masses --      5.3749                 4.9955                 3.3509
 Frc consts  --      0.7499                 0.8935                 0.6498
 IR Inten    --      4.2385                 4.7357                 4.1500

                     13                     14                     15
                      A                      A                      A
 Frequencies --    707.0053               738.3953               787.3064
 Red. masses --      5.4750                 4.7182                 2.3240
 Frc consts  --      1.6124                 1.5157                 0.8488
 IR Inten    --      0.7588                 5.6629                 7.6290

                     16                     17                     18
                      A                      A                      A
 Frequencies --    814.1432               874.3737               929.9360
 Red. masses --      1.3960                 2.1934                 2.4555
 Frc consts  --      0.5452                 0.9880                 1.2511
 IR Inten    --      6.8797                 2.4259                 4.5902

                     19                     20                     21
                      A                      A                      A
 Frequencies --   1000.9529              1032.9950              1045.8460
 Red. masses --      1.7421                 1.8794                 1.6709
 Frc consts  --      1.0284                 1.1816                 1.0768
 IR Inten    --     11.4611                15.1950                 2.3125

                     22                     23                     24
                      A                      A                      A
 Frequencies --   1065.5778              1076.4725              1098.7306
 Red. masses --      1.6396                 2.2727                 1.9852
 Frc consts  --      1.0969                 1.5517                 1.4120
 IR Inten    --     14.6297                17.7415                 9.9068

                     25                     26                     27
                      A                      A                      A
 Frequencies --   1131.1892              1186.6690              1238.6379
 Red. masses --      4.1146                 1.9596                 3.9806
 Frc consts  --      3.1020                 1.6258                 3.5982
 IR Inten    --     21.0277                19.1634               192.7193

                     28                     29                     30
                      A                      A                      A
 Frequencies --   1258.1514              1311.4282              1318.5243
 Red. masses --      1.0715                 1.2821                 1.4406
 Frc consts  --      0.9994                 1.2991                 1.4756
 IR Inten    --      3.4114                 0.4824                 2.5621

                     31                     32                     33
                      A                      A                      A
 Frequencies --   1374.1141              1404.1114              1414.0966
 Red. masses --      1.8368                 1.3125                 1.2680
 Frc consts  --      2.0434                 1.5246                 1.4939
 IR Inten    --      0.0755                 4.2127                 5.8414

                     34                     35                     36
                      A                      A                      A
 Frequencies --   1430.9406              1477.9782              1489.5091
 Red. masses --      1.5157                 1.0450                 1.0616
 Frc consts  --      1.8285                 1.3449                 1.3877
 IR Inten    --     42.3989                 6.9562                 4.5440

                     37                     38                     39
                      A                      A                      A
 Frequencies --   1496.5317              1500.5852              1508.6216
 Red. masses --      1.0545                 1.0552                 1.0883
 Frc consts  --      1.3915                 1.3999                 1.4593
 IR Inten    --      3.6414                 4.8139                 9.9261

                     40                     41                     42
                      A                      A                      A
 Frequencies --   1759.7448              1835.9876              2994.4304
 Red. masses --      7.3194                12.2464                 1.0706
 Frc consts  --     13.3544                24.3219                 5.6561
 IR Inten    --      7.4308               308.9594                43.8258

                     43                     44                     45
                      A                      A                      A
 Frequencies --   3022.9732              3042.9208              3046.8303
 Red. masses --      1.0382                 1.0502                 1.0657
 Frc consts  --      5.5899                 5.7295                 5.8289
 IR Inten    --     20.4869                12.5337                15.1689

                     46                     47                     48
                      A                      A                      A
 Frequencies --   3058.4187              3072.0626              3115.6865
 Red. masses --      1.0915                 1.0979                 1.1009
 Frc consts  --      6.0152                 6.1046                 6.2965
 IR Inten    --     25.9785                18.4705                16.5774

                     49                     50                     51
                      A                      A                      A
 Frequencies --   3117.5960              3132.0977              3167.5071
 Red. masses --      1.1008                 1.1026                 1.0904
 Frc consts  --      6.3036                 6.3730                 6.4460
 IR Inten    --     24.6230                12.4961                12.2664

 - Thermochemistry -
 -------------------
 Temperature   298.150 Kelvin.  Pressure   1.00000 Atm.
 Atom     1 has atomic number  6 and mass  12.00000

 Molecular mass:   126.06808 amu.
 Principal axes and moments of inertia in atomic units:
                           1         2         3
     Eigenvalues --   795.946191151.364791623.56325
           X            0.99883  -0.04244  -0.02339
           Y            0.04211   0.99901  -0.01449
           Z            0.02398   0.01349   0.99962
 This molecule is an asymmetric top.
 Rotational symmetry number  1.
 Warning -- assumption of classical behavior for rotation
           may cause significant error
 Rotational temperatures (Kelvin)      0.10882     0.07523     0.05335
 Rotational constants (GHZ):           2.26742     1.56748     1.11159
 Zero-point vibrational energy     417169.2 (Joules/Mol)
                                   99.70584 (Kcal/Mol)
 Warning -- explicit consideration of  12 degrees of freedom as
           vibrations may cause significant error
 Vibrational temperatures:     60.22   166.37   245.65   322.31   326.17
          (Kelvin)            366.35   387.12   443.08   639.19   700.14
                              792.74   825.44  1017.22  1062.38  1132.76
                             1171.37  1258.03  1337.97  1440.15  1486.25
                             1504.74  1533.13  1548.80  1580.83  1627.53
                             1707.35  1782.12  1810.20  1886.85  1897.06
                             1977.04  2020.20  2034.57  2058.80  2126.48
                             2143.07  2153.17  2159.00  2170.57  2531.88
                             2641.57  4308.31  4349.38  4378.08  4383.70
                             4400.38  4420.01  4482.77  4485.52  4506.38
                             4557.33

 Zero-point correction=                           0.158891 (Hartree/Particle)
 Thermal correction to Energy=                    0.167950
 Thermal correction to Enthalpy=                  0.168894
 Thermal correction to Gibbs Free Energy=         0.124668
 Sum of electronic and zero-point Energies=           -423.078806
 Sum of electronic and thermal Energies=              -423.069747
 Sum of electronic and thermal Enthalpies=            -423.068803
 Sum of electronic and thermal Free Energies=         -423.113029

                     E (Thermal)             CV                S
                      KCal/Mol        Cal/Mol-Kelvin    Cal/Mol-Kelvin
 Total                  105.390             33.146             93.081
 Electronic               0.000              0.000              0.000
 Translational            0.889              2.981             40.409
 Rotational               0.889              2.981             28.788
 Vibrational            103.612             27.185             23.884
 Vibration     1          0.594              1.980              5.169
 Vibration     2          0.608              1.936              3.172
 Vibration     3          0.626              1.879              2.427
 Vibration     4          0.649              1.804              1.926
 Vibration     5          0.650              1.800              1.905
 Vibration     6          0.665              1.755              1.698
 Vibration     7          0.673              1.730              1.602
 Vibration     8          0.698              1.659              1.373
 Vibration     9          0.804              1.374              0.813
 Vibration    10          0.843              1.280              0.692
 Vibration    11          0.906              1.138              0.542
 Vibration    12          0.930              1.088              0.497

 Normal termination of Gaussian 09 at Mon Jan 27 22:44:06 2020.
