 Gaussian 09, Revision D.01,
 Gaussian 09:  ES64L-G09RevD.01 24-Apr-2013

 -----------------------------
 # b3lyp 6-31G(2df,p) opt Freq
 -----------------------------

 -----
 titel
 -----
 Symbolic Z-matrix:
 Charge =  0 Multiplicity = 1

 SCF Done:  E(RB3LYP) =  -423.193355415     A.U. after   13 cycles
 Optimization completed.
    -- Stationary point found.
 Normal termination of Gaussian 09 at Tue Jan 28 03:27:03 2020.

 ----------------------------------------------------------------------
 #N Geom=AllCheck Guess=TCheck SCRF=Check GenChk RB3LYP/6-31G(2df,p) Fr
 eq
 ----------------------------------------------------------------------

 Structure from the checkpoint file:  "/scratch/puck/g09_4b336fb5-b043-4129-87e4-263d1457bb40/Gau-89298.chk"
 -----
 titel
 -----
 Charge =  0 Multiplicity = 1

                         Standard orientation:
 ---------------------------------------------------------------------
 Center     Atomic      Atomic             Coordinates (Angstroms)
 Number     Number       Type             X           Y           Z
 ---------------------------------------------------------------------
      1          6           0       -2.502346    0.120882    0.295266
      2          6           0       -1.233807    0.030777   -0.548521
      3          8           0       -0.609521   -1.247066   -0.317338
      4          6           0        0.748616   -1.164136    0.044741
      5          6           0        0.906035   -0.371437    1.357010
      6          6           0        0.769343    1.042612    0.819750
      7          6           0        1.182129    0.927161   -0.627715
      8          8           0        1.483425   -0.423092   -0.918426
      9          6           0       -0.261787    1.175794   -0.295232
     10          1           0       -3.132072   -0.755239    0.116997
     11          1           0       -2.261959    0.163677    1.361807
     12          1           0       -3.075050    1.017280    0.033841
     13          1           0       -1.516291    0.052407   -1.611326
     14          1           0        1.128627   -2.185737    0.055499
     15          1           0        0.144282   -0.668091    2.080693
     16          1           0        1.896906   -0.526360    1.796578
     17          1           0        1.030282    1.898883    1.428850
     18          1           0        1.808055    1.627952   -1.164426
     19          1           0       -0.663115    2.166577   -0.484197
 ---------------------------------------------------------------------

 SCF Done:  E(RB3LYP) =  -423.193355415     A.U. after    1 cycles

 The electronic state is 1-A.
 Alpha  occ. eigenvalues --  -19.14417 -19.13521 -10.27389 -10.23680 -10.23442
 Alpha  occ. eigenvalues --  -10.19443 -10.19369 -10.18599 -10.17390  -1.07750
 Alpha  occ. eigenvalues --   -1.00198  -0.85808  -0.77569  -0.72912  -0.64713
 Alpha  occ. eigenvalues --   -0.63274  -0.58064  -0.54188  -0.52766  -0.48879
 Alpha  occ. eigenvalues --   -0.46597  -0.44129  -0.43817  -0.41928  -0.39764
 Alpha  occ. eigenvalues --   -0.38399  -0.38156  -0.36988  -0.34737  -0.33333
 Alpha  occ. eigenvalues --   -0.31323  -0.29320  -0.24885  -0.23286
 Alpha virt. eigenvalues --    0.08122   0.10472   0.12306   0.13645   0.13877
 Alpha virt. eigenvalues --    0.13935   0.14636   0.15313   0.16408   0.17367
 Alpha virt. eigenvalues --    0.17891   0.18611   0.19498   0.20352   0.21676

 Mulliken charges:
               1
     1  C   -0.392343
     2  C    0.128059
     3  O   -0.286175
     4  C    0.172867
     5  C   -0.254416
     6  C   -0.125415
     7  C    0.084219
     8  O   -0.251513
     9  C   -0.109451
    10  H    0.125447
    11  H    0.118548
    12  H    0.109746
    13  H    0.085649
    14  H    0.092370
    15  H    0.112320
    16  H    0.107528
    17  H    0.089796
    18  H    0.102767
    19  H    0.089997
 Sum of Mulliken charges =   0.00000

 Dipole moment (field-independent basis, Debye):
    X=             -0.2568    Y=              1.7276    Z=              1.1699  Tot=              2.1022
 Quadrupole moment (field-independent basis, Debye-Ang):
   XX=            -53.1625   YY=            -51.2901   ZZ=            -53.5904
   XY=             -0.5584   XZ=              2.3082   YZ=             -2.3246

  Exact polarizability:  79.487  -1.496  71.860   2.606  -2.636  67.410
 Approx polarizability: 109.175  -2.877 106.805   1.459  -2.209 103.673

                      1                      2                      3
                      A                      A                      A
 Frequencies --    101.6572               232.7134               270.9844
 Red. masses --      3.5914                 1.0771                 2.3776
 Frc consts  --      0.0219                 0.0344                 0.1029
 IR Inten    --      1.2627                 0.0534                 0.2440

                      4                      5                      6
                      A                      A                      A
 Frequencies --    375.3065               397.1377               450.0344
 Red. masses --      3.8275                 2.3267                 3.9001
 Frc consts  --      0.3176                 0.2162                 0.4654
 IR Inten    --      2.7262                 2.2739                 2.4760

                      7                      8                      9
                      A                      A                      A
 Frequencies --    549.8700               595.4698               648.8029
 Red. masses --      5.6436                 3.6226                 4.2355
 Frc consts  --      1.0054                 0.7568                 1.0505
 IR Inten    --      0.2641                 6.9789                 2.5203

                     10                     11                     12
                      A                      A                      A
 Frequencies --    712.5062               763.9466               790.8608
 Red. masses --      5.7705                 2.3848                 1.9052
 Frc consts  --      1.7260                 0.8200                 0.7021
 IR Inten    --      0.9624                 6.3153                24.4873

                     13                     14                     15
                      A                      A                      A
 Frequencies --    825.6008               842.2368               886.6649
 Red. masses --      2.8566                 2.3208                 2.4787
 Frc consts  --      1.1472                 0.9700                 1.1481
 IR Inten    --      9.6417                 2.5955                37.3517

                     16                     17                     18
                      A                      A                      A
 Frequencies --    929.1364               951.6261               971.8226
 Red. masses --      2.6748                 2.5174                 1.8786
 Frc consts  --      1.3605                 1.3432                 1.0454
 IR Inten    --      3.3633                35.5048                14.9752

                     19                     20                     21
                      A                      A                      A
 Frequencies --    988.1317              1034.5806              1040.4549
 Red. masses --      1.7177                 2.1855                 2.0862
 Frc consts  --      0.9882                 1.3782                 1.3306
 IR Inten    --      1.3320                17.5080                50.3203

                     22                     23                     24
                      A                      A                      A
 Frequencies --   1047.2141              1091.1410              1105.3464
 Red. masses --      2.0228                 1.3464                 2.3698
 Frc consts  --      1.3070                 0.9445                 1.7059
 IR Inten    --     15.1105                 2.8181                13.5683

                     25                     26                     27
                      A                      A                      A
 Frequencies --   1117.0962              1130.6021              1147.8487
 Red. masses --      2.2116                 2.1433                 2.3538
 Frc consts  --      1.6261                 1.6142                 1.8272
 IR Inten    --     32.4054                 9.5123                48.1263

                     28                     29                     30
                      A                      A                      A
 Frequencies --   1169.8434              1194.1725              1265.4546
 Red. masses --      1.7334                 1.4524                 1.5112
 Frc consts  --      1.3977                 1.2203                 1.4258
 IR Inten    --     32.0781                38.2905                 9.7313

                     31                     32                     33
                      A                      A                      A
 Frequencies --   1303.4027              1323.6063              1356.5520
 Red. masses --      1.5799                 1.3572                 1.3379
 Frc consts  --      1.5814                 1.4009                 1.4506
 IR Inten    --     16.0209                 5.8517                 3.4292

                     34                     35                     36
                      A                      A                      A
 Frequencies --   1360.6549              1381.5730              1394.0734
 Red. masses --      1.5689                 1.4715                 1.3046
 Frc consts  --      1.7114                 1.6549                 1.4939
 IR Inten    --      8.9882                15.0975                 7.2025

                     37                     38                     39
                      A                      A                      A
 Frequencies --   1406.1750              1427.6990              1483.4833
 Red. masses --      1.2815                 2.5923                 1.0787
 Frc consts  --      1.4930                 3.1132                 1.3987
 IR Inten    --     11.1324                22.7655                 0.0505

                     40                     41                     42
                      A                      A                      A
 Frequencies --   1490.7994              1494.2776              2990.1698
 Red. masses --      1.0912                 1.0526                 1.0841
 Frc consts  --      1.4289                 1.3848                 5.7113
 IR Inten    --      5.8171                 1.4538                49.9955

                     43                     44                     45
                      A                      A                      A
 Frequencies --   3036.3531              3053.0178              3107.9086
 Red. masses --      1.0350                 1.0627                 1.1009
 Frc consts  --      5.6223                 5.8363                 6.2654
 IR Inten    --     17.1853                26.3317                24.4099

                     46                     47                     48
                      A                      A                      A
 Frequencies --   3114.4788              3120.2818              3123.9610
 Red. masses --      1.1019                 1.1024                 1.0908
 Frc consts  --      6.2977                 6.3240                 6.2719
 IR Inten    --     22.6786                19.5558                40.1158

                     49                     50                     51
                      A                      A                      A
 Frequencies --   3157.8165              3187.0257              3204.0315
 Red. masses --      1.0889                 1.0906                 1.0953
 Frc consts  --      6.3975                 6.5267                 6.6251
 IR Inten    --     11.5420                 9.8649                18.9608

 - Thermochemistry -
 -------------------
 Temperature   298.150 Kelvin.  Pressure   1.00000 Atm.
 Atom     1 has atomic number  6 and mass  12.00000

 Molecular mass:   126.06808 amu.
 Principal axes and moments of inertia in atomic units:
                           1         2         3
     Eigenvalues --   626.029011012.397101130.12558
           X            0.99980  -0.01135   0.01628
           Y            0.01257   0.99697  -0.07674
           Z           -0.01536   0.07693   0.99692
 This molecule is an asymmetric top.
 Rotational symmetry number  1.
 Warning -- assumption of classical behavior for rotation
           may cause significant error
 Rotational temperatures (Kelvin)      0.13835     0.08555     0.07664
 Rotational constants (GHZ):           2.88284     1.78264     1.59694
 Zero-point vibrational energy     425545.2 (Joules/Mol)
                                  101.70775 (Kcal/Mol)
 Warning -- explicit consideration of   8 degrees of freedom as
           vibrations may cause significant error
 Vibrational temperatures:    146.26   334.82   389.89   539.98   571.39
          (Kelvin)            647.50   791.14   856.75   933.48  1025.14
                             1099.15  1137.87  1187.85  1211.79  1275.71
                             1336.82  1369.18  1398.23  1421.70  1488.53
                             1496.98  1506.71  1569.91  1590.35  1607.25
                             1626.68  1651.50  1683.14  1718.15  1820.70
                             1875.30  1904.37  1951.77  1957.68  1987.77
                             2005.76  2023.17  2054.14  2134.40  2144.93
                             2149.93  4302.18  4368.63  4392.61  4471.58
                             4481.03  4489.38  4494.68  4543.39  4585.41
                             4609.88

 Zero-point correction=                           0.162082 (Hartree/Particle)
 Thermal correction to Energy=                    0.169001
 Thermal correction to Enthalpy=                  0.169945
 Thermal correction to Gibbs Free Energy=         0.130941
 Sum of electronic and zero-point Energies=           -423.031274
 Sum of electronic and thermal Energies=              -423.024354
 Sum of electronic and thermal Enthalpies=            -423.023410
 Sum of electronic and thermal Free Energies=         -423.062414

                     E (Thermal)             CV                S
                      KCal/Mol        Cal/Mol-Kelvin    Cal/Mol-Kelvin
 Total                  106.050             28.599             82.090
 Electronic               0.000              0.000              0.000
 Translational            0.889              2.981             40.409
 Rotational               0.889              2.981             28.062
 Vibrational            104.272             22.637             13.620
 Vibration     1          0.604              1.948              3.422
 Vibration     2          0.653              1.791              1.858
 Vibration     3          0.675              1.727              1.590
 Vibration     4          0.746              1.523              1.058
 Vibration     5          0.764              1.476              0.973
 Vibration     6          0.809              1.361              0.796
 Vibration     7          0.905              1.140              0.544
 Vibration     8          0.953              1.041              0.458

 Optimization completed.
    -- Stationary point found.
 Normal termination of Gaussian 09 at Tue Jan 28 04:13:28 2020.
