 Gaussian 09, Revision D.01,
 Gaussian 09:  ES64L-G09RevD.01 24-Apr-2013

 -----------------------------
 # b3lyp 6-31G(2df,p) opt Freq
 -----------------------------

 -----
 titel
 -----
 Symbolic Z-matrix:
 Charge =  0 Multiplicity = 1

 SCF Done:  E(RB3LYP) =  -423.127634336     A.U. after   13 cycles
 Optimization completed.
    -- Stationary point found.
 Normal termination of Gaussian 09 at Tue Jan 28 11:53:28 2020.

 ----------------------------------------------------------------------
 #N Geom=AllCheck Guess=TCheck SCRF=Check GenChk RB3LYP/6-31G(2df,p) Fr
 eq
 ----------------------------------------------------------------------

 Structure from the checkpoint file:  "/scratch/puck/g09_eaeb22e5-6d42-401d-8505-6d085f6a035e/Gau-112598.chk"
 -----
 titel
 -----
 Charge =  0 Multiplicity = 1

                         Standard orientation:
 ---------------------------------------------------------------------
 Center     Atomic      Atomic             Coordinates (Angstroms)
 Number     Number       Type             X           Y           Z
 ---------------------------------------------------------------------
      1          6           0        3.015862   -0.622663   -0.351312
      2          6           0        1.659501   -0.772126    0.345886
      3          6           0        0.546792   -0.105299   -0.438937
      4          8           0        0.740013    1.320393   -0.595901
      5          6           0       -0.533659    1.624256   -0.006350
      6          6           0       -0.827113    0.134588    0.290341
      7          8           0       -0.828967   -0.086799    1.688725
      8          6           0       -1.987552   -0.465148   -0.350301
      9          6           0       -2.932459   -1.000516   -0.866793
     10          1           0        3.814155   -1.075173    0.244129
     11          1           0        3.014846   -1.105676   -1.334637
     12          1           0        3.253954    0.434524   -0.496678
     13          1           0        1.409036   -1.834952    0.466143
     14          1           0        1.692024   -0.335702    1.348526
     15          1           0        0.418678   -0.582557   -1.420070
     16          1           0       -0.445974    2.224489    0.905729
     17          1           0       -1.219933    2.104571   -0.711716
     18          1           0       -1.100145   -0.997645    1.847150
     19          1           0       -3.773240   -1.459185   -1.326371
 ---------------------------------------------------------------------

 SCF Done:  E(RB3LYP) =  -423.127634336     A.U. after    1 cycles

 The electronic state is 1-A.
 Alpha  occ. eigenvalues --  -19.15613 -19.13355 -10.26722 -10.23408 -10.23274
 Alpha  occ. eigenvalues --  -10.19251 -10.18903 -10.18109 -10.17192  -1.05514
 Alpha  occ. eigenvalues --   -1.02483  -0.78444  -0.77591  -0.72213  -0.68424
 Alpha  occ. eigenvalues --   -0.62110  -0.57093  -0.56199  -0.51622  -0.50474
 Alpha  occ. eigenvalues --   -0.47041  -0.45682  -0.42774  -0.41043  -0.39853
 Alpha  occ. eigenvalues --   -0.38091  -0.35545  -0.35270  -0.34032  -0.32063
 Alpha  occ. eigenvalues --   -0.29168  -0.28270  -0.26410  -0.25103
 Alpha virt. eigenvalues --    0.02216   0.03606   0.08086   0.08791   0.11684
 Alpha virt. eigenvalues --    0.11976   0.13505   0.13983   0.15499   0.16573
 Alpha virt. eigenvalues --    0.17450   0.18162   0.19004   0.20630   0.22244

 Mulliken charges:
               1
     1  C   -0.386996
     2  C   -0.195458
     3  C    0.103577
     4  O   -0.291298
     5  C   -0.096979
     6  C    0.140530
     7  O   -0.454259
     8  C    0.287558
     9  C   -0.472949
    10  H    0.112300
    11  H    0.113049
    12  H    0.139700
    13  H    0.090386
    14  H    0.114565
    15  H    0.073964
    16  H    0.118757
    17  H    0.110819
    18  H    0.288102
    19  H    0.204630
 Sum of Mulliken charges =   0.00000

 Dipole moment (field-independent basis, Debye):
    X=             -1.1476    Y=             -1.8666    Z=              0.0043  Tot=              2.1912
 Quadrupole moment (field-independent basis, Debye-Ang):
   XX=            -50.2257   YY=            -51.1343   ZZ=            -54.2786
   XY=              0.5726   XZ=              2.6790   YZ=             -0.0312

  Exact polarizability:  95.514   5.199  72.445   7.826   3.816  66.874
 Approx polarizability: 126.570  15.588 107.802  15.066   8.723 103.493

                      1                      2                      3
                      A                      A                      A
 Frequencies --     50.4373                88.1738               143.1134
 Red. masses --      3.6403                 2.4113                 3.5213
 Frc consts  --      0.0055                 0.0110                 0.0425
 IR Inten    --      1.9308                 0.3430                 0.3782

                      4                      5                      6
                      A                      A                      A
 Frequencies --    161.2610               191.7006               226.6710
 Red. masses --      2.9384                 3.1956                 1.1956
 Frc consts  --      0.0450                 0.0692                 0.0362
 IR Inten    --      1.2969                 1.9789                 0.5029

                      7                      8                      9
                      A                      A                      A
 Frequencies --    287.9669               299.6684               388.6191
 Red. masses --      1.4709                 2.1169                 3.8057
 Frc consts  --      0.0719                 0.1120                 0.3386
 IR Inten    --     37.9172                66.7110                 5.0744

                     10                     11                     12
                      A                      A                      A
 Frequencies --    391.0874               480.1622               536.2272
 Red. masses --      2.8606                 3.9023                 4.5897
 Frc consts  --      0.2578                 0.5301                 0.7776
 IR Inten    --     13.8070                 6.1399                 5.7155

                     13                     14                     15
                      A                      A                      A
 Frequencies --    590.4321               630.9981               642.5404
 Red. masses --      4.8634                 1.2683                 4.9815
 Frc consts  --      0.9989                 0.2975                 1.2118
 IR Inten    --      6.0054                42.7369                 6.0922

                     16                     17                     18
                      A                      A                      A
 Frequencies --    667.1396               770.7799               849.6622
 Red. masses --      1.2442                 1.4470                 2.0711
 Frc consts  --      0.3263                 0.5065                 0.8809
 IR Inten    --     36.7025                 0.1251                 6.2125

                     19                     20                     21
                      A                      A                      A
 Frequencies --    917.1192               925.7576               963.4771
 Red. masses --      2.6164                 1.8631                 2.1133
 Frc consts  --      1.2966                 0.9408                 1.1558
 IR Inten    --     20.9746                21.9878                16.8032

                     22                     23                     24
                      A                      A                      A
 Frequencies --   1014.6736              1027.8087              1052.7710
 Red. masses --      4.1232                 6.0560                 2.1747
 Frc consts  --      2.5011                 3.7693                 1.4201
 IR Inten    --     10.7140                70.3098                20.8831

                     25                     26                     27
                      A                      A                      A
 Frequencies --   1093.2156              1120.3864              1146.1977
 Red. masses --      2.4979                 1.9414                 2.2318
 Frc consts  --      1.7589                 1.4358                 1.7275
 IR Inten    --     55.9263                16.7950                49.8512

                     28                     29                     30
                      A                      A                      A
 Frequencies --   1164.9495              1214.7463              1276.6300
 Red. masses --      1.5898                 2.1802                 1.3143
 Frc consts  --      1.2712                 1.8955                 1.2620
 IR Inten    --      9.0786                24.0480                 1.8128

                     31                     32                     33
                      A                      A                      A
 Frequencies --   1284.7509              1322.3122              1348.6848
 Red. masses --      1.3548                 1.3143                 1.3692
 Frc consts  --      1.3175                 1.3540                 1.4673
 IR Inten    --      1.4462                20.2004                18.8339

                     34                     35                     36
                      A                      A                      A
 Frequencies --   1386.4038              1399.7766              1409.7980
 Red. masses --      1.6047                 1.5348                 1.2356
 Frc consts  --      1.8173                 1.7719                 1.4469
 IR Inten    --     30.8662                 6.0815                 2.5763

                     37                     38                     39
                      A                      A                      A
 Frequencies --   1479.9616              1498.2691              1509.9540
 Red. masses --      1.0734                 1.0444                 1.0614
 Frc consts  --      1.3852                 1.3814                 1.4258
 IR Inten    --      1.2495                 5.3421                 4.0283

                     40                     41                     42
                      A                      A                      A
 Frequencies --   1511.3604              2231.2414              3010.1389
 Red. masses --      1.1018                 5.9425                 1.0831
 Frc consts  --      1.4828                17.4306                 5.7823
 IR Inten    --      0.7360                 0.9956                36.6734

                     43                     44                     45
                      A                      A                      A
 Frequencies --   3023.1734              3032.5920              3037.7420
 Red. masses --      1.0663                 1.0561                 1.0369
 Frc consts  --      5.7419                 5.7226                 5.6374
 IR Inten    --     31.2337                43.6753                25.3927

                     46                     47                     48
                      A                      A                      A
 Frequencies --   3085.7220              3087.6883              3107.3856
 Red. masses --      1.0958                 1.1109                 1.0999
 Frc consts  --      6.1475                 6.2403                 6.2573
 IR Inten    --      4.5850                23.4587                41.9842

                     49                     50                     51
                      A                      A                      A
 Frequencies --   3121.9816              3498.8237              3811.8993
 Red. masses --      1.1018                 1.1619                 1.0662
 Frc consts  --      6.3271                 8.3801                 9.1281
 IR Inten    --     21.6015                72.9791                28.6907

 - Thermochemistry -
 -------------------
 Temperature   298.150 Kelvin.  Pressure   1.00000 Atm.
 Atom     1 has atomic number  6 and mass  12.00000

 Molecular mass:   126.06808 amu.
 Principal axes and moments of inertia in atomic units:
                           1         2         3
     Eigenvalues --   664.284471660.717801748.59227
           X            0.99973  -0.02331   0.00243
           Y            0.02318   0.99873   0.04474
           Z           -0.00347  -0.04467   0.99900
 This molecule is an asymmetric top.
 Rotational symmetry number  1.
 Warning -- assumption of classical behavior for rotation
           may cause significant error
 Rotational temperatures (Kelvin)      0.13039     0.05215     0.04953
 Rotational constants (GHZ):           2.71682     1.08672     1.03211
 Zero-point vibrational energy     409804.9 (Joules/Mol)
                                   97.94573 (Kcal/Mol)
 Warning -- explicit consideration of  13 degrees of freedom as
           vibrations may cause significant error
 Vibrational temperatures:     72.57   126.86   205.91   232.02   275.81
          (Kelvin)            326.13   414.32   431.16   559.14   562.69
                              690.85   771.51   849.50   907.86   924.47
                              959.86  1108.98  1222.47  1319.53  1331.96
                             1386.23  1459.89  1478.79  1514.70  1572.89
                             1611.98  1649.12  1676.10  1747.75  1836.78
                             1848.47  1902.51  1940.45  1994.72  2013.96
                             2028.38  2129.33  2155.67  2172.48  2174.51
                             3210.25  4330.91  4349.67  4363.22  4370.63
                             4439.66  4442.49  4470.83  4491.83  5034.02
                             5484.47

 Zero-point correction=                           0.156086 (Hartree/Particle)
 Thermal correction to Energy=                    0.165973
 Thermal correction to Enthalpy=                  0.166917
 Thermal correction to Gibbs Free Energy=         0.121002
 Sum of electronic and zero-point Energies=           -422.971548
 Sum of electronic and thermal Energies=              -422.961662
 Sum of electronic and thermal Enthalpies=            -422.960717
 Sum of electronic and thermal Free Energies=         -423.006632

                     E (Thermal)             CV                S
                      KCal/Mol        Cal/Mol-Kelvin    Cal/Mol-Kelvin
 Total                  104.149             36.108             96.636
 Electronic               0.000              0.000              0.000
 Translational            0.889              2.981             40.409
 Rotational               0.889              2.981             29.046
 Vibrational            102.372             30.147             27.181
 Vibration     1          0.595              1.977              4.800
 Vibration     2          0.601              1.957              3.700
 Vibration     3          0.616              1.910              2.762
 Vibration     4          0.622              1.890              2.535
 Vibration     5          0.634              1.851              2.211
 Vibration     6          0.650              1.800              1.905
 Vibration     7          0.685              1.696              1.486
 Vibration     8          0.692              1.674              1.419
 Vibration     9          0.757              1.494              1.005
 Vibration    10          0.759              1.489              0.996
 Vibration    11          0.837              1.294              0.710
 Vibration    12          0.891              1.170              0.573
 Vibration    13          0.948              1.052              0.466

 Optimization completed.
    -- Stationary point found.
 Normal termination of Gaussian 09 at Tue Jan 28 12:32:52 2020.
