 Gaussian 09, Revision D.01,
 Gaussian 09:  ES64L-G09RevD.01 24-Apr-2013

 -----------------------------
 # b3lyp 6-31G(2df,p) opt Freq
 -----------------------------

 -----
 titel
 -----
 Symbolic Z-matrix:
 Charge =  0 Multiplicity = 1

 SCF Done:  E(RB3LYP) =  -423.123845800     A.U. after   13 cycles
 Optimization completed.
    -- Stationary point found.
 Normal termination of Gaussian 09 at Mon Jan 27 18:42:25 2020.

 ----------------------------------------------------------------------
 #N Geom=AllCheck Guess=TCheck SCRF=Check GenChk RB3LYP/6-31G(2df,p) Fr
 eq
 ----------------------------------------------------------------------

 Structure from the checkpoint file:  "/scratch/puck/g09_9ca744ce-e722-4345-99e2-da3cc560a189/Gau-83020.chk"
 -----
 titel
 -----
 Charge =  0 Multiplicity = 1

                         Standard orientation:
 ---------------------------------------------------------------------
 Center     Atomic      Atomic             Coordinates (Angstroms)
 Number     Number       Type             X           Y           Z
 ---------------------------------------------------------------------
      1          8           0        0.743508    1.907761   -0.303665
      2          6           0        0.972476    0.585314    0.030444
      3          6           0        2.220572    0.059810    0.743743
      4          6           0        2.073515   -1.283659   -0.050092
      5          6           0        0.849741   -0.717099   -0.775581
      6          6           0       -0.197825   -0.321809    0.256104
      7          6           0       -1.518762    0.129429   -0.271960
      8          6           0       -2.692627    0.273586    0.596110
      9          8           0       -2.567033   -0.849170   -0.279203
     10          1           0        1.480093    2.214958   -0.843942
     11          1           0        3.122880    0.605277    0.450340
     12          1           0        2.179063    0.016402    1.837025
     13          1           0        2.922836   -1.476937   -0.708747
     14          1           0        1.889765   -2.176893    0.555340
     15          1           0        0.571354   -0.890565   -1.808235
     16          1           0       -0.267428   -0.896873    1.180186
     17          1           0       -1.475390    0.745517   -1.169105
     18          1           0       -2.603200    0.049702    1.658803
     19          1           0       -3.474313    0.987262    0.338680
 ---------------------------------------------------------------------

 SCF Done:  E(RB3LYP) =  -423.123845800     A.U. after    1 cycles

 The electronic state is 1-A.
 Alpha  occ. eigenvalues --  -19.15536 -19.14055 -10.24391 -10.23291 -10.22529
 Alpha  occ. eigenvalues --  -10.19261 -10.18971 -10.18935 -10.18871  -1.06040
 Alpha  occ. eigenvalues --   -1.04078  -0.89110  -0.75027  -0.66648  -0.65419
 Alpha  occ. eigenvalues --   -0.63041  -0.57435  -0.56472  -0.51889  -0.49713
 Alpha  occ. eigenvalues --   -0.47016  -0.44904  -0.43423  -0.41681  -0.39127
 Alpha  occ. eigenvalues --   -0.37897  -0.37144  -0.36420  -0.33628  -0.33011
 Alpha  occ. eigenvalues --   -0.30313  -0.27004  -0.25283  -0.24013
 Alpha virt. eigenvalues --    0.07068   0.09513   0.10082   0.11016   0.12034
 Alpha virt. eigenvalues --    0.12714   0.13239   0.14059   0.14684   0.15981
 Alpha virt. eigenvalues --    0.17357   0.19262   0.20158   0.21232   0.22816

 Mulliken charges:
               1
     1  O   -0.453932
     2  C    0.381172
     3  C   -0.296838
     4  C   -0.237050
     5  C   -0.150301
     6  C   -0.071652
     7  C    0.082369
     8  C   -0.188070
     9  O   -0.247701
    10  H    0.285579
    11  H    0.096682
    12  H    0.101220
    13  H    0.104368
    14  H    0.103740
    15  H    0.093645
    16  H    0.078531
    17  H    0.096452
    18  H    0.108710
    19  H    0.113073
 Sum of Mulliken charges =   0.00000

 Dipole moment (field-independent basis, Debye):
    X=              2.3055    Y=              1.1221    Z=             -0.0870  Tot=              2.5655
 Quadrupole moment (field-independent basis, Debye-Ang):
   XX=            -51.8771   YY=            -55.2099   ZZ=            -50.4417
   XY=             -2.1456   XZ=             -3.9326   YZ=             -2.8095

  Exact polarizability:  92.436  -3.344  69.907  -3.587  -0.646  67.527
 Approx polarizability: 116.530   0.237 108.236  -6.461   1.592 104.315

                      1                      2                      3
                      A                      A                      A
 Frequencies --     66.9195               147.5270               155.8150
 Red. masses --      3.5658                 4.6513                 2.9081
 Frc consts  --      0.0094                 0.0596                 0.0416
 IR Inten    --      2.3165                 2.7448                 0.5005

                      4                      5                      6
                      A                      A                      A
 Frequencies --    226.0623               302.3943               325.6910
 Red. masses --      1.9643                 3.6790                 1.2550
 Frc consts  --      0.0591                 0.1982                 0.0784
 IR Inten    --      1.1064                 6.2190                65.7970

                      7                      8                      9
                      A                      A                      A
 Frequencies --    385.2229               422.8852               447.8074
 Red. masses --      2.6841                 2.7848                 3.5452
 Frc consts  --      0.2347                 0.2934                 0.4189
 IR Inten    --     20.0356                 2.8470                15.5707

                     10                     11                     12
                      A                      A                      A
 Frequencies --    489.7276               679.9280               710.8802
 Red. masses --      3.5049                 5.3374                 3.2703
 Frc consts  --      0.4953                 1.4538                 0.9737
 IR Inten    --      7.4253                11.8919                 3.2005

                     13                     14                     15
                      A                      A                      A
 Frequencies --    786.6083               848.0172               854.8255
 Red. masses --      1.2537                 6.9328                 1.8312
 Frc consts  --      0.4570                 2.9375                 0.7884
 IR Inten    --      5.2903                19.9617                20.0994

                     16                     17                     18
                      A                      A                      A
 Frequencies --    885.4754               932.8347               941.9914
 Red. masses --      2.4235                 2.2998                 1.9032
 Frc consts  --      1.1195                 1.1791                 0.9950
 IR Inten    --      9.4064                 3.8283                 4.1749

                     19                     20                     21
                      A                      A                      A
 Frequencies --    966.6034               985.0291               997.3757
 Red. masses --      2.5852                 2.0533                 1.7616
 Frc consts  --      1.4231                 1.1738                 1.0325
 IR Inten    --      4.6956                18.9868                 2.5473

                     22                     23                     24
                      A                      A                      A
 Frequencies --   1066.0559              1082.8381              1093.9669
 Red. masses --      1.8009                 1.4390                 1.5888
 Frc consts  --      1.2059                 0.9941                 1.1202
 IR Inten    --     14.0158                 1.0649                 1.0116

                     25                     26                     27
                      A                      A                      A
 Frequencies --   1103.2486              1153.0121              1166.4121
 Red. masses --      1.3621                 1.4129                 1.3685
 Frc consts  --      0.9768                 1.1067                 1.0970
 IR Inten    --      5.4290                 1.3582                 4.3531

                     28                     29                     30
                      A                      A                      A
 Frequencies --   1181.8947              1194.1981              1212.9620
 Red. masses --      1.9048                 1.5864                 1.2409
 Frc consts  --      1.5677                 1.3329                 1.0757
 IR Inten    --      1.2218                16.8425                 0.1607

                     31                     32                     33
                      A                      A                      A
 Frequencies --   1223.0730              1247.3597              1277.7133
 Red. masses --      1.5102                 1.6548                 1.5284
 Frc consts  --      1.3311                 1.5169                 1.4701
 IR Inten    --      6.0270                22.5279                 7.0987

                     34                     35                     36
                      A                      A                      A
 Frequencies --   1293.0673              1303.8296              1326.0012
 Red. masses --      1.5320                 1.5569                 2.5348
 Frc consts  --      1.5092                 1.5594                 2.6259
 IR Inten    --     11.9619                93.5603                80.0519

                     37                     38                     39
                      A                      A                      A
 Frequencies --   1427.5833              1476.2439              1483.1271
 Red. masses --      2.1677                 1.5289                 1.2133
 Frc consts  --      2.6029                 1.9631                 1.5724
 IR Inten    --      4.7445                16.7718                 3.4435

                     40                     41                     42
                      A                      A                      A
 Frequencies --   1506.9721              1534.3546              3040.5264
 Red. masses --      1.2207                 1.5086                 1.0573
 Frc consts  --      1.6334                 2.0926                 5.7590
 IR Inten    --      5.2046                10.4665                46.6208

                     43                     44                     45
                      A                      A                      A
 Frequencies --   3052.0121              3078.3983              3087.0560
 Red. masses --      1.0621                 1.0503                 1.1073
 Frc consts  --      5.8292                 5.8644                 6.2173
 IR Inten    --     52.8275                28.9504                 7.6328

                     46                     47                     48
                      A                      A                      A
 Frequencies --   3093.9010              3110.8822              3122.3251
 Red. masses --      1.0883                 1.1051                 1.0883
 Frc consts  --      6.1380                 6.3010                 6.2513
 IR Inten    --     13.6192                40.4944                14.7729

                     49                     50                     51
                      A                      A                      A
 Frequencies --   3164.4189              3186.0552              3793.0607
 Red. masses --      1.1189                 1.0927                 1.0659
 Frc consts  --      6.6012                 6.5353                 9.0355
 IR Inten    --     32.2329                11.4759                20.6308

 - Thermochemistry -
 -------------------
 Temperature   298.150 Kelvin.  Pressure   1.00000 Atm.
 Atom     1 has atomic number  8 and mass  15.99491

 Molecular mass:   126.06808 amu.
 Principal axes and moments of inertia in atomic units:
                           1         2         3
     Eigenvalues --   550.081631598.003901886.64546
           X            0.99960  -0.02774  -0.00469
           Y            0.02764   0.99942  -0.01965
           Z            0.00523   0.01951   0.99980
 This molecule is an asymmetric top.
 Rotational symmetry number  1.
 Warning -- assumption of classical behavior for rotation
           may cause significant error
 Rotational temperatures (Kelvin)      0.15746     0.05420     0.04591
 Rotational constants (GHZ):           3.28086     1.12937     0.95659
 Zero-point vibrational energy     416552.7 (Joules/Mol)
                                   99.55848 (Kcal/Mol)
 Warning -- explicit consideration of  10 degrees of freedom as
           vibrations may cause significant error
 Vibrational temperatures:     96.28   212.26   224.18   325.25   435.08
          (Kelvin)            468.60   554.25   608.44   644.29   704.61
                              978.26  1022.80  1131.75  1220.11  1229.90
                             1274.00  1342.14  1355.31  1390.72  1417.24
                             1435.00  1533.81  1557.96  1573.97  1587.33
                             1658.93  1678.20  1700.48  1718.18  1745.18
                             1759.73  1794.67  1838.34  1860.43  1875.92
                             1907.82  2053.97  2123.98  2133.89  2168.19
                             2207.59  4374.63  4391.16  4429.12  4441.58
                             4451.43  4475.86  4492.32  4552.89  4584.02
                             5457.36

 Zero-point correction=                           0.158657 (Hartree/Particle)
 Thermal correction to Energy=                    0.167013
 Thermal correction to Enthalpy=                  0.167957
 Thermal correction to Gibbs Free Energy=         0.125463
 Sum of electronic and zero-point Energies=           -422.965189
 Sum of electronic and thermal Energies=              -422.956833
 Sum of electronic and thermal Enthalpies=            -422.955889
 Sum of electronic and thermal Free Energies=         -422.998383

                     E (Thermal)             CV                S
                      KCal/Mol        Cal/Mol-Kelvin    Cal/Mol-Kelvin
 Total                  104.802             32.101             89.436
 Electronic               0.000              0.000              0.000
 Translational            0.889              2.981             40.409
 Rotational               0.889              2.981             28.896
 Vibrational            103.025             26.140             20.131
 Vibration     1          0.598              1.970              4.242
 Vibration     2          0.617              1.905              2.704
 Vibration     3          0.620              1.896              2.600
 Vibration     4          0.650              1.801              1.910
 Vibration     5          0.694              1.669              1.404
 Vibration     6          0.710              1.624              1.281
 Vibration     7          0.754              1.502              1.019
 Vibration     8          0.785              1.420              0.882
 Vibration     9          0.807              1.366              0.802
 Vibration    10          0.846              1.273              0.684

 Normal termination of Gaussian 09 at Mon Jan 27 19:29:44 2020.
