 Gaussian 09, Revision D.01,
 Gaussian 09:  ES64L-G09RevD.01 24-Apr-2013

 -----------------------------
 # b3lyp 6-31G(2df,p) opt Freq
 -----------------------------

 -----
 titel
 -----
 Symbolic Z-matrix:
 Charge =  0 Multiplicity = 1

 SCF Done:  E(RB3LYP) =  -423.205513562     A.U. after   14 cycles
 Optimization completed.
    -- Stationary point found.
 Normal termination of Gaussian 09 at Tue Jan 28 02:06:32 2020.

 ----------------------------------------------------------------------
 #N Geom=AllCheck Guess=TCheck SCRF=Check GenChk RB3LYP/6-31G(2df,p) Fr
 eq
 ----------------------------------------------------------------------

 Structure from the checkpoint file:  "/scratch/puck/g09_edfa2cdb-3140-4e12-ac09-42d2ed3330c5/Gau-193995.chk"
 -----
 titel
 -----
 Charge =  0 Multiplicity = 1

                         Standard orientation:
 ---------------------------------------------------------------------
 Center     Atomic      Atomic             Coordinates (Angstroms)
 Number     Number       Type             X           Y           Z
 ---------------------------------------------------------------------
      1          6           0        2.626641    0.268906   -0.523341
      2          6           0        1.564451   -0.752740   -0.214108
      3          8           0        1.026783   -0.779208    1.105816
      4          6           0        0.137642   -0.445032    0.028945
      5          6           0       -1.007685   -1.392505   -0.298252
      6          6           0       -2.285781   -0.590013    0.039656
      7          6           0       -1.916804    0.863742   -0.305739
      8          6           0       -0.433934    0.969525    0.047508
      9          8           0        0.165309    1.976739    0.327051
     10          1           0        2.763634    0.352881   -1.606946
     11          1           0        2.353842    1.243430   -0.119167
     12          1           0        3.581359   -0.047964   -0.090365
     13          1           0        1.749419   -1.751626   -0.619952
     14          1           0       -0.991664   -1.637877   -1.367291
     15          1           0       -0.919265   -2.326813    0.260336
     16          1           0       -3.164629   -0.948980   -0.500294
     17          1           0       -2.502463   -0.670123    1.110434
     18          1           0       -2.016258    1.043640   -1.385650
     19          1           0       -2.497900    1.631898    0.207942
 ---------------------------------------------------------------------

 SCF Done:  E(RB3LYP) =  -423.205513562     A.U. after    1 cycles

 The electronic state is 1-A.
 Alpha  occ. eigenvalues --  -19.15645 -19.13666 -10.27091 -10.24512 -10.24316
 Alpha  occ. eigenvalues --  -10.19793 -10.19618 -10.19537 -10.17619  -1.07886
 Alpha  occ. eigenvalues --   -1.04247  -0.83768  -0.74371  -0.71716  -0.68264
 Alpha  occ. eigenvalues --   -0.61184  -0.59412  -0.52495  -0.50188  -0.48112
 Alpha  occ. eigenvalues --   -0.45689  -0.44435  -0.42450  -0.41545  -0.40790
 Alpha  occ. eigenvalues --   -0.39527  -0.38246  -0.37613  -0.35783  -0.35307
 Alpha  occ. eigenvalues --   -0.34429  -0.29547  -0.27621  -0.23973
 Alpha virt. eigenvalues --   -0.03484   0.08696   0.10347   0.11277   0.12788
 Alpha virt. eigenvalues --    0.13378   0.13892   0.14597   0.16155   0.17058
 Alpha virt. eigenvalues --    0.18278   0.18773   0.18965   0.20457   0.21946

 Mulliken charges:
               1
     1  C   -0.438014
     2  C    0.005089
     3  O   -0.279191
     4  C    0.305574
     5  C   -0.306095
     6  C   -0.229345
     7  C   -0.317545
     8  C    0.354215
     9  O   -0.313412
    10  H    0.117350
    11  H    0.166596
    12  H    0.126653
    13  H    0.088784
    14  H    0.108929
    15  H    0.122718
    16  H    0.107106
    17  H    0.119374
    18  H    0.129563
    19  H    0.131654
 Sum of Mulliken charges =   0.00000

 Dipole moment (field-independent basis, Debye):
    X=             -1.5087    Y=             -1.8701    Z=             -2.2121  Tot=              3.2660
 Quadrupole moment (field-independent basis, Debye-Ang):
   XX=            -48.3129   YY=            -57.3272   ZZ=            -53.9002
   XY=             -1.2737   XZ=             -2.1015   YZ=              0.2510

  Exact polarizability:  93.421  -0.473  74.998  -0.473   1.362  60.700
 Approx polarizability: 119.360   0.334 112.602   2.499   2.791  99.894

                      1                      2                      3
                      A                      A                      A
 Frequencies --     61.2491               168.8113               176.6628
 Red. masses --      3.2277                 2.1192                 1.9408
 Frc consts  --      0.0071                 0.0356                 0.0357
 IR Inten    --      1.5731                 0.2856                 2.6762

                      4                      5                      6
                      A                      A                      A
 Frequencies --    209.9742               231.5083               282.0201
 Red. masses --      1.4792                 3.1115                 3.3700
 Frc consts  --      0.0384                 0.0983                 0.1579
 IR Inten    --      2.8776                 1.2956                 0.1752

                      7                      8                      9
                      A                      A                      A
 Frequencies --    387.7137               430.3206               470.1756
 Red. masses --      3.0548                 4.0526                 3.1464
 Frc consts  --      0.2706                 0.4421                 0.4098
 IR Inten    --      0.5279                 2.1945                 6.5049

                     10                     11                     12
                      A                      A                      A
 Frequencies --    526.8901               581.4541               649.5145
 Red. masses --      2.2847                 3.3932                 2.6200
 Frc consts  --      0.3737                 0.6759                 0.6512
 IR Inten    --      5.5346                 5.2196                 9.4607

                     13                     14                     15
                      A                      A                      A
 Frequencies --    678.3520               759.8429               828.4089
 Red. masses --      4.8752                 3.2832                 2.0256
 Frc consts  --      1.3218                 1.1169                 0.8190
 IR Inten    --      1.7455                 3.6756                19.1304

                     16                     17                     18
                      A                      A                      A
 Frequencies --    862.9500               901.5685               920.7762
 Red. masses --      2.1399                 2.1723                 2.4532
 Frc consts  --      0.9389                 1.0403                 1.2255
 IR Inten    --      9.0902                 5.1172                 3.7647

                     19                     20                     21
                      A                      A                      A
 Frequencies --    960.7426              1004.8444              1031.3989
 Red. masses --      1.9802                 2.1375                 1.8103
 Frc consts  --      1.0769                 1.2716                 1.1346
 IR Inten    --     30.0120                 3.5978                14.9254

                     22                     23                     24
                      A                      A                      A
 Frequencies --   1039.0293              1085.7856              1126.5926
 Red. masses --      1.6342                 3.2580                 2.1299
 Frc consts  --      1.0394                 2.2630                 1.5927
 IR Inten    --      8.2632                26.4599                 8.2622

                     25                     26                     27
                      A                      A                      A
 Frequencies --   1147.2848              1166.9213              1186.8697
 Red. masses --      1.6009                 1.7655                 1.5809
 Frc consts  --      1.2415                 1.4164                 1.3121
 IR Inten    --      2.5223                33.2037                11.7163

                     28                     29                     30
                      A                      A                      A
 Frequencies --   1226.0323              1255.9208              1299.5667
 Red. masses --      1.9602                 1.4542                 1.4659
 Frc consts  --      1.7360                 1.3515                 1.4586
 IR Inten    --     14.8248                 3.7018                 1.8272

                     31                     32                     33
                      A                      A                      A
 Frequencies --   1312.6070              1338.2612              1366.0672
 Red. masses --      1.3757                 1.3587                 1.5012
 Frc consts  --      1.3965                 1.4337                 1.6506
 IR Inten    --      1.0044                 0.8456                 6.7014

                     34                     35                     36
                      A                      A                      A
 Frequencies --   1403.7077              1451.5729              1455.7060
 Red. masses --      1.2933                 1.0879                 1.8249
 Frc consts  --      1.5014                 1.3505                 2.2784
 IR Inten    --     10.5107                 7.6071                29.6488

                     37                     38                     39
                      A                      A                      A
 Frequencies --   1478.9702              1497.2406              1501.7010
 Red. masses --      1.0871                 1.1237                 1.1483
 Frc consts  --      1.4010                 1.4842                 1.5258
 IR Inten    --      6.0263                 5.4503                12.2027

                     40                     41                     42
                      A                      A                      A
 Frequencies --   1506.8003              1838.1438              3021.7655
 Red. masses --      1.2313                12.4770                 1.0694
 Frc consts  --      1.6471                24.8382                 5.7530
 IR Inten    --      2.5471               144.4417                 6.9869

                     43                     44                     45
                      A                      A                      A
 Frequencies --   3033.8749              3039.5895              3052.1407
 Red. masses --      1.0685                 1.0396                 1.0628
 Frc consts  --      5.7943                 5.6589                 5.8335
 IR Inten    --     14.6010                23.4158                29.3639

                     46                     47                     48
                      A                      A                      A
 Frequencies --   3066.3383              3098.7338              3103.9800
 Red. masses --      1.0849                 1.1003                 1.0966
 Frc consts  --      6.0100                 6.2248                 6.2252
 IR Inten    --     37.4068                17.2363                18.4932

                     49                     50                     51
                      A                      A                      A
 Frequencies --   3111.6592              3118.2639              3163.2646
 Red. masses --      1.0988                 1.0955                 1.0986
 Frc consts  --      6.2682                 6.2763                 6.4769
 IR Inten    --     19.5683                12.9594                 1.4211

 - Thermochemistry -
 -------------------
 Temperature   298.150 Kelvin.  Pressure   1.00000 Atm.
 Atom     1 has atomic number  6 and mass  12.00000

 Molecular mass:   126.06808 amu.
 Principal axes and moments of inertia in atomic units:
                           1         2         3
     Eigenvalues --   655.252111230.350691631.33998
           X            0.99973   0.01842  -0.01401
           Y           -0.01834   0.99981   0.00610
           Z            0.01411  -0.00584   0.99988
 This molecule is an asymmetric top.
 Rotational symmetry number  1.
 Warning -- assumption of classical behavior for rotation
           may cause significant error
 Rotational temperatures (Kelvin)      0.13218     0.07040     0.05309
 Rotational constants (GHZ):           2.75427     1.46685     1.10629
 Zero-point vibrational energy     416417.5 (Joules/Mol)
                                   99.52617 (Kcal/Mol)
 Warning -- explicit consideration of  11 degrees of freedom as
           vibrations may cause significant error
 Vibrational temperatures:     88.12   242.88   254.18   302.11   333.09
          (Kelvin)            405.76   557.83   619.13   676.48   758.08
                              836.58   934.51   976.00  1093.24  1191.89
                             1241.59  1297.15  1324.79  1382.29  1445.75
                             1483.95  1494.93  1562.20  1620.91  1650.68
                             1678.94  1707.64  1763.98  1806.99  1869.78
                             1888.55  1925.46  1965.46  2019.62  2088.49
                             2094.43  2127.91  2154.19  2160.61  2167.95
                             2644.68  4347.64  4365.06  4373.29  4391.34
                             4411.77  4458.38  4465.93  4476.98  4486.48
                             4551.23

 Zero-point correction=                           0.158605 (Hartree/Particle)
 Thermal correction to Energy=                    0.167127
 Thermal correction to Enthalpy=                  0.168071
 Thermal correction to Gibbs Free Energy=         0.125371
 Sum of electronic and zero-point Energies=           -423.046909
 Sum of electronic and thermal Energies=              -423.038387
 Sum of electronic and thermal Enthalpies=            -423.037442
 Sum of electronic and thermal Free Energies=         -423.080143

                     E (Thermal)             CV                S
                      KCal/Mol        Cal/Mol-Kelvin    Cal/Mol-Kelvin
 Total                  104.874             32.352             89.870
 Electronic               0.000              0.000              0.000
 Translational            0.889              2.981             40.409
 Rotational               0.889              2.981             28.666
 Vibrational            103.096             26.391             20.796
 Vibration     1          0.597              1.973              4.417
 Vibration     2          0.625              1.881              2.449
 Vibration     3          0.628              1.871              2.363
 Vibration     4          0.642              1.826              2.044
 Vibration     5          0.653              1.793              1.867
 Vibration     6          0.681              1.707              1.521
 Vibration     7          0.756              1.496              1.009
 Vibration     8          0.792              1.404              0.858
 Vibration     9          0.827              1.316              0.737
 Vibration    10          0.882              1.190              0.594
 Vibration    11          0.938              1.071              0.483

 Optimization completed.
    -- Stationary point found.
 Normal termination of Gaussian 09 at Tue Jan 28 02:48:26 2020.
