 Gaussian 09, Revision D.01,
 Gaussian 09:  ES64L-G09RevD.01 24-Apr-2013

 -----------------------------
 # b3lyp 6-31G(2df,p) opt Freq
 -----------------------------

 -----
 titel
 -----
 Symbolic Z-matrix:
 Charge =  0 Multiplicity = 1

 SCF Done:  E(RB3LYP) =  -423.114467404     A.U. after   13 cycles
 Optimization completed.
    -- Stationary point found.
 Normal termination of Gaussian 09 at Tue Jan 28 09:22:45 2020.

 ----------------------------------------------------------------------
 #N Geom=AllCheck Guess=TCheck SCRF=Check GenChk RB3LYP/6-31G(2df,p) Fr
 eq
 ----------------------------------------------------------------------

 Structure from the checkpoint file:  "/scratch/puck/g09_7365a8de-8a19-4632-b5af-ab4eb94406fc/Gau-82543.chk"
 -----
 titel
 -----
 Charge =  0 Multiplicity = 1

                         Standard orientation:
 ---------------------------------------------------------------------
 Center     Atomic      Atomic             Coordinates (Angstroms)
 Number     Number       Type             X           Y           Z
 ---------------------------------------------------------------------
      1          6           0        2.552421    0.379278    0.176452
      2          8           0        1.679433   -0.340946   -0.687812
      3          6           0        0.407804   -0.431303   -0.216772
      4          6           0       -0.683575   -1.382772   -0.581290
      5          6           0       -1.660710   -0.258319   -0.924240
      6          6           0       -0.770705    0.635279   -0.010584
      7          8           0       -0.601287    1.992571   -0.236301
      8          6           0       -0.986406    0.052266    1.417034
      9          6           0       -0.256768   -1.189783    0.908796
     10          1           0        2.633753   -0.113978    1.154453
     11          1           0        3.532262    0.392875   -0.305126
     12          1           0        2.203238    1.408733    0.321479
     13          1           0       -0.578954   -2.350366   -1.053573
     14          1           0       -1.569460    0.040633   -1.971855
     15          1           0       -2.716680   -0.369924   -0.650045
     16          1           0       -1.449743    2.434698   -0.116570
     17          1           0       -0.393478    0.596058    2.157643
     18          1           0       -2.021623   -0.050460    1.764275
     19          1           0        0.123148   -2.029151    1.475857
 ---------------------------------------------------------------------

 SCF Done:  E(RB3LYP) =  -423.114467404     A.U. after    1 cycles

 The electronic state is 1-A.
 Alpha  occ. eigenvalues --  -19.15219 -19.14579 -10.23858 -10.22984 -10.22225
 Alpha  occ. eigenvalues --  -10.18724 -10.18680 -10.17914 -10.17899  -1.04735
 Alpha  occ. eigenvalues --   -1.02908  -0.91572  -0.72012  -0.71156  -0.68370
 Alpha  occ. eigenvalues --   -0.61663  -0.54231  -0.54141  -0.53142  -0.46816
 Alpha  occ. eigenvalues --   -0.45946  -0.45240  -0.43155  -0.42722  -0.41733
 Alpha  occ. eigenvalues --   -0.37588  -0.36382  -0.35601  -0.34633  -0.32211
 Alpha  occ. eigenvalues --   -0.29090  -0.26642  -0.24313  -0.22474
 Alpha virt. eigenvalues --    0.06939   0.10660   0.11713   0.12476   0.12571
 Alpha virt. eigenvalues --    0.14390   0.14443   0.15092   0.16712   0.17279
 Alpha virt. eigenvalues --    0.17721   0.18530   0.18882   0.19225   0.23254

 Mulliken charges:
               1
     1  C   -0.263512
     2  O   -0.275650
     3  C    0.393001
     4  C   -0.147012
     5  C   -0.294126
     6  C    0.302597
     7  O   -0.482515
     8  C   -0.287669
     9  C   -0.154373
    10  H    0.111764
    11  H    0.126704
    12  H    0.134708
    13  H    0.093258
    14  H    0.107744
    15  H    0.082380
    16  H    0.280956
    17  H    0.099453
    18  H    0.083199
    19  H    0.089093
 Sum of Mulliken charges =   0.00000

 Dipole moment (field-independent basis, Debye):
    X=             -0.9375    Y=              0.3166    Z=              1.1604  Tot=              1.5250
 Quadrupole moment (field-independent basis, Debye-Ang):
   XX=            -48.4098   YY=            -51.8438   ZZ=            -54.0493
   XY=             -2.2689   XZ=              2.3012   YZ=              0.5224

  Exact polarizability:  82.767   0.407  73.221   2.032   0.473  69.977
 Approx polarizability: 113.181   1.138 108.886   0.076   0.075 106.031

                      1                      2                      3
                      A                      A                      A
 Frequencies --     89.2333               139.3251               153.1587
 Red. masses --      3.1051                 1.2948                 1.7942
 Frc consts  --      0.0146                 0.0148                 0.0248
 IR Inten    --      4.3701                75.2735                19.7123

                      4                      5                      6
                      A                      A                      A
 Frequencies --    173.5547               237.9723               320.3226
 Red. masses --      1.2140                 3.5684                 3.3516
 Frc consts  --      0.0215                 0.1191                 0.2026
 IR Inten    --      0.5375                 0.1441                 2.7125

                      7                      8                      9
                      A                      A                      A
 Frequencies --    384.2690               422.3133               484.1942
 Red. masses --      2.5493                 2.8942                 2.8827
 Frc consts  --      0.2218                 0.3041                 0.3982
 IR Inten    --      9.0069                 6.0556                13.7234

                     10                     11                     12
                      A                      A                      A
 Frequencies --    506.0194               596.7853               656.1173
 Red. masses --      2.6399                 5.2316                 3.3135
 Frc consts  --      0.3983                 1.0978                 0.8404
 IR Inten    --      3.0483                11.4950                 7.9687

                     13                     14                     15
                      A                      A                      A
 Frequencies --    726.3684               756.4651               829.8555
 Red. masses --      3.3032                 3.3381                 2.4976
 Frc consts  --      1.0268                 1.1255                 1.0134
 IR Inten    --      1.3099                11.6366                 2.6541

                     16                     17                     18
                      A                      A                      A
 Frequencies --    879.2829               896.8922               943.5786
 Red. masses --      2.0533                 1.7356                 1.8290
 Frc consts  --      0.9353                 0.8226                 0.9594
 IR Inten    --      0.6800                 0.4181                 1.5514

                     19                     20                     21
                      A                      A                      A
 Frequencies --    977.6052               991.4037              1012.4570
 Red. masses --      1.6052                 1.4893                 2.6458
 Frc consts  --      0.9039                 0.8625                 1.5979
 IR Inten    --     12.2198                 3.0699                13.2216

                     22                     23                     24
                      A                      A                      A
 Frequencies --   1047.3773              1065.3132              1092.7014
 Red. masses --      4.4684                 1.8689                 2.0875
 Frc consts  --      2.8881                 1.2496                 1.4685
 IR Inten    --     56.0690                23.6674                 1.9044

                     25                     26                     27
                      A                      A                      A
 Frequencies --   1108.1615              1115.2328              1158.0008
 Red. masses --      2.0362                 1.5174                 1.5712
 Frc consts  --      1.4732                 1.1120                 1.2414
 IR Inten    --     21.4701                 3.7573                 5.9926

                     28                     29                     30
                      A                      A                      A
 Frequencies --   1180.8147              1201.0208              1219.4246
 Red. masses --      1.2819                 1.8224                 1.4776
 Frc consts  --      1.0531                 1.5488                 1.2946
 IR Inten    --      2.0172                14.7006                 6.4218

                     31                     32                     33
                      A                      A                      A
 Frequencies --   1238.4049              1257.4107              1277.5742
 Red. masses --      1.6812                 2.4403                 1.8849
 Frc consts  --      1.5191                 2.2732                 1.8126
 IR Inten    --      1.9632                47.3343                 6.9621

                     34                     35                     36
                      A                      A                      A
 Frequencies --   1285.0370              1369.8856              1437.4349
 Red. masses --      1.9353                 2.5316                 1.7434
 Frc consts  --      1.8829                 2.7991                 2.1223
 IR Inten    --    171.7885                21.3420                78.1916

                     37                     38                     39
                      A                      A                      A
 Frequencies --   1484.2721              1486.6212              1499.2272
 Red. masses --      1.1244                 1.0518                 1.2476
 Frc consts  --      1.4595                 1.3696                 1.6522
 IR Inten    --      1.1984                 5.4277                 8.8208

                     40                     41                     42
                      A                      A                      A
 Frequencies --   1507.5351              1520.4931              3004.5173
 Red. masses --      1.0495                 1.8457                 1.0349
 Frc consts  --      1.4053                 2.5141                 5.5044
 IR Inten    --     13.3925                50.5229                47.4261

                     43                     44                     45
                      A                      A                      A
 Frequencies --   3023.3511              3031.6083              3069.9730
 Red. masses --      1.0612                 1.0604                 1.1025
 Frc consts  --      5.7151                 5.7420                 6.1219
 IR Inten    --     30.4089                80.0675                31.6792

                     46                     47                     48
                      A                      A                      A
 Frequencies --   3098.0589              3103.5453              3128.6763
 Red. masses --      1.1028                 1.1034                 1.1008
 Frc consts  --      6.2362                 6.2618                 6.3485
 IR Inten    --     23.8747                26.5631                27.3928

                     49                     50                     51
                      A                      A                      A
 Frequencies --   3201.4138              3210.2719              3788.8268
 Red. masses --      1.0923                 1.0947                 1.0657
 Frc consts  --      6.5958                 6.6472                 9.0138
 IR Inten    --      4.1162                16.5986                19.3477

 - Thermochemistry -
 -------------------
 Temperature   298.150 Kelvin.  Pressure   1.00000 Atm.
 Atom     1 has atomic number  6 and mass  12.00000

 Molecular mass:   126.06808 amu.
 Principal axes and moments of inertia in atomic units:
                           1         2         3
     Eigenvalues --   742.118701090.031711299.50815
           X            0.99933   0.02563   0.02609
           Y           -0.02599   0.99957   0.01388
           Z           -0.02573  -0.01455   0.99956
 This molecule is an asymmetric top.
 Rotational symmetry number  1.
 Warning -- assumption of classical behavior for rotation
           may cause significant error
 Rotational temperatures (Kelvin)      0.11671     0.07946     0.06665
 Rotational constants (GHZ):           2.43188     1.65568     1.38879
 Zero-point vibrational energy     415040.5 (Joules/Mol)
                                   99.19707 (Kcal/Mol)
 Warning -- explicit consideration of  11 degrees of freedom as
           vibrations may cause significant error
 Vibrational temperatures:    128.39   200.46   220.36   249.71   342.39
          (Kelvin)            460.87   552.88   607.61   696.65   728.05
                              858.64   944.01  1045.08  1088.38  1193.98
                             1265.09  1290.43  1357.60  1406.55  1426.41
                             1456.70  1506.94  1532.75  1572.15  1594.40
                             1604.57  1666.10  1698.93  1728.00  1754.48
                             1781.79  1809.13  1838.14  1848.88  1970.96
                             2068.15  2135.53  2138.91  2157.05  2169.00
                             2187.65  4322.82  4349.92  4361.80  4417.00
                             4457.41  4465.30  4501.46  4606.11  4618.86
                             5451.27

 Zero-point correction=                           0.158081 (Hartree/Particle)
 Thermal correction to Energy=                    0.166664
 Thermal correction to Enthalpy=                  0.167608
 Thermal correction to Gibbs Free Energy=         0.124991
 Sum of electronic and zero-point Energies=           -422.956387
 Sum of electronic and thermal Energies=              -422.947804
 Sum of electronic and thermal Enthalpies=            -422.946859
 Sum of electronic and thermal Free Energies=         -422.989477

                     E (Thermal)             CV                S
                      KCal/Mol        Cal/Mol-Kelvin    Cal/Mol-Kelvin
 Total                  104.583             32.729             89.696
 Electronic               0.000              0.000              0.000
 Translational            0.889              2.981             40.409
 Rotational               0.889              2.981             28.443
 Vibrational            102.806             26.768             20.844
 Vibration     1          0.602              1.957              3.677
 Vibration     2          0.615              1.914              2.813
 Vibration     3          0.619              1.899              2.633
 Vibration     4          0.627              1.875              2.397
 Vibration     5          0.656              1.782              1.818
 Vibration     6          0.706              1.635              1.308
 Vibration     7          0.753              1.504              1.022
 Vibration     8          0.785              1.422              0.884
 Vibration     9          0.840              1.285              0.699
 Vibration    10          0.861              1.237              0.643
 Vibration    11          0.955              1.039              0.455

 Optimization completed.
    -- Stationary point found.
 Normal termination of Gaussian 09 at Tue Jan 28 10:21:40 2020.
