 Gaussian 09, Revision D.01,
 Gaussian 09:  ES64L-G09RevD.01 24-Apr-2013

 -----------------------------
 # b3lyp 6-31G(2df,p) opt Freq
 -----------------------------

 -----
 titel
 -----
 Symbolic Z-matrix:
 Charge =  0 Multiplicity = 1

 SCF Done:  E(RB3LYP) =  -423.244411683     A.U. after   14 cycles
 Optimization completed.
    -- Stationary point found.
 Normal termination of Gaussian 09 at Mon Jan 27 22:01:12 2020.

 ----------------------------------------------------------------------
 #N Geom=AllCheck Guess=TCheck SCRF=Check GenChk RB3LYP/6-31G(2df,p) Fr
 eq
 ----------------------------------------------------------------------

 Structure from the checkpoint file:  "/scratch/puck/g09_f4220710-29ea-42e2-99f6-f89cf9e8c275/Gau-45693.chk"
 -----
 titel
 -----
 Charge =  0 Multiplicity = 1

                         Standard orientation:
 ---------------------------------------------------------------------
 Center     Atomic      Atomic             Coordinates (Angstroms)
 Number     Number       Type             X           Y           Z
 ---------------------------------------------------------------------
      1          6           0       -1.183321    1.772780   -0.656318
      2          6           0       -0.338871    0.632278   -0.110680
      3          6           0        0.670641    1.017466    0.992484
      4          6           0        1.770092   -0.062777    0.932476
      5          6           0        1.875569   -0.403051   -0.569160
      6          6           0        0.443486   -0.308255   -1.072369
      7          8           0       -0.376528   -1.448430   -0.622072
      8          6           0       -1.109447   -0.653337    0.221067
      9          8           0       -2.017061   -0.976388    0.919701
     10          1           0       -1.838566    1.439723   -1.467132
     11          1           0       -1.817440    2.187151    0.133579
     12          1           0       -0.547903    2.578780   -1.038040
     13          1           0        1.090299    2.001697    0.750247
     14          1           0        0.195338    1.096622    1.973999
     15          1           0        2.717619    0.275451    1.358016
     16          1           0        1.460717   -0.950053    1.494169
     17          1           0        2.476380    0.351736   -1.091666
     18          1           0        2.321566   -1.380435   -0.771191
     19          1           0        0.321810   -0.172741   -2.148009
 ---------------------------------------------------------------------

 SCF Done:  E(RB3LYP) =  -423.244411683     A.U. after    1 cycles

 The electronic state is 1-A.
 Alpha  occ. eigenvalues --  -19.17475 -19.12928 -10.29908 -10.24896 -10.21269
 Alpha  occ. eigenvalues --  -10.19743 -10.19617 -10.19329 -10.19301  -1.09964
 Alpha  occ. eigenvalues --   -1.02654  -0.84806  -0.77242  -0.72159  -0.67627
 Alpha  occ. eigenvalues --   -0.62782  -0.58897  -0.52290  -0.51115  -0.48887
 Alpha  occ. eigenvalues --   -0.46651  -0.44819  -0.43029  -0.42459  -0.41369
 Alpha  occ. eigenvalues --   -0.40226  -0.37759  -0.35926  -0.35265  -0.34674
 Alpha  occ. eigenvalues --   -0.34220  -0.31975  -0.29516  -0.26376
 Alpha virt. eigenvalues --    0.01529   0.07613   0.08923   0.10625   0.11818
 Alpha virt. eigenvalues --    0.12419   0.13575   0.15467   0.16077   0.16631
 Alpha virt. eigenvalues --    0.17001   0.17159   0.19321   0.19956   0.20928

 Mulliken charges:
               1
     1  C   -0.480420
     2  C    0.107026
     3  C   -0.258984
     4  C   -0.230234
     5  C   -0.226478
     6  C    0.099922
     7  O   -0.272079
     8  C    0.440680
     9  O   -0.341080
    10  H    0.128865
    11  H    0.140997
    12  H    0.120362
    13  H    0.102564
    14  H    0.121459
    15  H    0.103684
    16  H    0.126672
    17  H    0.106508
    18  H    0.119361
    19  H    0.091175
 Sum of Mulliken charges =   0.00000

 Dipole moment (field-independent basis, Debye):
    X=              2.8758    Y=              2.6704    Z=             -1.3025  Tot=              4.1350
 Quadrupole moment (field-independent basis, Debye-Ang):
   XX=            -56.3381   YY=            -55.5452   ZZ=            -52.3027
   XY=             -3.8172   XZ=              2.7291   YZ=              0.3867

  Exact polarizability:  80.697  -0.684  71.068  -3.610  -0.257  70.312
 Approx polarizability: 114.725   3.661 105.229 -12.721  -0.219 107.673

                      1                      2                      3
                      A                      A                      A
 Frequencies --    118.4729               179.2052               204.1366
 Red. masses --      5.4372                 2.6121                 1.2822
 Frc consts  --      0.0450                 0.0494                 0.0315
 IR Inten    --      0.6851                 2.3148                 1.0014

                      4                      5                      6
                      A                      A                      A
 Frequencies --    226.8874               274.2162               285.0757
 Red. masses --      1.9459                 2.5681                 2.4219
 Frc consts  --      0.0590                 0.1138                 0.1160
 IR Inten    --      0.2754                 1.4614                 1.0756

                      7                      8                      9
                      A                      A                      A
 Frequencies --    359.2056               509.1010               575.1007
 Red. masses --      2.5111                 3.6784                 2.4935
 Frc consts  --      0.1909                 0.5617                 0.4859
 IR Inten    --      1.0066                 2.5094                 0.8384

                     10                     11                     12
                      A                      A                      A
 Frequencies --    606.3676               673.4730               746.3173
 Red. masses --      3.0406                 3.6155                 5.7474
 Frc consts  --      0.6587                 0.9662                 1.8861
 IR Inten    --      0.6564                 0.9329                 3.0367

                     13                     14                     15
                      A                      A                      A
 Frequencies --    776.4281               831.7602               863.7077
 Red. masses --      3.7006                 2.8611                 2.5537
 Frc consts  --      1.3144                 1.1662                 1.1224
 IR Inten    --      1.5465                19.2928                 0.9365

                     16                     17                     18
                      A                      A                      A
 Frequencies --    884.1371               910.3363               920.3693
 Red. masses --      2.4961                 2.0616                 2.2979
 Frc consts  --      1.1496                 1.0066                 1.1469
 IR Inten    --      6.9028                 9.5513                23.4407

                     19                     20                     21
                      A                      A                      A
 Frequencies --    948.9495               993.7279              1038.0313
 Red. masses --      1.9352                 1.6589                 1.7874
 Frc consts  --      1.0267                 0.9652                 1.1348
 IR Inten    --     20.9204                 8.7691                24.0089

                     22                     23                     24
                      A                      A                      A
 Frequencies --   1055.1815              1109.9849              1112.7131
 Red. masses --      1.6128                 2.6196                 1.3941
 Frc consts  --      1.0580                 1.9016                 1.0170
 IR Inten    --      7.8311                66.1122                 6.6764

                     25                     26                     27
                      A                      A                      A
 Frequencies --   1149.1636              1187.9524              1215.4544
 Red. masses --      2.4499                 2.3841                 2.1512
 Frc consts  --      1.9062                 1.9823                 1.8725
 IR Inten    --     31.9053                 2.0393                 2.9107

                     28                     29                     30
                      A                      A                      A
 Frequencies --   1246.8228              1264.0248              1291.3306
 Red. masses --      1.8283                 1.7417                 1.4399
 Frc consts  --      1.6746                 1.6396                 1.4147
 IR Inten    --      8.0789                 3.5647                 2.8169

                     31                     32                     33
                      A                      A                      A
 Frequencies --   1329.2206              1337.6011              1361.3904
 Red. masses --      1.3593                 1.5802                 1.5024
 Frc consts  --      1.4150                 1.6658                 1.6405
 IR Inten    --     10.1105                 1.6674                10.2420

                     34                     35                     36
                      A                      A                      A
 Frequencies --   1368.9061              1413.4436              1471.3364
 Red. masses --      1.7437                 1.2239                 1.0928
 Frc consts  --      1.9252                 1.4407                 1.3939
 IR Inten    --      5.7965                 2.1646                 4.5133

                     37                     38                     39
                      A                      A                      A
 Frequencies --   1484.9177              1493.1327              1496.2064
 Red. masses --      1.0782                 1.0542                 1.0551
 Frc consts  --      1.4007                 1.3848                 1.3916
 IR Inten    --      1.6610                 4.6122                 5.8868

                     40                     41                     42
                      A                      A                      A
 Frequencies --   1503.6149              1926.9571              3031.3821
 Red. masses --      1.0994                12.7654                 1.0598
 Frc consts  --      1.4645                27.9272                 5.7377
 IR Inten    --      3.7989               394.9089                11.5366

                     43                     44                     45
                      A                      A                      A
 Frequencies --   3035.1417              3038.0103              3058.7494
 Red. masses --      1.0418                 1.0660                 1.0628
 Frc consts  --      5.6547                 5.7969                 5.8588
 IR Inten    --     31.0681                18.8586                17.4841

                     46                     47                     48
                      A                      A                      A
 Frequencies --   3096.1101              3100.2952              3104.3356
 Red. masses --      1.0959                 1.0966                 1.1010
 Frc consts  --      6.1893                 6.2105                 6.2513
 IR Inten    --     18.4457                17.0035                14.4149

                     49                     50                     51
                      A                      A                      A
 Frequencies --   3106.4411              3110.0396              3111.5839
 Red. masses --      1.0918                 1.1003                 1.1040
 Frc consts  --      6.2077                 6.2705                 6.2976
 IR Inten    --     10.5275                26.8931                35.0984

 - Thermochemistry -
 -------------------
 Temperature   298.150 Kelvin.  Pressure   1.00000 Atm.
 Atom     1 has atomic number  6 and mass  12.00000

 Molecular mass:   126.06808 amu.
 Principal axes and moments of inertia in atomic units:
                           1         2         3
     Eigenvalues --   772.815741077.679191252.82323
           X            0.99474  -0.09533   0.03760
           Y            0.09626   0.99508  -0.02354
           Z           -0.03517   0.02703   0.99902
 This molecule is an asymmetric top.
 Rotational symmetry number  1.
 Warning -- assumption of classical behavior for rotation
           may cause significant error
 Rotational temperatures (Kelvin)      0.11208     0.08037     0.06913
 Rotational constants (GHZ):           2.33528     1.67466     1.44054
 Zero-point vibrational energy     421901.7 (Joules/Mol)
                                  100.83692 (Kcal/Mol)
 Warning -- explicit consideration of  10 degrees of freedom as
           vibrations may cause significant error
 Vibrational temperatures:    170.46   257.84   293.71   326.44   394.54
          (Kelvin)            410.16   516.82   732.48   827.44   872.43
                              968.98  1073.78  1117.11  1196.72  1242.68
                             1272.07  1309.77  1324.20  1365.32  1429.75
                             1493.49  1518.17  1597.02  1600.94  1653.39
                             1709.20  1748.77  1793.90  1818.65  1857.93
                             1912.45  1924.51  1958.73  1969.55  2033.63
                             2116.92  2136.46  2148.28  2152.70  2163.36
                             2772.46  4361.48  4366.89  4371.01  4400.85
                             4454.61  4460.63  4466.44  4469.47  4474.65
                             4476.87

 Zero-point correction=                           0.160694 (Hartree/Particle)
 Thermal correction to Energy=                    0.168636
 Thermal correction to Enthalpy=                  0.169580
 Thermal correction to Gibbs Free Energy=         0.128466
 Sum of electronic and zero-point Energies=           -423.083718
 Sum of electronic and thermal Energies=              -423.075776
 Sum of electronic and thermal Enthalpies=            -423.074831
 Sum of electronic and thermal Free Energies=         -423.115946

                     E (Thermal)             CV                S
                      KCal/Mol        Cal/Mol-Kelvin    Cal/Mol-Kelvin
 Total                  105.821             30.829             86.532
 Electronic               0.000              0.000              0.000
 Translational            0.889              2.981             40.409
 Rotational               0.889              2.981             28.436
 Vibrational            104.043             24.867             17.688
 Vibration     1          0.609              1.934              3.125
 Vibration     2          0.629              1.868              2.337
 Vibration     3          0.640              1.834              2.095
 Vibration     4          0.651              1.800              1.903
 Vibration     5          0.677              1.721              1.569
 Vibration     6          0.683              1.701              1.503
 Vibration     7          0.734              1.556              1.126
 Vibration     8          0.864              1.230              0.636
 Vibration     9          0.931              1.085              0.495
 Vibration    10          0.965              1.018              0.439

 Normal termination of Gaussian 09 at Mon Jan 27 22:51:56 2020.
