 Gaussian 09, Revision D.01,
 Gaussian 09:  ES64L-G09RevD.01 24-Apr-2013

 -----------------------------
 # b3lyp 6-31G(2df,p) opt Freq
 -----------------------------

 -----
 titel
 -----
 Symbolic Z-matrix:
 Charge =  0 Multiplicity = 1

 SCF Done:  E(RB3LYP) =  -423.251049726     A.U. after   14 cycles
 Optimization completed.
    -- Stationary point found.
 Normal termination of Gaussian 09 at Tue Jan 28 00:45:00 2020.

 ----------------------------------------------------------------------
 #N Geom=AllCheck Guess=TCheck SCRF=Check GenChk RB3LYP/6-31G(2df,p) Fr
 eq
 ----------------------------------------------------------------------

 Structure from the checkpoint file:  "/scratch/puck/g09_af081a36-6536-4cc2-b784-8e442e8696ca/Gau-38350.chk"
 -----
 titel
 -----
 Charge =  0 Multiplicity = 1

                         Standard orientation:
 ---------------------------------------------------------------------
 Center     Atomic      Atomic             Coordinates (Angstroms)
 Number     Number       Type             X           Y           Z
 ---------------------------------------------------------------------
      1          6           0        2.277522   -1.580729    0.033002
      2          6           0        1.047529   -0.774521   -0.349745
      3          6           0       -0.252677   -1.311747    0.243192
      4          6           0       -1.382855   -0.341262    0.008816
      5          6           0       -2.782372   -0.876714   -0.005043
      6          6           0       -1.088073    0.955534   -0.147534
      7          6           0        0.281496    1.487169    0.003621
      8          8           0        0.530009    2.660812    0.113489
      9          8           0        1.294265    0.579297    0.079143
     10          1           0        2.403973   -1.595664    1.119723
     11          1           0        2.183018   -2.611242   -0.322727
     12          1           0        3.173263   -1.139538   -0.410743
     13          1           0        0.943872   -0.758120   -1.444560
     14          1           0       -0.480102   -2.284060   -0.209460
     15          1           0       -0.135409   -1.492021    1.321879
     16          1           0       -3.003500   -1.403028    0.932323
     17          1           0       -3.520637   -0.082636   -0.137636
     18          1           0       -2.910586   -1.611411   -0.809859
     19          1           0       -1.851506    1.710464   -0.297855
 ---------------------------------------------------------------------

 SCF Done:  E(RB3LYP) =  -423.251049726     A.U. after    1 cycles

 The electronic state is 1-A.
 Alpha  occ. eigenvalues --  -19.16729 -19.10791 -10.29442 -10.25362 -10.22227
 Alpha  occ. eigenvalues --  -10.20590 -10.20097 -10.19151 -10.18730  -1.08414
 Alpha  occ. eigenvalues --   -1.00397  -0.84142  -0.78963  -0.72371  -0.70506
 Alpha  occ. eigenvalues --   -0.63011  -0.59109  -0.54183  -0.50646  -0.49338
 Alpha  occ. eigenvalues --   -0.44880  -0.44166  -0.42504  -0.42036  -0.40841
 Alpha  occ. eigenvalues --   -0.40582  -0.39758  -0.39612  -0.36665  -0.36434
 Alpha  occ. eigenvalues --   -0.32381  -0.28456  -0.26750  -0.25587
 Alpha virt. eigenvalues --   -0.03764   0.07379   0.08758   0.10089   0.11552
 Alpha virt. eigenvalues --    0.12463   0.13459   0.14682   0.15912   0.16451
 Alpha virt. eigenvalues --    0.16934   0.17497   0.17976   0.21638   0.22236

 Mulliken charges:
               1
     1  C   -0.400020
     2  C    0.128940
     3  C   -0.312187
     4  C    0.300304
     5  C   -0.481698
     6  C   -0.289264
     7  C    0.416319
     8  O   -0.342886
     9  O   -0.253031
    10  H    0.129370
    11  H    0.117780
    12  H    0.136425
    13  H    0.089104
    14  H    0.113936
    15  H    0.125726
    16  H    0.138059
    17  H    0.135436
    18  H    0.135511
    19  H    0.112176
 Sum of Mulliken charges =   0.00000

 Dipole moment (field-independent basis, Debye):
    X=             -2.1039    Y=             -4.7940    Z=             -0.4865  Tot=              5.2579
 Quadrupole moment (field-independent basis, Debye-Ang):
   XX=            -50.3428   YY=            -60.9285   ZZ=            -52.3178
   XY=             -3.8160   XZ=             -0.7136   YZ=             -0.8427

  Exact polarizability:  87.548   3.881  97.263   0.243  -1.253  55.386
 Approx polarizability: 112.348  14.386 159.464   0.871  -1.983  87.157

                      1                      2                      3
                      A                      A                      A
 Frequencies --    118.3332               136.6705               151.9121
 Red. masses --      2.3616                 4.2418                 1.8834
 Frc consts  --      0.0195                 0.0467                 0.0256
 IR Inten    --      0.0847                 0.0985                 0.5972

                      4                      5                      6
                      A                      A                      A
 Frequencies --    201.6060               230.7387               256.5373
 Red. masses --      1.5144                 1.0795                 2.4538
 Frc consts  --      0.0363                 0.0339                 0.0951
 IR Inten    --      1.0866                 0.0504                 0.3837

                      7                      8                      9
                      A                      A                      A
 Frequencies --    309.0856               434.2565               449.4581
 Red. masses --      3.5188                 2.5566                 5.3495
 Frc consts  --      0.1981                 0.2841                 0.6367
 IR Inten    --      3.7546                 2.6014                 0.5463

                     10                     11                     12
                      A                      A                      A
 Frequencies --    457.7975               498.8467               530.7376
 Red. masses --      2.3395                 3.9201                 4.2566
 Frc consts  --      0.2889                 0.5748                 0.7064
 IR Inten    --      0.6952                 5.2847                 3.1522

                     13                     14                     15
                      A                      A                      A
 Frequencies --    631.9190               736.0904               857.8842
 Red. masses --      4.2959                 3.0743                 3.2360
 Frc consts  --      1.0107                 0.9814                 1.4032
 IR Inten    --      5.9792                 3.7408                14.3584

                     16                     17                     18
                      A                      A                      A
 Frequencies --    867.6002               893.2296               906.4314
 Red. masses --      2.1298                 2.1278                 1.9593
 Frc consts  --      0.9446                 1.0003                 0.9484
 IR Inten    --     11.9098                 5.9082                14.7620

                     19                     20                     21
                      A                      A                      A
 Frequencies --    936.7130               997.9179              1033.2573
 Red. masses --      1.8337                 1.8669                 1.9112
 Frc consts  --      0.9480                 1.0954                 1.2022
 IR Inten    --      3.2182                21.3779                24.4771

                     22                     23                     24
                      A                      A                      A
 Frequencies --   1039.8089              1092.5422              1129.4388
 Red. masses --      1.3836                 2.4537                 2.1577
 Frc consts  --      0.8814                 1.7256                 1.6217
 IR Inten    --      2.3332                30.0157                 5.3232

                     25                     26                     27
                      A                      A                      A
 Frequencies --   1155.1580              1175.9332              1232.5183
 Red. masses --      2.8773                 2.1313                 1.3927
 Frc consts  --      2.2621                 1.7364                 1.2465
 IR Inten    --     64.4870                 3.1275                11.2517

                     28                     29                     30
                      A                      A                      A
 Frequencies --   1262.0267              1306.8944              1357.6484
 Red. masses --      2.0679                 1.5353                 1.7954
 Frc consts  --      1.9405                 1.5450                 1.9498
 IR Inten    --    174.3910                34.9158                 8.5879

                     31                     32                     33
                      A                      A                      A
 Frequencies --   1388.9578              1402.1410              1411.0812
 Red. masses --      1.3544                 1.5353                 1.3492
 Frc consts  --      1.5394                 1.7783                 1.5828
 IR Inten    --      8.6781                27.6904                16.3576

                     34                     35                     36
                      A                      A                      A
 Frequencies --   1413.7119              1462.4851              1476.7534
 Red. masses --      1.3642                 1.0947                 1.0471
 Frc consts  --      1.6064                 1.3795                 1.3454
 IR Inten    --     13.7587                 3.0094                 8.1725

                     37                     38                     39
                      A                      A                      A
 Frequencies --   1481.2175              1484.2064              1499.2560
 Red. masses --      1.0679                 1.0522                 1.0526
 Frc consts  --      1.3805                 1.3657                 1.3940
 IR Inten    --      8.9146                 3.4068                 2.3836

                     40                     41                     42
                      A                      A                      A
 Frequencies --   1708.2218              1821.7306              2996.2226
 Red. masses --      7.1764                12.0674                 1.0800
 Frc consts  --     12.3380                23.5957                 5.7124
 IR Inten    --     25.7790               393.5849                14.7227

                     43                     44                     45
                      A                      A                      A
 Frequencies --   3010.3220              3021.1286              3044.8617
 Red. masses --      1.0675                 1.0395                 1.0357
 Frc consts  --      5.6994                 5.5901                 5.6572
 IR Inten    --     23.9094                20.1882                14.2909

                     46                     47                     48
                      A                      A                      A
 Frequencies --   3061.9707              3069.3824              3118.2824
 Red. masses --      1.0948                 1.0979                 1.1018
 Frc consts  --      6.0475                 6.0940                 6.3123
 IR Inten    --     14.9794                16.8162                22.6567

                     49                     50                     51
                      A                      A                      A
 Frequencies --   3124.0868              3128.9137              3198.8269
 Red. masses --      1.0995                 1.1019                 1.0917
 Frc consts  --      6.3226                 6.3562                 6.5819
 IR Inten    --     15.3446                14.3648                 4.5119

 - Thermochemistry -
 -------------------
 Temperature   298.150 Kelvin.  Pressure   1.00000 Atm.
 Atom     1 has atomic number  6 and mass  12.00000

 Molecular mass:   126.06808 amu.
 Principal axes and moments of inertia in atomic units:
                           1         2         3
     Eigenvalues --   924.718621087.722171942.13487
           X            0.99055  -0.13712  -0.00043
           Y            0.13711   0.99054  -0.00557
           Z            0.00119   0.00546   0.99998
 This molecule is an asymmetric top.
 Rotational symmetry number  1.
 Warning -- assumption of classical behavior for rotation
           may cause significant error
 Rotational temperatures (Kelvin)      0.09367     0.07963     0.04460
 Rotational constants (GHZ):           1.95167     1.65919     0.92926
 Zero-point vibrational energy     416974.9 (Joules/Mol)
                                   99.65938 (Kcal/Mol)
 Warning -- explicit consideration of  12 degrees of freedom as
           vibrations may cause significant error
 Vibrational temperatures:    170.25   196.64   218.57   290.07   331.98
          (Kelvin)            369.10   444.70   624.80   646.67   658.67
                              717.73   763.61   909.19  1059.07  1234.30
                             1248.28  1285.16  1304.15  1347.72  1435.78
                             1486.62  1496.05  1571.92  1625.01  1662.01
                             1691.90  1773.32  1815.77  1880.33  1953.35
                             1998.40  2017.37  2030.23  2034.01  2104.19
                             2124.72  2131.14  2135.44  2157.09  2457.75
                             2621.06  4310.89  4331.18  4346.72  4380.87
                             4405.49  4416.15  4486.51  4494.86  4501.80
                             4602.39

 Zero-point correction=                           0.158817 (Hartree/Particle)
 Thermal correction to Energy=                    0.167658
 Thermal correction to Enthalpy=                  0.168602
 Thermal correction to Gibbs Free Energy=         0.125405
 Sum of electronic and zero-point Energies=           -423.092232
 Sum of electronic and thermal Energies=              -423.083392
 Sum of electronic and thermal Enthalpies=            -423.082448
 Sum of electronic and thermal Free Energies=         -423.125645

                     E (Thermal)             CV                S
                      KCal/Mol        Cal/Mol-Kelvin    Cal/Mol-Kelvin
 Total                  105.207             33.129             90.916
 Electronic               0.000              0.000              0.000
 Translational            0.889              2.981             40.409
 Rotational               0.889              2.981             29.059
 Vibrational            103.429             27.167             21.448
 Vibration     1          0.608              1.934              3.127
 Vibration     2          0.614              1.917              2.850
 Vibration     3          0.619              1.901              2.648
 Vibration     4          0.638              1.838              2.118
 Vibration     5          0.652              1.794              1.873
 Vibration     6          0.666              1.752              1.685
 Vibration     7          0.698              1.656              1.367
 Vibration     8          0.795              1.396              0.845
 Vibration     9          0.808              1.362              0.797
 Vibration    10          0.816              1.344              0.773
 Vibration    11          0.854              1.253              0.661
 Vibration    12          0.886              1.182              0.586

 Optimization completed.
    -- Stationary point found.
 Normal termination of Gaussian 09 at Tue Jan 28 02:39:25 2020.
