 Gaussian 09, Revision D.01,
 Gaussian 09:  ES64L-G09RevD.01 24-Apr-2013

 -----------------------------
 # b3lyp 6-31G(2df,p) opt Freq
 -----------------------------

 -----
 titel
 -----
 Symbolic Z-matrix:
 Charge =  0 Multiplicity = 1

 SCF Done:  E(RB3LYP) =  -423.165267459     A.U. after   14 cycles
 Optimization completed.
    -- Stationary point found.
 Normal termination of Gaussian 09 at Tue Jan 28 08:21:12 2020.

 ----------------------------------------------------------------------
 #N Geom=AllCheck Guess=TCheck SCRF=Check GenChk RB3LYP/6-31G(2df,p) Fr
 eq
 ----------------------------------------------------------------------

 Structure from the checkpoint file:  "/scratch/puck/g09_d47080e5-4995-41ac-8631-3f8b6b671259/Gau-106637.chk"
 -----
 titel
 -----
 Charge =  0 Multiplicity = 1

                         Standard orientation:
 ---------------------------------------------------------------------
 Center     Atomic      Atomic             Coordinates (Angstroms)
 Number     Number       Type             X           Y           Z
 ---------------------------------------------------------------------
      1          6           0       -0.484303    2.068097   -0.405926
      2          6           0        0.465515    1.022618    0.131255
      3          8           0        1.412031    1.324023    0.831647
      4          6           0        0.219536   -0.441377   -0.253366
      5          6           0        1.483505   -1.283612   -0.001698
      6          8           0        2.629454   -0.762622   -0.634991
      7          6           0       -0.962889   -1.049777    0.559436
      8          6           0       -2.296784   -0.665175    0.118685
      9          6           0       -3.399834   -0.364915   -0.254055
     10          1           0       -0.396186    2.105305   -1.498518
     11          1           0       -1.523358    1.804919   -0.187459
     12          1           0       -0.235460    3.043975    0.012681
     13          1           0       -0.037425   -0.479745   -1.318173
     14          1           0        1.634287   -1.388537    1.083489
     15          1           0        1.324797   -2.287491   -0.410927
     16          1           0        2.842566    0.048264   -0.156886
     17          1           0       -0.877571   -2.142492    0.493178
     18          1           0       -0.834494   -0.804620    1.621502
     19          1           0       -4.377504   -0.105945   -0.578122
 ---------------------------------------------------------------------

 SCF Done:  E(RB3LYP) =  -423.165267459     A.U. after    1 cycles

 The electronic state is 1-A.
 Alpha  occ. eigenvalues --  -19.14147 -19.12808 -10.28047 -10.23045 -10.22860
 Alpha  occ. eigenvalues --  -10.20737 -10.19577 -10.19002 -10.18464  -1.05250
 Alpha  occ. eigenvalues --   -1.01156  -0.82945  -0.76013  -0.74180  -0.69067
 Alpha  occ. eigenvalues --   -0.63592  -0.54415  -0.53357  -0.51534  -0.48337
 Alpha  occ. eigenvalues --   -0.46782  -0.46313  -0.44277  -0.42732  -0.41702
 Alpha  occ. eigenvalues --   -0.41180  -0.38258  -0.37671  -0.36040  -0.32920
 Alpha  occ. eigenvalues --   -0.28376  -0.27741  -0.26267  -0.25341
 Alpha virt. eigenvalues --   -0.02563   0.03918   0.04352   0.09443   0.10437
 Alpha virt. eigenvalues --    0.11040   0.11961   0.12672   0.15176   0.15711
 Alpha virt. eigenvalues --    0.16870   0.17460   0.18201   0.19993   0.21791

 Mulliken charges:
               1
     1  C   -0.484350
     2  C    0.393200
     3  O   -0.325427
     4  C   -0.118478
     5  C   -0.067873
     6  O   -0.431267
     7  C   -0.384187
     8  C    0.301941
     9  C   -0.430022
    10  H    0.146527
    11  H    0.160590
    12  H    0.139395
    13  H    0.105112
    14  H    0.097682
    15  H    0.108399
    16  H    0.295812
    17  H    0.144393
    18  H    0.146026
    19  H    0.202529
 Sum of Mulliken charges =   0.00000

 Dipole moment (field-independent basis, Debye):
    X=             -2.5909    Y=             -0.0484    Z=             -0.2427  Tot=              2.6027
 Quadrupole moment (field-independent basis, Debye-Ang):
   XX=            -56.3809   YY=            -52.3790   ZZ=            -54.4019
   XY=             -0.8372   XZ=              2.3698   YZ=             -3.7035

  Exact polarizability:  99.455  -2.920  74.091   8.404  -1.936  60.135
 Approx polarizability: 146.342  -4.537 101.725  19.868  -0.803  98.074

                      1                      2                      3
                      A                      A                      A
 Frequencies --     24.5937                74.4884               116.9674
 Red. masses --      3.6538                 2.6471                 2.6305
 Frc consts  --      0.0013                 0.0087                 0.0212
 IR Inten    --      3.5110                 1.6798                 1.7915

                      4                      5                      6
                      A                      A                      A
 Frequencies --    144.0067               169.2009               206.6809
 Red. masses --      1.4280                 2.8149                 5.0483
 Frc consts  --      0.0174                 0.0475                 0.1271
 IR Inten    --      0.1643                 4.0801                 1.8279

                      7                      8                      9
                      A                      A                      A
 Frequencies --    248.9269               272.8879               340.7398
 Red. masses --      3.5332                 3.0495                 3.1253
 Frc consts  --      0.1290                 0.1338                 0.2138
 IR Inten    --      1.2804                 8.9679                 3.3105

                     10                     11                     12
                      A                      A                      A
 Frequencies --    395.2437               424.9405               493.4438
 Red. masses --      4.4480                 3.8256                 4.6274
 Frc consts  --      0.4094                 0.4070                 0.6638
 IR Inten    --      0.4540                 3.5871                 6.9947

                     13                     14                     15
                      A                      A                      A
 Frequencies --    538.9928               602.1608               621.9344
 Red. masses --      1.0974                 2.5401                 1.2357
 Frc consts  --      0.1878                 0.5427                 0.2816
 IR Inten    --    136.3218                10.1878                42.7118

                     16                     17                     18
                      A                      A                      A
 Frequencies --    629.5042               646.9572               725.8306
 Red. masses --      2.3914                 1.3289                 2.6388
 Frc consts  --      0.5583                 0.3277                 0.8191
 IR Inten    --     13.4365                44.3869                 1.9481

                     19                     20                     21
                      A                      A                      A
 Frequencies --    886.1656               940.5113               949.7881
 Red. masses --      1.5079                 4.1488                 1.7875
 Frc consts  --      0.6977                 2.1622                 0.9501
 IR Inten    --      3.2218                 2.4274                 5.0785

                     22                     23                     24
                      A                      A                      A
 Frequencies --    995.6623              1023.4798              1075.2221
 Red. masses --      1.9595                 2.8865                 2.4188
 Frc consts  --      1.1445                 1.7815                 1.6476
 IR Inten    --      4.0947                 7.9907                30.3780

                     25                     26                     27
                      A                      A                      A
 Frequencies --   1088.9947              1101.6324              1189.6794
 Red. masses --      2.6388                 3.8370                 1.8362
 Frc consts  --      1.8438                 2.7436                 1.5312
 IR Inten    --      4.7981                88.1617                47.5661

                     28                     29                     30
                      A                      A                      A
 Frequencies --   1204.8075              1229.1021              1274.7679
 Red. masses --      1.2541                 1.3798                 1.1371
 Frc consts  --      1.0726                 1.2281                 1.0887
 IR Inten    --      0.7013                38.1614                 4.9661

                     31                     32                     33
                      A                      A                      A
 Frequencies --   1339.0843              1378.5989              1393.3087
 Red. masses --      1.3739                 1.3633                 1.5638
 Frc consts  --      1.4515                 1.5266                 1.7887
 IR Inten    --      9.5646                 3.8839                49.4736

                     34                     35                     36
                      A                      A                      A
 Frequencies --   1405.3137              1434.0607              1461.8132
 Red. masses --      1.2437                 1.2094                 1.0581
 Frc consts  --      1.4471                 1.4654                 1.3322
 IR Inten    --      0.7211                77.1142                11.2202

                     37                     38                     39
                      A                      A                      A
 Frequencies --   1469.3577              1472.7640              1494.7559
 Red. masses --      1.0728                 1.0636                 1.0850
 Frc consts  --      1.3647                 1.3593                 1.4283
 IR Inten    --     10.0222                 6.9638                 2.7624

                     40                     41                     42
                      A                      A                      A
 Frequencies --   1782.5419              2235.8725              2990.8647
 Red. masses --      9.9805                 5.9359                 1.0663
 Frc consts  --     18.6846                17.4836                 5.6200
 IR Inten    --    151.7095                 1.7146                37.5601

                     43                     44                     45
                      A                      A                      A
 Frequencies --   3017.8512              3037.8376              3045.4633
 Red. masses --      1.0594                 1.0420                 1.0879
 Frc consts  --      5.6844                 5.6653                 5.9447
 IR Inten    --     13.8978                 0.6333                 8.2775

                     46                     47                     48
                      A                      A                      A
 Frequencies --   3055.4392              3070.8717              3105.0957
 Red. masses --      1.0917                 1.0960                 1.0944
 Frc consts  --      6.0047                 6.0897                 6.2167
 IR Inten    --      9.2224                34.2347                 5.2765

                     49                     50                     51
                      A                      A                      A
 Frequencies --   3155.2844              3503.7356              3785.4243
 Red. masses --      1.1039                 1.1621                 1.0650
 Frc consts  --      6.4754                 8.4052                 8.9914
 IR Inten    --      5.5825                72.1855                46.8560

 - Thermochemistry -
 -------------------
 Temperature   298.150 Kelvin.  Pressure   1.00000 Atm.
 Atom     1 has atomic number  6 and mass  12.00000

 Molecular mass:   126.06808 amu.
 Principal axes and moments of inertia in atomic units:
                           1         2         3
     Eigenvalues --   738.956971634.360322133.54080
           X            0.99966  -0.02502   0.00693
           Y            0.02528   0.99885  -0.04065
           Z           -0.00590   0.04081   0.99915
 This molecule is an asymmetric top.
 Rotational symmetry number  1.
 Warning -- assumption of classical behavior for rotation
           may cause significant error
 Rotational temperatures (Kelvin)      0.11721     0.05300     0.04060
 Rotational constants (GHZ):           2.44228     1.10425     0.84589
 Zero-point vibrational energy     408361.1 (Joules/Mol)
                                   97.60066 (Kcal/Mol)
 Warning -- explicit consideration of  14 degrees of freedom as
           vibrations may cause significant error
 Vibrational temperatures:     35.38   107.17   168.29   207.19   243.44
          (Kelvin)            297.37   358.15   392.62   490.25   568.67
                              611.39   709.95   775.49   866.37   894.82
                              905.71   930.83  1044.31  1274.99  1353.18
                             1366.53  1432.53  1472.56  1547.00  1566.82
                             1585.00  1711.68  1733.45  1768.40  1834.10
                             1926.64  1983.49  2004.66  2021.93  2063.29
                             2103.22  2114.08  2118.98  2150.62  2564.68
                             3216.92  4303.18  4342.01  4370.77  4381.74
                             4396.09  4418.29  4467.53  4539.74  5041.09
                             5446.37

 Zero-point correction=                           0.155537 (Hartree/Particle)
 Thermal correction to Energy=                    0.166012
 Thermal correction to Enthalpy=                  0.166956
 Thermal correction to Gibbs Free Energy=         0.118964
 Sum of electronic and zero-point Energies=           -423.009731
 Sum of electronic and thermal Energies=              -422.999255
 Sum of electronic and thermal Enthalpies=            -422.998311
 Sum of electronic and thermal Free Energies=         -423.046304

                     E (Thermal)             CV                S
                      KCal/Mol        Cal/Mol-Kelvin    Cal/Mol-Kelvin
 Total                  104.174             37.249            101.009
 Electronic               0.000              0.000              0.000
 Translational            0.889              2.981             40.409
 Rotational               0.889              2.981             29.334
 Vibrational            102.397             31.288             31.267
 Vibration     1          0.593              1.985              6.224
 Vibration     2          0.599              1.966              4.031
 Vibration     3          0.608              1.935              3.150
 Vibration     4          0.616              1.909              2.750
 Vibration     5          0.625              1.880              2.444
 Vibration     6          0.641              1.830              2.073
 Vibration     7          0.662              1.765              1.738
 Vibration     8          0.676              1.723              1.578
 Vibration     9          0.720              1.594              1.209
 Vibration    10          0.762              1.480              0.980
 Vibration    11          0.787              1.416              0.875
 Vibration    12          0.849              1.265              0.675
 Vibration    13          0.894              1.164              0.567
 Vibration    14          0.960              1.027              0.446

 Normal termination of Gaussian 09 at Tue Jan 28 09:05:32 2020.
