 Gaussian 09, Revision D.01,
 Gaussian 09:  ES64L-G09RevD.01 24-Apr-2013

 -----------------------------
 # b3lyp 6-31G(2df,p) opt Freq
 -----------------------------

 -----
 titel
 -----
 Symbolic Z-matrix:
 Charge =  0 Multiplicity = 1

 SCF Done:  E(RB3LYP) =  -423.162329909     A.U. after   14 cycles
 SCF Done:  E(RB3LYP) =  -423.162330115     A.U. after    7 cycles
 SCF Done:  E(RB3LYP) =  -423.162329753     A.U. after    8 cycles
 SCF Done:  E(RB3LYP) =  -423.162330346     A.U. after    7 cycles
 SCF Done:  E(RB3LYP) =  -423.162330497     A.U. after    7 cycles
 SCF Done:  E(RB3LYP) =  -423.162330636     A.U. after    8 cycles
 Optimization completed.
    -- Stationary point found.
 Normal termination of Gaussian 09 at Mon Jan 27 13:48:00 2020.

 ----------------------------------------------------------------------
 #N Geom=AllCheck Guess=TCheck SCRF=Check GenChk RB3LYP/6-31G(2df,p) Fr
 eq
 ----------------------------------------------------------------------

 Structure from the checkpoint file:  "/scratch/puck/g09_e3bcc2fa-df8f-4b9d-bfa9-f4251b7d6252/Gau-75804.chk"
 -----
 titel
 -----
 Charge =  0 Multiplicity = 1

                         Standard orientation:
 ---------------------------------------------------------------------
 Center     Atomic      Atomic             Coordinates (Angstroms)
 Number     Number       Type             X           Y           Z
 ---------------------------------------------------------------------
      1          8           0        2.696253   -1.334683    0.252919
      2          6           0        1.939635   -0.547158   -0.254778
      3          6           0        0.971004    0.323461    0.495874
      4          6           0        0.820209    1.756358   -0.062562
      5          8           0       -0.511155    1.495219   -0.536066
      6          6           0       -0.512894    0.173097    0.048904
      7          6           0       -1.082180   -0.933254   -0.872287
      8          6           0       -2.414048   -0.867462   -0.073943
      9          6           0       -1.667751   -0.087890    1.045574
     10          1           0        1.905210   -0.414838   -1.362058
     11          1           0        1.141633    0.228981    1.569038
     12          1           0        0.847841    2.544294    0.699016
     13          1           0        1.500582    2.025749   -0.880331
     14          1           0       -1.108785   -0.684179   -1.935185
     15          1           0       -0.561118   -1.886409   -0.739217
     16          1           0       -3.165315   -0.253232   -0.574726
     17          1           0       -2.869629   -1.818790    0.206714
     18          1           0       -2.142134    0.807714    1.452632
     19          1           0       -1.352926   -0.736496    1.868603
 ---------------------------------------------------------------------

 SCF Done:  E(RB3LYP) =  -423.162330636     A.U. after    1 cycles

 The electronic state is 1-A.
 Alpha  occ. eigenvalues --  -19.14440 -19.14194 -10.27557 -10.25255 -10.24553
 Alpha  occ. eigenvalues --  -10.20336 -10.18932 -10.18827 -10.18753  -1.05397
 Alpha  occ. eigenvalues --   -1.04777  -0.84301  -0.77582  -0.67859  -0.67318
 Alpha  occ. eigenvalues --   -0.62047  -0.58562  -0.53588  -0.51268  -0.49097
 Alpha  occ. eigenvalues --   -0.48286  -0.43997  -0.43512  -0.42792  -0.41553
 Alpha  occ. eigenvalues --   -0.39723  -0.38180  -0.37244  -0.34546  -0.32520
 Alpha  occ. eigenvalues --   -0.32051  -0.29848  -0.26104  -0.24691
 Alpha virt. eigenvalues --   -0.03183   0.06646   0.09196   0.09373   0.11100
 Alpha virt. eigenvalues --    0.11802   0.12605   0.14119   0.15017   0.17203
 Alpha virt. eigenvalues --    0.17457   0.18175   0.19109   0.19711   0.21275

 Mulliken charges:
               1
     1  O   -0.257869
     2  C    0.167811
     3  C   -0.231195
     4  C   -0.100063
     5  O   -0.311909
     6  C    0.430965
     7  C   -0.277546
     8  C   -0.220148
     9  C   -0.270338
    10  H    0.080033
    11  H    0.096895
    12  H    0.113298
    13  H    0.108253
    14  H    0.114444
    15  H    0.113986
    16  H    0.117693
    17  H    0.104136
    18  H    0.112588
    19  H    0.108966
 Sum of Mulliken charges =   0.00000

 Dipole moment (field-independent basis, Debye):
    X=             -1.2266    Y=              0.7752    Z=              0.2044  Tot=              1.4654
 Quadrupole moment (field-independent basis, Debye-Ang):
   XX=            -58.9701   YY=            -55.5585   ZZ=            -52.1810
   XY=              7.8223   XZ=             -2.4821   YZ=              2.2332

  Exact polarizability:  84.284   0.664  75.001  -0.832   0.360  69.171
 Approx polarizability: 112.793  -7.245 110.833   3.298  -4.599 104.627

                      1                      2                      3
                      A                      A                      A
 Frequencies --     46.6670                58.3601                92.9024
 Red. masses --      3.5569                 4.3035                 2.1712
 Frc consts  --      0.0046                 0.0086                 0.0110
 IR Inten    --      5.0270                 4.8762                 1.8235

                      4                      5                      6
                      A                      A                      A
 Frequencies --    166.4449               265.8389               324.8147
 Red. masses --      2.7197                 2.3419                 2.7820
 Frc consts  --      0.0444                 0.0975                 0.1729
 IR Inten    --      0.5629                 1.2930                 6.9777

                      7                      8                      9
                      A                      A                      A
 Frequencies --    360.6650               443.0799               465.1077
 Red. masses --      2.2382                 3.1948                 5.8074
 Frc consts  --      0.1715                 0.3695                 0.7402
 IR Inten    --      1.5395                 0.5850                 7.7884

                     10                     11                     12
                      A                      A                      A
 Frequencies --    501.2014               698.9305               750.4761
 Red. masses --      3.7632                 1.3979                 1.3194
 Frc consts  --      0.5570                 0.4023                 0.4378
 IR Inten    --      0.3402                 1.1834                 1.2612

                     13                     14                     15
                      A                      A                      A
 Frequencies --    849.5735               867.1372               868.0703
 Red. masses --      2.8181                 2.2635                 1.9465
 Frc consts  --      1.1984                 1.0028                 0.8642
 IR Inten    --      0.9610                19.3925                 9.0309

                     16                     17                     18
                      A                      A                      A
 Frequencies --    882.3670               938.6768               956.7601
 Red. masses --      2.4087                 2.5953                 2.6079
 Frc consts  --      1.1049                 1.3473                 1.4065
 IR Inten    --     29.6767                 0.7863                 0.6736

                     19                     20                     21
                      A                      A                      A
 Frequencies --    967.4068              1009.1181              1040.2904
 Red. masses --      2.0182                 2.5740                 2.6774
 Frc consts  --      1.1128                 1.5443                 1.7071
 IR Inten    --      0.3237                24.6098                70.7940

                     22                     23                     24
                      A                      A                      A
 Frequencies --   1049.5504              1092.0448              1150.1834
 Red. masses --      1.8527                 2.5054                 1.8958
 Frc consts  --      1.2024                 1.7604                 1.4777
 IR Inten    --     23.1336                 1.1897                37.2900

                     25                     26                     27
                      A                      A                      A
 Frequencies --   1159.9712              1175.6597              1180.8182
 Red. masses --      2.5773                 1.6108                 1.6511
 Frc consts  --      2.0432                 1.3118                 1.3564
 IR Inten    --     17.5452                14.6812                 7.2294

                     28                     29                     30
                      A                      A                      A
 Frequencies --   1203.5085              1231.4874              1251.0979
 Red. masses --      1.5540                 1.4109                 1.2387
 Frc consts  --      1.3262                 1.2607                 1.1423
 IR Inten    --      1.5470                 3.2795                 3.8134

                     31                     32                     33
                      A                      A                      A
 Frequencies --   1256.4912              1273.8994              1296.8496
 Red. masses --      1.3143                 1.4366                 1.7369
 Frc consts  --      1.2226                 1.3736                 1.7211
 IR Inten    --      7.4147                 0.3974                12.8919

                     34                     35                     36
                      A                      A                      A
 Frequencies --   1306.1171              1355.1403              1431.6692
 Red. masses --      1.8981                 1.4651                 1.2105
 Frc consts  --      1.9078                 1.5852                 1.4619
 IR Inten    --     17.6876                10.4274                 3.6155

                     37                     38                     39
                      A                      A                      A
 Frequencies --   1453.8417              1469.2423              1497.1515
 Red. masses --      1.0899                 1.0944                 1.1257
 Frc consts  --      1.3572                 1.3919                 1.4867
 IR Inten    --      3.1893                 2.1588                 1.2558

                     40                     41                     42
                      A                      A                      A
 Frequencies --   1524.0413              1828.4866              2855.2471
 Red. masses --      1.1004                10.2666                 1.0817
 Frc consts  --      1.5059                20.2237                 5.1958
 IR Inten    --      0.8061               192.8194                78.7650

                     43                     44                     45
                      A                      A                      A
 Frequencies --   3015.4041              3054.7743              3059.1661
 Red. masses --      1.0557                 1.0588                 1.0662
 Frc consts  --      5.6558                 5.8213                 5.8791
 IR Inten    --     74.3042                29.9954                 9.5992

                     46                     47                     48
                      A                      A                      A
 Frequencies --   3059.6237              3074.5543              3110.0997
 Red. masses --      1.1040                 1.0596                 1.0912
 Frc consts  --      6.0891                 5.9017                 6.2189
 IR Inten    --     29.1264                35.6444                 8.8538

                     49                     50                     51
                      A                      A                      A
 Frequencies --   3111.6714              3119.5472              3133.9086
 Red. masses --      1.1028                 1.1063                 1.1078
 Frc consts  --      6.2914                 6.3429                 6.4103
 IR Inten    --      8.3834                 7.4060                36.3521

 - Thermochemistry -
 -------------------
 Temperature   298.150 Kelvin.  Pressure   1.00000 Atm.
 Atom     1 has atomic number  8 and mass  15.99491

 Molecular mass:   126.06808 amu.
 Principal axes and moments of inertia in atomic units:
                           1         2         3
     Eigenvalues --   687.667431385.411981733.28178
           X            0.99813   0.06033  -0.01028
           Y           -0.05998   0.99771   0.03113
           Z            0.01214  -0.03046   0.99946
 This molecule is an asymmetric top.
 Rotational symmetry number  1.
 Warning -- assumption of classical behavior for rotation
           may cause significant error
 Rotational temperatures (Kelvin)      0.12595     0.06252     0.04997
 Rotational constants (GHZ):           2.62444     1.30267     1.04123
 Zero-point vibrational energy     414716.2 (Joules/Mol)
                                   99.11955 (Kcal/Mol)
 Warning -- explicit consideration of  10 degrees of freedom as
           vibrations may cause significant error
 Vibrational temperatures:     67.14    83.97   133.67   239.48   382.48
          (Kelvin)            467.34   518.92   637.49   669.19   721.12
                             1005.60  1079.77  1222.35  1247.62  1248.96
                             1269.53  1350.54  1376.56  1391.88  1451.89
                             1496.74  1510.07  1571.21  1654.86  1668.94
                             1691.51  1698.93  1731.58  1771.83  1800.05
                             1807.81  1832.85  1865.87  1879.21  1949.74
                             2059.85  2091.75  2113.91  2154.06  2192.75
                             2630.78  4108.06  4338.49  4395.13  4401.45
                             4402.11  4423.59  4474.73  4477.00  4488.33
                             4508.99

 Zero-point correction=                           0.157957 (Hartree/Particle)
 Thermal correction to Energy=                    0.166675
 Thermal correction to Enthalpy=                  0.167620
 Thermal correction to Gibbs Free Energy=         0.123221
 Sum of electronic and zero-point Energies=           -423.004374
 Sum of electronic and thermal Energies=              -422.995655
 Sum of electronic and thermal Enthalpies=            -422.994711
 Sum of electronic and thermal Free Energies=         -423.039110

                     E (Thermal)             CV                S
                      KCal/Mol        Cal/Mol-Kelvin    Cal/Mol-Kelvin
 Total                  104.590             31.638             93.445
 Electronic               0.000              0.000              0.000
 Translational            0.889              2.981             40.409
 Rotational               0.889              2.981             28.892
 Vibrational            102.813             25.677             24.144
 Vibration     1          0.595              1.979              4.954
 Vibration     2          0.596              1.974              4.512
 Vibration     3          0.602              1.954              3.598
 Vibration     4          0.624              1.884              2.475
 Vibration     5          0.672              1.736              1.623
 Vibration     6          0.709              1.626              1.286
 Vibration     7          0.735              1.553              1.119
 Vibration     8          0.803              1.376              0.817
 Vibration     9          0.823              1.327              0.751
 Vibration    10          0.857              1.247              0.655

 Optimization completed.
    -- Stationary point found.
 Normal termination of Gaussian 09 at Mon Jan 27 14:33:11 2020.
