 Gaussian 09, Revision D.01,
 Gaussian 09:  ES64L-G09RevD.01 24-Apr-2013

 -----------------------------
 # b3lyp 6-31G(2df,p) opt Freq
 -----------------------------

 -----
 titel
 -----
 Symbolic Z-matrix:
 Charge =  0 Multiplicity = 1

 SCF Done:  E(RB3LYP) =  -423.169436644     A.U. after   13 cycles
 Optimization completed.
    -- Stationary point found.
 Normal termination of Gaussian 09 at Tue Jan 28 12:49:35 2020.

 ----------------------------------------------------------------------
 #N Geom=AllCheck Guess=TCheck SCRF=Check GenChk RB3LYP/6-31G(2df,p) Fr
 eq
 ----------------------------------------------------------------------

 Structure from the checkpoint file:  "/scratch/puck/g09_394d2d21-42d2-4909-9b70-f9c51eadba2b/Gau-10931.chk"
 -----
 titel
 -----
 Charge =  0 Multiplicity = 1

                         Standard orientation:
 ---------------------------------------------------------------------
 Center     Atomic      Atomic             Coordinates (Angstroms)
 Number     Number       Type             X           Y           Z
 ---------------------------------------------------------------------
      1          6           0        2.862269    0.235528   -0.028866
      2          8           0        1.737661   -0.610915    0.040631
      3          6           0        0.589031   -0.081803   -0.568868
      4          6           0       -0.531495   -1.105324   -0.559758
      5          6           0       -1.842375   -0.314849   -0.577053
      6          6           0       -1.466243    1.164718   -0.590365
      7          6           0       -0.187480    0.990149    0.258155
      8          8           0       -0.643313    0.248364    1.394717
      9          6           0       -1.273540   -0.826265    0.725648
     10          1           0        2.720136    1.169400    0.534635
     11          1           0        3.702929   -0.308468    0.408100
     12          1           0        3.110826    0.496091   -1.070260
     13          1           0        0.824350    0.295633   -1.576613
     14          1           0       -0.419868   -2.092297   -0.985502
     15          1           0       -2.750397   -0.705495   -1.015517
     16          1           0       -1.259904    1.560044   -1.589019
     17          1           0       -2.207571    1.798574   -0.095965
     18          1           0        0.345616    1.880744    0.582545
     19          1           0       -1.721910   -1.566747    1.371456
 ---------------------------------------------------------------------

 SCF Done:  E(RB3LYP) =  -423.169436644     A.U. after    1 cycles

 The electronic state is 1-A.
 Alpha  occ. eigenvalues --  -19.13854 -19.13817 -10.23166 -10.22954 -10.22857
 Alpha  occ. eigenvalues --  -10.22283 -10.19111 -10.18644 -10.18575  -1.05836
 Alpha  occ. eigenvalues --   -1.02687  -0.85652  -0.75794  -0.72661  -0.66064
 Alpha  occ. eigenvalues --   -0.59136  -0.56816  -0.55214  -0.53934  -0.49255
 Alpha  occ. eigenvalues --   -0.47624  -0.44875  -0.43050  -0.41218  -0.41083
 Alpha  occ. eigenvalues --   -0.39810  -0.37463  -0.35478  -0.34350  -0.31603
 Alpha  occ. eigenvalues --   -0.30986  -0.27944  -0.25342  -0.22943
 Alpha virt. eigenvalues --    0.08715   0.10487   0.11876   0.12785   0.13983
 Alpha virt. eigenvalues --    0.14198   0.14604   0.15367   0.16420   0.17085
 Alpha virt. eigenvalues --    0.17800   0.18467   0.20055   0.20470   0.21805

 Mulliken charges:
               1
     1  C   -0.240857
     2  O   -0.253160
     3  C    0.182150
     4  C   -0.157934
     5  C   -0.121643
     6  C   -0.236205
     7  C   -0.004508
     8  O   -0.251194
     9  C    0.103507
    10  H    0.107744
    11  H    0.128783
    12  H    0.101442
    13  H    0.061403
    14  H    0.094275
    15  H    0.090773
    16  H    0.102072
    17  H    0.108068
    18  H    0.080600
    19  H    0.104685
 Sum of Mulliken charges =   0.00000

 Dipole moment (field-independent basis, Debye):
    X=             -0.1574    Y=              0.7006    Z=             -1.7218  Tot=              1.8655
 Quadrupole moment (field-independent basis, Debye-Ang):
   XX=            -48.8836   YY=            -50.8158   ZZ=            -55.5781
   XY=              3.6431   XZ=              0.2976   YZ=             -0.6397

  Exact polarizability:  85.267   1.531  70.669   0.856  -1.192  65.145
 Approx polarizability: 110.395   0.764 105.810   0.744  -1.693 105.097

                      1                      2                      3
                      A                      A                      A
 Frequencies --     81.9035               158.6399               188.1650
 Red. masses --      2.5500                 1.8444                 1.6942
 Frc consts  --      0.0101                 0.0273                 0.0353
 IR Inten    --      2.8142                 0.1480                 1.5605

                      4                      5                      6
                      A                      A                      A
 Frequencies --    280.2895               393.3934               428.0968
 Red. masses --      3.7512                 3.0371                 2.2615
 Frc consts  --      0.1736                 0.2769                 0.2442
 IR Inten    --      3.5587                 0.3011                 0.0901

                      7                      8                      9
                      A                      A                      A
 Frequencies --    509.8511               593.8523               703.9531
 Red. masses --      3.8549                 5.1348                 5.1979
 Frc consts  --      0.5904                 1.0669                 1.5176
 IR Inten    --      1.2937                16.5810                 0.4576

                     10                     11                     12
                      A                      A                      A
 Frequencies --    742.5343               806.7906               812.8384
 Red. masses --      4.7033                 1.5572                 1.6122
 Frc consts  --      1.5279                 0.5972                 0.6276
 IR Inten    --      1.3780                16.2197                19.7966

                     13                     14                     15
                      A                      A                      A
 Frequencies --    832.9789               868.9299               927.7223
 Red. masses --      4.4613                 2.7189                 2.1104
 Frc consts  --      1.8238                 1.2095                 1.0702
 IR Inten    --      2.8714                 3.8565                15.8744

                     16                     17                     18
                      A                      A                      A
 Frequencies --    951.2246               962.3437               976.5631
 Red. masses --      2.0921                 2.0740                 4.3814
 Frc consts  --      1.1153                 1.1316                 2.4618
 IR Inten    --      6.8995                11.2500                15.7189

                     19                     20                     21
                      A                      A                      A
 Frequencies --    997.4088              1014.2414              1028.7283
 Red. masses --      1.8136                 2.6450                 2.0283
 Frc consts  --      1.0630                 1.6031                 1.2647
 IR Inten    --      4.3091                13.1623                 3.0566

                     22                     23                     24
                      A                      A                      A
 Frequencies --   1054.0456              1066.9429              1080.7974
 Red. masses --      1.3945                 1.7296                 1.9759
 Frc consts  --      0.9128                 1.1601                 1.3599
 IR Inten    --     10.7815                 6.8709                 2.5553

                     25                     26                     27
                      A                      A                      A
 Frequencies --   1092.5308              1147.1165              1170.1284
 Red. masses --      2.9093                 1.8275                 1.8693
 Frc consts  --      2.0460                 1.4168                 1.5080
 IR Inten    --     28.4953                68.2428                85.6629

                     28                     29                     30
                      A                      A                      A
 Frequencies --   1181.9243              1207.1368              1233.2313
 Red. masses --      1.2886                 1.6697                 1.8135
 Frc consts  --      1.0606                 1.4335                 1.6250
 IR Inten    --      3.3058                11.5482                49.5548

                     31                     32                     33
                      A                      A                      A
 Frequencies --   1248.9988              1263.9103              1279.9880
 Red. masses --      1.3857                 1.5240                 1.8139
 Frc consts  --      1.2736                 1.4344                 1.7510
 IR Inten    --      0.4444                 4.6304                 7.3227

                     34                     35                     36
                      A                      A                      A
 Frequencies --   1300.8811              1342.7794              1389.2993
 Red. masses --      1.6042                 1.7515                 2.0530
 Frc consts  --      1.5995                 1.8606                 2.3347
 IR Inten    --      4.2700                 5.6036                 9.6469

                     37                     38                     39
                      A                      A                      A
 Frequencies --   1397.6128              1480.2713              1489.7380
 Red. masses --      1.4299                 1.1196                 1.0911
 Frc consts  --      1.6456                 1.4454                 1.4267
 IR Inten    --     46.0389                 2.8828                 3.1402

                     40                     41                     42
                      A                      A                      A
 Frequencies --   1492.1072              1507.9557              2971.0575
 Red. masses --      1.1020                 1.0623                 1.0459
 Frc consts  --      1.4456                 1.4233                 5.4396
 IR Inten    --      2.8975                 5.9363                36.5562

                     43                     44                     45
                      A                      A                      A
 Frequencies --   2982.5314              3023.2643              3058.7093
 Red. masses --      1.0762                 1.1000                 1.0578
 Frc consts  --      5.6403                 5.9237                 5.8306
 IR Inten    --     67.4554                50.3775                32.8318

                     46                     47                     48
                      A                      A                      A
 Frequencies --   3107.7863              3115.9627              3155.0511
 Red. masses --      1.1075                 1.0959                 1.0906
 Frc consts  --      6.3022                 6.2692                 6.3964
 IR Inten    --     21.4472                29.7588                24.7979

                     49                     50                     51
                      A                      A                      A
 Frequencies --   3208.1853              3219.0751              3233.9836
 Red. masses --      1.0915                 1.0919                 1.0978
 Frc consts  --      6.6193                 6.6668                 6.7645
 IR Inten    --      8.0882                 4.8780                11.5679

 - Thermochemistry -
 -------------------
 Temperature   298.150 Kelvin.  Pressure   1.00000 Atm.
 Atom     1 has atomic number  6 and mass  12.00000

 Molecular mass:   126.06808 amu.
 Principal axes and moments of inertia in atomic units:
                           1         2         3
     Eigenvalues --   510.848771289.617481337.96808
           X            0.99980   0.01928   0.00462
           Y           -0.01867   0.99399  -0.10784
           Z           -0.00667   0.10774   0.99416
 This molecule is an asymmetric top.
 Rotational symmetry number  1.
 Warning -- assumption of classical behavior for rotation
           may cause significant error
 Rotational temperatures (Kelvin)      0.16955     0.06716     0.06474
 Rotational constants (GHZ):           3.53283     1.39944     1.34887
 Zero-point vibrational energy     423259.4 (Joules/Mol)
                                  101.16143 (Kcal/Mol)
 Warning -- explicit consideration of   8 degrees of freedom as
           vibrations may cause significant error
 Vibrational temperatures:    117.84   228.25   270.73   403.27   566.00
          (Kelvin)            615.94   733.56   854.42  1012.83  1068.34
                             1160.79  1169.49  1198.47  1250.19  1334.78
                             1368.60  1384.60  1405.05  1435.05  1459.27
                             1480.11  1516.53  1535.09  1555.02  1571.91
                             1650.44  1683.55  1700.52  1736.80  1774.34
                             1797.03  1818.48  1841.61  1871.68  1931.96
                             1998.89  2010.85  2129.78  2143.40  2146.81
                             2169.61  4274.68  4291.19  4349.80  4400.79
                             4471.41  4483.17  4539.41  4615.86  4631.53
                             4652.98

 Zero-point correction=                           0.161211 (Hartree/Particle)
 Thermal correction to Energy=                    0.168510
 Thermal correction to Enthalpy=                  0.169455
 Thermal correction to Gibbs Free Energy=         0.129279
 Sum of electronic and zero-point Energies=           -423.008226
 Sum of electronic and thermal Energies=              -423.000926
 Sum of electronic and thermal Enthalpies=            -422.999982
 Sum of electronic and thermal Free Energies=         -423.040157

                     E (Thermal)             CV                S
                      KCal/Mol        Cal/Mol-Kelvin    Cal/Mol-Kelvin
 Total                  105.742             28.926             84.556
 Electronic               0.000              0.000              0.000
 Translational            0.889              2.981             40.409
 Rotational               0.889              2.981             28.268
 Vibrational            103.964             22.964             15.879
 Vibration     1          0.600              1.962              3.845
 Vibration     2          0.621              1.893              2.566
 Vibration     3          0.633              1.856              2.246
 Vibration     4          0.680              1.710              1.532
 Vibration     5          0.761              1.484              0.987
 Vibration     6          0.790              1.409              0.865
 Vibration     7          0.865              1.228              0.634
 Vibration     8          0.951              1.045              0.460

 Optimization completed.
    -- Stationary point found.
 Normal termination of Gaussian 09 at Tue Jan 28 14:45:59 2020.
