 Gaussian 09, Revision D.01,
 Gaussian 09:  ES64L-G09RevD.01 24-Apr-2013

 -----------------------------
 # b3lyp 6-31G(2df,p) opt Freq
 -----------------------------

 -----
 titel
 -----
 Symbolic Z-matrix:
 Charge =  0 Multiplicity = 1

 SCF Done:  E(RB3LYP) =  -423.157055971     A.U. after   13 cycles
 Optimization completed.
    -- Stationary point found.
 Normal termination of Gaussian 09 at Tue Jan 28 03:30:08 2020.

 ----------------------------------------------------------------------
 #N Geom=AllCheck Guess=TCheck SCRF=Check GenChk RB3LYP/6-31G(2df,p) Fr
 eq
 ----------------------------------------------------------------------

 Structure from the checkpoint file:  "/scratch/puck/g09_3b5e031c-8e61-4980-8f11-d4ede968ba65/Gau-7608.chk"
 -----
 titel
 -----
 Charge =  0 Multiplicity = 1

                         Standard orientation:
 ---------------------------------------------------------------------
 Center     Atomic      Atomic             Coordinates (Angstroms)
 Number     Number       Type             X           Y           Z
 ---------------------------------------------------------------------
      1          6           0       -2.585551   -0.267383   -0.569740
      2          6           0       -1.181950   -0.114820   -0.071562
      3          6           0       -0.458363   -0.545541    1.161643
      4          8           0        0.165319    0.725469    1.393760
      5          6           0       -0.341159    1.179877    0.082552
      6          6           0        0.795564    1.072280   -0.920315
      7          6           0        1.229723   -0.417612   -0.773863
      8          8           0        2.379343   -0.579454    0.038644
      9          6           0       -0.019774   -1.090967   -0.186856
     10          1           0       -2.933529   -1.297122   -0.440311
     11          1           0       -3.277664    0.388820   -0.030403
     12          1           0       -2.659535   -0.028467   -1.637363
     13          1           0       -0.740118   -1.137717    2.024714
     14          1           0       -0.855908    2.138503    0.171273
     15          1           0        0.421517    1.285845   -1.928981
     16          1           0        1.631696    1.744587   -0.710258
     17          1           0        1.494114   -0.853484   -1.740770
     18          1           0        2.157321   -0.166262    0.883172
     19          1           0       -0.226125   -2.137822   -0.381462
 ---------------------------------------------------------------------

 SCF Done:  E(RB3LYP) =  -423.157055971     A.U. after    1 cycles

 The electronic state is 1-A.
 Alpha  occ. eigenvalues --  -19.14339 -19.11898 -10.24119 -10.24015 -10.23048
 Alpha  occ. eigenvalues --  -10.20202 -10.19124 -10.18909 -10.18161  -1.05801
 Alpha  occ. eigenvalues --   -1.00229  -0.85184  -0.76823  -0.73274  -0.67245
 Alpha  occ. eigenvalues --   -0.61401  -0.57175  -0.54573  -0.50878  -0.49292
 Alpha  occ. eigenvalues --   -0.45250  -0.44299  -0.42880  -0.41146  -0.40645
 Alpha  occ. eigenvalues --   -0.40182  -0.37492  -0.37285  -0.35107  -0.32136
 Alpha  occ. eigenvalues --   -0.30893  -0.27503  -0.24899  -0.23282
 Alpha virt. eigenvalues --    0.07539   0.08977   0.10709   0.11941   0.12459
 Alpha virt. eigenvalues --    0.13480   0.14305   0.14739   0.15367   0.15871
 Alpha virt. eigenvalues --    0.17918   0.18541   0.18949   0.20953   0.21359

 Mulliken charges:
               1
     1  C   -0.520376
     2  C    0.278340
     3  C    0.035965
     4  O   -0.328267
     5  C    0.036821
     6  C   -0.253725
     7  C    0.131464
     8  O   -0.444312
     9  C   -0.166917
    10  H    0.126612
    11  H    0.126006
    12  H    0.123468
    13  H    0.105135
    14  H    0.081443
    15  H    0.099378
    16  H    0.112854
    17  H    0.082435
    18  H    0.285557
    19  H    0.088120
 Sum of Mulliken charges =   0.00000

 Dipole moment (field-independent basis, Debye):
    X=             -2.5945    Y=              0.1004    Z=             -0.9170  Tot=              2.7537
 Quadrupole moment (field-independent basis, Debye-Ang):
   XX=            -57.3842   YY=            -51.3825   ZZ=            -52.5267
   XY=              2.5073   XZ=              0.3067   YZ=             -2.1173

  Exact polarizability:  79.425   0.080  71.359  -0.088  -2.036  69.660
 Approx polarizability: 107.634  -2.589 107.492   2.631  -0.524 109.900

                      1                      2                      3
                      A                      A                      A
 Frequencies --    142.9802               186.7848               193.2700
 Red. masses --      4.0737                 1.2131                 2.0340
 Frc consts  --      0.0491                 0.0249                 0.0448
 IR Inten    --      3.5913                 0.0833                 0.6365

                      4                      5                      6
                      A                      A                      A
 Frequencies --    258.1951               347.7785               411.7697
 Red. masses --      3.2044                 3.2921                 2.5683
 Frc consts  --      0.1259                 0.2346                 0.2566
 IR Inten    --      1.2872                 0.7273                 3.3826

                      7                      8                      9
                      A                      A                      A
 Frequencies --    451.9707               506.0444               546.3600
 Red. masses --      3.3074                 1.3068                 2.3651
 Frc consts  --      0.3981                 0.1972                 0.4160
 IR Inten    --      4.3472                51.1600                21.4046

                     10                     11                     12
                      A                      A                      A
 Frequencies --    622.4581               668.8479               750.7021
 Red. masses --      3.3628                 4.9117                 3.6626
 Frc consts  --      0.7677                 1.2946                 1.2161
 IR Inten    --      3.8095                 5.4023                22.0517

                     13                     14                     15
                      A                      A                      A
 Frequencies --    813.5513               837.6679               843.0279
 Red. masses --      2.9528                 3.5927                 3.4950
 Frc consts  --      1.1515                 1.4853                 1.4635
 IR Inten    --      7.0572                 7.3993                 2.4765

                     16                     17                     18
                      A                      A                      A
 Frequencies --    872.3306               913.2594               918.8235
 Red. masses --      2.6863                 2.1818                 1.6484
 Frc consts  --      1.2044                 1.0721                 0.8199
 IR Inten    --      7.5660                 8.2229                11.0856

                     19                     20                     21
                      A                      A                      A
 Frequencies --    966.3096               986.2970              1007.1705
 Red. masses --      2.2387                 1.9114                 1.7067
 Frc consts  --      1.2316                 1.0955                 1.0200
 IR Inten    --      9.2372                40.0335                 3.3012

                     22                     23                     24
                      A                      A                      A
 Frequencies --   1020.1984              1040.9839              1069.7004
 Red. masses --      1.9029                 2.1776                 2.3979
 Frc consts  --      1.1669                 1.3903                 1.6166
 IR Inten    --     12.7918                11.5513                99.8661

                     25                     26                     27
                      A                      A                      A
 Frequencies --   1085.5291              1131.5815              1152.5679
 Red. masses --      1.7354                 2.2966                 1.3419
 Frc consts  --      1.2049                 1.7326                 1.0503
 IR Inten    --      2.7909                10.3826                37.4529

                     28                     29                     30
                      A                      A                      A
 Frequencies --   1195.3730              1207.1801              1254.2497
 Red. masses --      1.7445                 1.6303                 1.7636
 Frc consts  --      1.4687                 1.3998                 1.6346
 IR Inten    --      5.7558                 0.2740                 8.9947

                     31                     32                     33
                      A                      A                      A
 Frequencies --   1264.2426              1282.5591              1315.0255
 Red. masses --      1.7493                 1.6180                 1.4554
 Frc consts  --      1.6473                 1.5681                 1.4828
 IR Inten    --     10.8957                 5.9433                 6.6080

                     34                     35                     36
                      A                      A                      A
 Frequencies --   1327.6274              1339.9989              1416.8682
 Red. masses --      1.5452                 1.5174                 1.2239
 Frc consts  --      1.6047                 1.6053                 1.4477
 IR Inten    --      6.1558                 1.2131                 1.2250

                     37                     38                     39
                      A                      A                      A
 Frequencies --   1448.7234              1469.6464              1474.4559
 Red. masses --      1.2382                 1.3573                 2.2774
 Frc consts  --      1.5311                 1.7273                 2.9172
 IR Inten    --     72.0324                 1.8739                18.5652

                     40                     41                     42
                      A                      A                      A
 Frequencies --   1487.2766              1498.4843              3023.7742
 Red. masses --      1.0557                 1.0830                 1.0362
 Frc consts  --      1.3758                 1.4327                 5.5819
 IR Inten    --      5.2075                 4.6713                36.2991

                     43                     44                     45
                      A                      A                      A
 Frequencies --   3036.9964              3077.0731              3082.7588
 Red. masses --      1.0647                 1.0864                 1.1005
 Frc consts  --      5.7860                 6.0606                 6.1622
 IR Inten    --     17.4615                37.2110                24.8870

                     46                     47                     48
                      A                      A                      A
 Frequencies --   3097.3918              3100.1592              3105.4780
 Red. masses --      1.0917                 1.0996                 1.0990
 Frc consts  --      6.1711                 6.2264                 6.2444
 IR Inten    --     26.3356                27.6054                20.1414

                     49                     50                     51
                      A                      A                      A
 Frequencies --   3174.0715              3184.6390              3769.3247
 Red. masses --      1.0895                 1.0950                 1.0652
 Frc consts  --      6.4672                 6.5433                 8.9171
 IR Inten    --      7.0149                22.6845                28.3119

 - Thermochemistry -
 -------------------
 Temperature   298.150 Kelvin.  Pressure   1.00000 Atm.
 Atom     1 has atomic number  6 and mass  12.00000

 Molecular mass:   126.06808 amu.
 Principal axes and moments of inertia in atomic units:
                           1         2         3
     Eigenvalues --   597.456101200.149241220.83426
           X            0.99970   0.02185   0.01111
           Y           -0.02236   0.62670   0.77894
           Z           -0.01006   0.77895  -0.62700
 This molecule is an asymmetric top.
 Rotational symmetry number  1.
 Warning -- assumption of classical behavior for rotation
           may cause significant error
 Rotational temperatures (Kelvin)      0.14497     0.07217     0.07095
 Rotational constants (GHZ):           3.02071     1.50376     1.47829
 Zero-point vibrational energy     420963.1 (Joules/Mol)
                                  100.61260 (Kcal/Mol)
 Warning -- explicit consideration of   9 degrees of freedom as
           vibrations may cause significant error
 Vibrational temperatures:    205.72   268.74   278.07   371.48   500.38
          (Kelvin)            592.44   650.28   728.08   786.09   895.58
                              962.32  1080.09  1170.52  1205.22  1212.93
                             1255.09  1313.97  1321.98  1390.30  1419.06
                             1449.09  1467.84  1497.74  1539.06  1561.83
                             1628.09  1658.29  1719.87  1736.86  1804.58
                             1818.96  1845.31  1892.03  1910.16  1927.96
                             2038.55  2084.39  2114.49  2121.41  2139.86
                             2155.98  4350.53  4369.55  4427.22  4435.40
                             4456.45  4460.43  4468.08  4566.78  4581.98
                             5423.21

 Zero-point correction=                           0.160336 (Hartree/Particle)
 Thermal correction to Energy=                    0.167942
 Thermal correction to Enthalpy=                  0.168886
 Thermal correction to Gibbs Free Energy=         0.128663
 Sum of electronic and zero-point Energies=           -422.996720
 Sum of electronic and thermal Energies=              -422.989114
 Sum of electronic and thermal Enthalpies=            -422.988170
 Sum of electronic and thermal Free Energies=         -423.028393

                     E (Thermal)             CV                S
                      KCal/Mol        Cal/Mol-Kelvin    Cal/Mol-Kelvin
 Total                  105.385             30.778             84.658
 Electronic               0.000              0.000              0.000
 Translational            0.889              2.981             40.409
 Rotational               0.889              2.981             28.261
 Vibrational            103.608             24.817             15.988
 Vibration     1          0.616              1.910              2.764
 Vibration     2          0.632              1.858              2.260
 Vibration     3          0.635              1.849              2.196
 Vibration     4          0.667              1.749              1.674
 Vibration     5          0.725              1.580              1.176
 Vibration     6          0.776              1.445              0.920
 Vibration     7          0.811              1.357              0.790
 Vibration     8          0.861              1.237              0.643
 Vibration     9          0.902              1.148              0.552

 Normal termination of Gaussian 09 at Tue Jan 28 04:15:03 2020.
