 Gaussian 09, Revision D.01,
 Gaussian 09:  ES64L-G09RevD.01 24-Apr-2013

 -----------------------------
 # b3lyp 6-31G(2df,p) opt Freq
 -----------------------------

 -----
 titel
 -----
 Symbolic Z-matrix:
 Charge =  0 Multiplicity = 1

 SCF Done:  E(RB3LYP) =  -423.233399132     A.U. after   14 cycles
 Optimization completed.
    -- Stationary point found.
 Normal termination of Gaussian 09 at Mon Jan 27 13:48:50 2020.

 ----------------------------------------------------------------------
 #N Geom=AllCheck Guess=TCheck SCRF=Check GenChk RB3LYP/6-31G(2df,p) Fr
 eq
 ----------------------------------------------------------------------

 Structure from the checkpoint file:  "/scratch/puck/g09_627458aa-6c7c-4b46-98c5-435075f8287d/Gau-76052.chk"
 -----
 titel
 -----
 Charge =  0 Multiplicity = 1

                         Standard orientation:
 ---------------------------------------------------------------------
 Center     Atomic      Atomic             Coordinates (Angstroms)
 Number     Number       Type             X           Y           Z
 ---------------------------------------------------------------------
      1          8           0        3.460028   -0.397023   -0.270265
      2          6           0        2.540729    0.073215    0.347516
      3          6           0        1.284016    0.650161   -0.258804
      4          6           0        0.016527    0.018961    0.325321
      5          6           0       -0.363962   -1.393244   -0.149999
      6          6           0       -1.877161   -1.490938    0.145228
      7          6           0       -2.417704   -0.092231   -0.195575
      8          6           0       -1.243173    0.858887    0.045444
      9          8           0       -1.276577    2.061650    0.010695
     10          1           0        2.561023    0.112335    1.463974
     11          1           0        1.252752    1.724791   -0.027558
     12          1           0        1.326724    0.535967   -1.345973
     13          1           0        0.103338    0.006678    1.425213
     14          1           0       -0.184806   -1.476755   -1.229353
     15          1           0        0.214998   -2.182635    0.335586
     16          1           0       -2.364821   -2.287942   -0.420301
     17          1           0       -2.033649   -1.705153    1.208714
     18          1           0       -2.680377   -0.013968   -1.258786
     19          1           0       -3.298423    0.220794    0.370261
 ---------------------------------------------------------------------

 SCF Done:  E(RB3LYP) =  -423.233399132     A.U. after    1 cycles

 The electronic state is 1-A.
 Alpha  occ. eigenvalues --  -19.14159 -19.14016 -10.27591 -10.27430 -10.21146
 Alpha  occ. eigenvalues --  -10.20080 -10.20025 -10.20002 -10.19954  -1.05093
 Alpha  occ. eigenvalues --   -1.04859  -0.85516  -0.78516  -0.71111  -0.68272
 Alpha  occ. eigenvalues --   -0.60069  -0.58140  -0.53512  -0.49877  -0.48018
 Alpha  occ. eigenvalues --   -0.46483  -0.45232  -0.44398  -0.42809  -0.40729
 Alpha  occ. eigenvalues --   -0.39536  -0.39061  -0.38617  -0.36104  -0.34793
 Alpha  occ. eigenvalues --   -0.34546  -0.33961  -0.25822  -0.24589
 Alpha virt. eigenvalues --   -0.02888  -0.01932   0.07594   0.09767   0.11627
 Alpha virt. eigenvalues --    0.12655   0.13279   0.14295   0.15220   0.15406
 Alpha virt. eigenvalues --    0.17125   0.17515   0.19037   0.19717   0.23336

 Mulliken charges:
               1
     1  O   -0.239464
     2  C    0.158948
     3  C   -0.293230
     4  C   -0.106105
     5  C   -0.226444
     6  C   -0.220868
     7  C   -0.315364
     8  C    0.405725
     9  O   -0.318993
    10  H    0.069110
    11  H    0.143520
    12  H    0.121109
    13  H    0.106859
    14  H    0.111938
    15  H    0.112931
    16  H    0.109997
    17  H    0.109401
    18  H    0.137944
    19  H    0.132985
 Sum of Mulliken charges =   0.00000

 Dipole moment (field-independent basis, Debye):
    X=             -2.4596    Y=             -1.7612    Z=              0.8831  Tot=              3.1514
 Quadrupole moment (field-independent basis, Debye-Ang):
   XX=            -62.8682   YY=            -58.7454   ZZ=            -50.7474
   XY=              7.0907   XZ=              3.0479   YZ=             -0.1147

  Exact polarizability:  92.081  -1.463  74.099   0.181   0.534  64.633
 Approx polarizability: 119.815  -7.666 114.247  -4.086   2.631 103.364

                      1                      2                      3
                      A                      A                      A
 Frequencies --     48.1783                68.9057                92.6680
 Red. masses --      4.9282                 3.2048                 2.9178
 Frc consts  --      0.0067                 0.0090                 0.0148
 IR Inten    --      4.9523                 1.9133                 7.3692

                      4                      5                      6
                      A                      A                      A
 Frequencies --    162.1777               210.9924               281.3320
 Red. masses --      2.9314                 2.0679                 3.9871
 Frc consts  --      0.0454                 0.0542                 0.1859
 IR Inten    --      4.4272                 0.4403                 4.9810

                      7                      8                      9
                      A                      A                      A
 Frequencies --    356.8311               448.6348               509.5588
 Red. masses --      2.2424                 2.8509                 4.0759
 Frc consts  --      0.1682                 0.3381                 0.6235
 IR Inten    --      0.1506                 3.3067                15.1951

                     10                     11                     12
                      A                      A                      A
 Frequencies --    550.7282               567.8891               617.4767
 Red. masses --      2.3618                 2.9492                 2.5868
 Frc consts  --      0.4221                 0.5604                 0.5811
 IR Inten    --      2.6054                 6.0487                 3.1754

                     13                     14                     15
                      A                      A                      A
 Frequencies --    726.5484               795.3271               829.5879
 Red. masses --      2.6015                 1.7196                 2.0016
 Frc consts  --      0.8091                 0.6409                 0.8116
 IR Inten    --      0.2608                 1.8234                13.8041

                     16                     17                     18
                      A                      A                      A
 Frequencies --    894.7104               914.2398               941.7881
 Red. masses --      1.8078                 2.2040                 1.8438
 Frc consts  --      0.8527                 1.0854                 0.9635
 IR Inten    --      1.7074                 0.2148                 8.2087

                     19                     20                     21
                      A                      A                      A
 Frequencies --    977.3301              1015.3398              1034.1940
 Red. masses --      1.3865                 2.0603                 1.7834
 Frc consts  --      0.7803                 1.2515                 1.1238
 IR Inten    --      0.6781                 0.8260                 3.0490

                     22                     23                     24
                      A                      A                      A
 Frequencies --   1044.9887              1126.3364              1149.2044
 Red. masses --      2.3641                 2.6029                 3.0091
 Frc consts  --      1.5211                 1.9456                 2.3414
 IR Inten    --     34.7554                 3.7436                87.3452

                     25                     26                     27
                      A                      A                      A
 Frequencies --   1162.1561              1185.4254              1219.6236
 Red. masses --      1.7760                 1.4276                 1.4409
 Frc consts  --      1.4133                 1.1820                 1.2628
 IR Inten    --      2.0055                 2.5989                 6.8480

                     28                     29                     30
                      A                      A                      A
 Frequencies --   1233.9680              1264.3464              1298.2538
 Red. masses --      1.4915                 1.3215                 1.3815
 Frc consts  --      1.3381                 1.2446                 1.3719
 IR Inten    --      0.4861                 7.4273                 3.3461

                     31                     32                     33
                      A                      A                      A
 Frequencies --   1314.3100              1330.4416              1341.1905
 Red. masses --      1.3859                 1.3370                 1.3679
 Frc consts  --      1.4105                 1.3944                 1.4497
 IR Inten    --      0.5449                 0.5752                 2.6961

                     34                     35                     36
                      A                      A                      A
 Frequencies --   1364.1542              1427.9079              1446.6732
 Red. masses --      1.6820                 1.1940                 1.0822
 Frc consts  --      1.8442                 1.4343                 1.3345
 IR Inten    --      6.5983                 4.4621                 7.5797

                     37                     38                     39
                      A                      A                      A
 Frequencies --   1461.0931              1493.2366              1504.6192
 Red. masses --      1.0918                 1.0851                 1.1022
 Frc consts  --      1.3732                 1.4255                 1.4702
 IR Inten    --      7.2922                 3.8283                 0.9017

                     40                     41                     42
                      A                      A                      A
 Frequencies --   1837.0913              1842.6872              2837.2653
 Red. masses --     10.2861                12.7868                 1.0812
 Frc consts  --     20.4533                25.5809                 5.1283
 IR Inten    --    231.9779               150.2305               109.8392

                     43                     44                     45
                      A                      A                      A
 Frequencies --   2971.0847              3018.7208              3034.4515
 Red. masses --      1.0796                 1.0631                 1.0684
 Frc consts  --      5.6152                 5.7077                 5.7964
 IR Inten    --     11.8148                11.1549                15.3446

                     46                     47                     48
                      A                      A                      A
 Frequencies --   3035.8436              3045.8927              3097.4938
 Red. masses --      1.0691                 1.0633                 1.0965
 Frc consts  --      5.8054                 5.8121                 6.1983
 IR Inten    --      5.7257                33.8915                11.4022

                     49                     50                     51
                      A                      A                      A
 Frequencies --   3099.5075              3103.3586              3110.1338
 Red. masses --      1.0966                 1.0953                 1.1003
 Frc consts  --      6.2072                 6.2149                 6.2707
 IR Inten    --     18.3154                17.1382                22.5876

 - Thermochemistry -
 -------------------
 Temperature   298.150 Kelvin.  Pressure   1.00000 Atm.
 Atom     1 has atomic number  8 and mass  15.99491

 Molecular mass:   126.06808 amu.
 Principal axes and moments of inertia in atomic units:
                           1         2         3
     Eigenvalues --   604.506041793.982052278.97990
           X            0.99941   0.03381   0.00635
           Y           -0.03379   0.99942  -0.00335
           Z           -0.00646   0.00314   0.99997
 This molecule is an asymmetric top.
 Rotational symmetry number  1.
 Warning -- assumption of classical behavior for rotation
           may cause significant error
 Rotational temperatures (Kelvin)      0.14328     0.04828     0.03801
 Rotational constants (GHZ):           2.98548     1.00600     0.79191
 Zero-point vibrational energy     415378.7 (Joules/Mol)
                                   99.27790 (Kcal/Mol)
 Warning -- explicit consideration of  12 degrees of freedom as
           vibrations may cause significant error
 Vibrational temperatures:     69.32    99.14   133.33   233.34   303.57
          (Kelvin)            404.77   513.40   645.48   733.14   792.37
                              817.06   888.41  1045.34  1144.30  1193.59
                             1287.29  1315.39  1355.02  1406.16  1460.85
                             1487.97  1503.50  1620.54  1653.45  1672.08
                             1705.56  1754.76  1775.40  1819.11  1867.90
                             1891.00  1914.21  1929.67  1962.71  2054.44
                             2081.44  2102.18  2148.43  2164.81  2643.16
                             2651.21  4082.19  4274.72  4343.26  4365.89
                             4367.90  4382.35  4456.60  4459.49  4465.04
                             4474.78

 Zero-point correction=                           0.158209 (Hartree/Particle)
 Thermal correction to Energy=                    0.167136
 Thermal correction to Enthalpy=                  0.168081
 Thermal correction to Gibbs Free Energy=         0.123218
 Sum of electronic and zero-point Energies=           -423.075190
 Sum of electronic and thermal Energies=              -423.066263
 Sum of electronic and thermal Enthalpies=            -423.065318
 Sum of electronic and thermal Free Energies=         -423.110181

                     E (Thermal)             CV                S
                      KCal/Mol        Cal/Mol-Kelvin    Cal/Mol-Kelvin
 Total                  104.880             32.209             94.421
 Electronic               0.000              0.000              0.000
 Translational            0.889              2.981             40.409
 Rotational               0.889              2.981             29.293
 Vibrational            103.102             26.248             24.719
 Vibration     1          0.595              1.978              4.891
 Vibration     2          0.598              1.969              4.184
 Vibration     3          0.602              1.954              3.603
 Vibration     4          0.622              1.889              2.524
 Vibration     5          0.643              1.824              2.035
 Vibration     6          0.681              1.708              1.526
 Vibration     7          0.732              1.561              1.136
 Vibration     8          0.808              1.364              0.800
 Vibration     9          0.865              1.229              0.635
 Vibration    10          0.906              1.138              0.543
 Vibration    11          0.924              1.101              0.508
 Vibration    12          0.977              0.995              0.421

 Optimization completed.
    -- Stationary point found.
 Normal termination of Gaussian 09 at Mon Jan 27 14:28:45 2020.
