 Gaussian 09, Revision D.01,
 Gaussian 09:  ES64L-G09RevD.01 24-Apr-2013

 -----------------------------
 # b3lyp 6-31G(2df,p) opt Freq
 -----------------------------

 -----
 titel
 -----
 Symbolic Z-matrix:
 Charge =  0 Multiplicity = 1

 SCF Done:  E(RB3LYP) =  -423.115618297     A.U. after   14 cycles
 Optimization completed.
    -- Stationary point found.
 Normal termination of Gaussian 09 at Tue Jan 28 14:23:22 2020.

 ----------------------------------------------------------------------
 #N Geom=AllCheck Guess=TCheck SCRF=Check GenChk RB3LYP/6-31G(2df,p) Fr
 eq
 ----------------------------------------------------------------------

 Structure from the checkpoint file:  "/scratch/puck/g09_cf1205cf-d730-4e33-954e-a4a4d8ed6c72/Gau-147852.chk"
 -----
 titel
 -----
 Charge =  0 Multiplicity = 1

                         Standard orientation:
 ---------------------------------------------------------------------
 Center     Atomic      Atomic             Coordinates (Angstroms)
 Number     Number       Type             X           Y           Z
 ---------------------------------------------------------------------
      1          6           0        3.347949    0.657772   -0.139315
      2          6           0        2.311408   -0.431709    0.069656
      3          8           0        1.049292    0.068979   -0.353005
      4          6           0        0.021166   -0.843596   -0.209314
      5          6           0       -0.659034   -1.015286    1.129581
      6          6           0       -1.369529   -0.307390   -0.028476
      7          8           0       -2.344140   -1.035740   -0.727670
      8          6           0       -1.596111    1.110722    0.062868
      9          6           0       -1.854244    2.282304    0.143242
     10          1           0        4.335919    0.306573    0.173037
     11          1           0        3.396953    0.943718   -1.193628
     12          1           0        3.092927    1.546404    0.444781
     13          1           0        2.569416   -1.332302   -0.510646
     14          1           0        2.261644   -0.730316    1.128118
     15          1           0        0.083797   -1.728505   -0.844464
     16          1           0       -1.031759   -1.998399    1.394307
     17          1           0       -0.318216   -0.391116    1.947455
     18          1           0       -3.180514   -0.921159   -0.261847
     19          1           0       -2.061018    3.322282    0.198834
 ---------------------------------------------------------------------

 SCF Done:  E(RB3LYP) =  -423.115618297     A.U. after    1 cycles

 The electronic state is 1-A.
 Alpha  occ. eigenvalues --  -19.15014 -19.14658 -10.26171 -10.24119 -10.23034
 Alpha  occ. eigenvalues --  -10.19007 -10.18020 -10.17608 -10.17326  -1.04876
 Alpha  occ. eigenvalues --   -1.03314  -0.85178  -0.75281  -0.74245  -0.63506
 Alpha  occ. eigenvalues --   -0.62603  -0.59611  -0.55270  -0.51558  -0.50249
 Alpha  occ. eigenvalues --   -0.48289  -0.45790  -0.43253  -0.42379  -0.38846
 Alpha  occ. eigenvalues --   -0.38345  -0.37495  -0.35178  -0.33867  -0.30258
 Alpha  occ. eigenvalues --   -0.29438  -0.27118  -0.25232  -0.23947
 Alpha virt. eigenvalues --    0.03513   0.05018   0.09542   0.09911   0.11447
 Alpha virt. eigenvalues --    0.13013   0.13325   0.14212   0.14820   0.15673
 Alpha virt. eigenvalues --    0.16782   0.18190   0.19199   0.20374   0.21257

 Mulliken charges:
               1
     1  C   -0.385684
     2  C   -0.035566
     3  O   -0.246952
     4  C    0.103962
     5  C   -0.383186
     6  C    0.167309
     7  O   -0.450963
     8  C    0.334172
     9  C   -0.500617
    10  H    0.115025
    11  H    0.130144
    12  H    0.129614
    13  H    0.090524
    14  H    0.092817
    15  H    0.103225
    16  H    0.120993
    17  H    0.130572
    18  H    0.287213
    19  H    0.197398
 Sum of Mulliken charges =   0.00000

 Dipole moment (field-independent basis, Debye):
    X=              0.3359    Y=             -0.5697    Z=              1.5985  Tot=              1.7299
 Quadrupole moment (field-independent basis, Debye-Ang):
   XX=            -46.2170   YY=            -49.2739   ZZ=            -54.9082
   XY=             -1.5755   XZ=             -2.2404   YZ=             -0.5185

  Exact polarizability:  87.450  -5.878  90.630  -0.146  -0.006  61.014
 Approx polarizability: 106.587 -11.201 141.911   0.556   1.928  93.102

                      1                      2                      3
                      A                      A                      A
 Frequencies --     63.8703                77.2004               100.8810
 Red. masses --      3.4205                 1.9254                 3.5100
 Frc consts  --      0.0082                 0.0068                 0.0210
 IR Inten    --      0.5497                 0.9690                 1.3891

                      4                      5                      6
                      A                      A                      A
 Frequencies --    174.3997               186.0543               240.3222
 Red. masses --      3.2607                 3.4963                 1.1909
 Frc consts  --      0.0584                 0.0713                 0.0405
 IR Inten    --      3.6029                 1.8104                 0.5258

                      7                      8                      9
                      A                      A                      A
 Frequencies --    282.4003               303.4401               332.5598
 Red. masses --      1.6078                 3.4439                 3.2091
 Frc consts  --      0.0755                 0.1868                 0.2091
 IR Inten    --     40.4514                10.5486                23.8368

                     10                     11                     12
                      A                      A                      A
 Frequencies --    356.5195               421.6596               505.6727
 Red. masses --      2.8903                 3.3037                 2.4246
 Frc consts  --      0.2164                 0.3461                 0.3653
 IR Inten    --     34.1206                 4.9125                 3.1134

                     13                     14                     15
                      A                      A                      A
 Frequencies --    560.9382               592.8587               637.9210
 Red. masses --      5.2484                 1.3051                 3.6922
 Frc consts  --      0.9730                 0.2703                 0.8852
 IR Inten    --     11.7549                41.4959                 9.8316

                     16                     17                     18
                      A                      A                      A
 Frequencies --    679.2342               684.7932               820.2994
 Red. masses --      1.2716                 3.8803                 1.0833
 Frc consts  --      0.3456                 1.0721                 0.4295
 IR Inten    --     32.6972                 6.4223                 0.3729

                     19                     20                     21
                      A                      A                      A
 Frequencies --    846.7097               897.0701               913.8896
 Red. masses --      2.4741                 3.0538                 1.5716
 Frc consts  --      1.0450                 1.4479                 0.7734
 IR Inten    --      6.8808                13.0438                12.1136

                     22                     23                     24
                      A                      A                      A
 Frequencies --    930.3520              1009.8944              1026.6745
 Red. masses --      1.9033                 3.2818                 1.3577
 Frc consts  --      0.9706                 1.9720                 0.8432
 IR Inten    --      3.5746                 8.8296                 3.1426

                     25                     26                     27
                      A                      A                      A
 Frequencies --   1062.0836              1095.5790              1150.1740
 Red. masses --      3.0413                 1.6370                 2.5394
 Frc consts  --      2.0213                 1.1576                 1.9793
 IR Inten    --     13.8022                54.2447                69.5336

                     28                     29                     30
                      A                      A                      A
 Frequencies --   1184.5422              1188.1445              1239.8615
 Red. masses --      2.6055                 1.6500                 2.1731
 Frc consts  --      2.1540                 1.3724                 1.9683
 IR Inten    --    199.4645                44.5799                18.9586

                     31                     32                     33
                      A                      A                      A
 Frequencies --   1280.1014              1295.0319              1352.7602
 Red. masses --      2.5913                 1.1146                 1.3526
 Frc consts  --      2.5018                 1.1013                 1.4584
 IR Inten    --     23.5916                 0.8451                49.3768

                     34                     35                     36
                      A                      A                      A
 Frequencies --   1387.6290              1405.4210              1430.9979
 Red. masses --      1.3927                 1.2649                 1.2893
 Frc consts  --      1.5800                 1.4721                 1.5556
 IR Inten    --     45.1156                10.1781                14.8971

                     37                     38                     39
                      A                      A                      A
 Frequencies --   1477.8815              1482.8285              1499.8705
 Red. masses --      1.8857                 1.0416                 1.0471
 Frc consts  --      2.4266                 1.3494                 1.3878
 IR Inten    --     12.7857                 4.8300                 2.0953

                     40                     41                     42
                      A                      A                      A
 Frequencies --   1528.2005              2235.5563              2972.4503
 Red. masses --      1.0992                 5.9969                 1.0569
 Frc consts  --      1.5124                17.6582                 5.5019
 IR Inten    --      1.6594                 4.8997                50.8686

                     43                     44                     45
                      A                      A                      A
 Frequencies --   3003.9736              3046.2564              3096.6473
 Red. masses --      1.1040                 1.0347                 1.0869
 Frc consts  --      5.8699                 5.6573                 6.1406
 IR Inten    --     42.7953                16.4937                21.4867

                     46                     47                     48
                      A                      A                      A
 Frequencies --   3120.7275              3124.1445              3137.9830
 Red. masses --      1.1015                 1.1028                 1.0532
 Frc consts  --      6.3202                 6.3416                 6.1106
 IR Inten    --     23.7980                23.7840                 3.4471

                     49                     50                     51
                      A                      A                      A
 Frequencies --   3239.4450              3502.9472              3794.7006
 Red. masses --      1.1187                 1.1608                 1.0661
 Frc consts  --      6.9165                 8.3925                 9.0445
 IR Inten    --      4.0166                70.6553                25.2428

 - Thermochemistry -
 -------------------
 Temperature   298.150 Kelvin.  Pressure   1.00000 Atm.
 Atom     1 has atomic number  6 and mass  12.00000

 Molecular mass:   126.06808 amu.
 Principal axes and moments of inertia in atomic units:
                           1         2         3
     Eigenvalues --   662.603101811.818772212.81347
           X            0.99996   0.00701  -0.00513
           Y           -0.00709   0.99986  -0.01540
           Z            0.00503   0.01544   0.99987
 This molecule is an asymmetric top.
 Rotational symmetry number  1.
 Warning -- assumption of classical behavior for rotation
           may cause significant error
 Rotational temperatures (Kelvin)      0.13072     0.04780     0.03914
 Rotational constants (GHZ):           2.72371     0.99609     0.81559
 Zero-point vibrational energy     406620.0 (Joules/Mol)
                                   97.18451 (Kcal/Mol)
 Warning -- explicit consideration of  14 degrees of freedom as
           vibrations may cause significant error
 Vibrational temperatures:     91.90   111.07   145.15   250.92   267.69
          (Kelvin)            345.77   406.31   436.58   478.48   512.95
                              606.67   727.55   807.06   852.99   917.82
                              977.27   985.26  1180.23  1218.22  1290.68
                             1314.88  1338.57  1453.01  1477.15  1528.10
                             1576.29  1654.84  1704.29  1709.47  1783.88
                             1841.78  1863.26  1946.32  1996.49  2022.08
                             2058.88  2126.34  2133.46  2157.98  2198.74
                             3216.46  4276.69  4322.04  4382.88  4455.38
                             4490.03  4494.94  4514.85  4660.83  5039.95
                             5459.72

 Zero-point correction=                           0.154873 (Hartree/Particle)
 Thermal correction to Energy=                    0.165099
 Thermal correction to Enthalpy=                  0.166043
 Thermal correction to Gibbs Free Energy=         0.119364
 Sum of electronic and zero-point Energies=           -422.960745
 Sum of electronic and thermal Energies=              -422.950519
 Sum of electronic and thermal Enthalpies=            -422.949575
 Sum of electronic and thermal Free Energies=         -422.996255

                     E (Thermal)             CV                S
                      KCal/Mol        Cal/Mol-Kelvin    Cal/Mol-Kelvin
 Total                  103.601             37.260             98.246
 Electronic               0.000              0.000              0.000
 Translational            0.889              2.981             40.409
 Rotational               0.889              2.981             29.364
 Vibrational            101.824             31.298             28.473
 Vibration     1          0.597              1.972              4.334
 Vibration     2          0.599              1.964              3.961
 Vibration     3          0.604              1.948              3.437
 Vibration     4          0.627              1.874              2.388
 Vibration     5          0.632              1.859              2.267
 Vibration     6          0.657              1.779              1.800
 Vibration     7          0.681              1.706              1.519
 Vibration     8          0.695              1.667              1.398
 Vibration     9          0.715              1.610              1.248
 Vibration    10          0.732              1.562              1.137
 Vibration    11          0.784              1.423              0.886
 Vibration    12          0.861              1.237              0.644
 Vibration    13          0.917              1.116              0.522
 Vibration    14          0.950              1.047              0.462

 Optimization completed.
    -- Stationary point found.
 Normal termination of Gaussian 09 at Tue Jan 28 14:56:39 2020.
