 Gaussian 09, Revision D.01,
 Gaussian 09:  ES64L-G09RevD.01 24-Apr-2013

 -----------------------------
 # b3lyp 6-31G(2df,p) opt Freq
 -----------------------------

 -----
 titel
 -----
 Symbolic Z-matrix:
 Charge =  0 Multiplicity = 1

 SCF Done:  E(RB3LYP) =  -423.212718250     A.U. after   14 cycles
 Optimization completed.
    -- Stationary point found.
 Normal termination of Gaussian 09 at Mon Jan 27 14:14:46 2020.

 ----------------------------------------------------------------------
 #N Geom=AllCheck Guess=TCheck SCRF=Check GenChk RB3LYP/6-31G(2df,p) Fr
 eq
 ----------------------------------------------------------------------

 Structure from the checkpoint file:  "/scratch/puck/g09_538242d8-b739-4d84-97f7-b30fff1eac7c/Gau-5124.chk"
 -----
 titel
 -----
 Charge =  0 Multiplicity = 1

                         Standard orientation:
 ---------------------------------------------------------------------
 Center     Atomic      Atomic             Coordinates (Angstroms)
 Number     Number       Type             X           Y           Z
 ---------------------------------------------------------------------
      1          6           0       -2.487781   -1.219984   -0.615835
      2          6           0       -1.655002   -0.144991    0.054225
      3          8           0       -2.115833    0.942547    0.335031
      4          6           0       -0.236036   -0.516314    0.350600
      5          6           0        0.520375    0.232726    1.406108
      6          6           0        0.914246    0.453485   -0.034805
      7          6           0        0.654067    1.779567   -0.717289
      8          6           0        2.154982   -0.264040   -0.463985
      9          8           0        2.502892   -1.346268   -0.056375
     10          1           0       -2.016525   -1.536435   -1.553393
     11          1           0       -2.541681   -2.107838    0.024879
     12          1           0       -3.492953   -0.845631   -0.811299
     13          1           0        0.028537   -1.559489    0.216111
     14          1           0       -0.015080    1.044406    1.886300
     15          1           0        1.203119   -0.339962    2.022972
     16          1           0        0.605752    1.664286   -1.805918
     17          1           0       -0.286071    2.214737   -0.379240
     18          1           0        1.462045    2.484614   -0.492565
     19          1           0        2.767280    0.288391   -1.211213
 ---------------------------------------------------------------------

 SCF Done:  E(RB3LYP) =  -423.212718250     A.U. after    1 cycles

 The electronic state is 1-A.
 Alpha  occ. eigenvalues --  -19.14389 -19.13285 -10.27739 -10.27587 -10.22369
 Alpha  occ. eigenvalues --  -10.21129 -10.20602 -10.19383 -10.18724  -1.05172
 Alpha  occ. eigenvalues --   -1.04372  -0.88504  -0.76055  -0.73475  -0.65794
 Alpha  occ. eigenvalues --   -0.64059  -0.56478  -0.52476  -0.50962  -0.47153
 Alpha  occ. eigenvalues --   -0.45510  -0.44904  -0.43826  -0.42979  -0.41393
 Alpha  occ. eigenvalues --   -0.40235  -0.39783  -0.38918  -0.37468  -0.36214
 Alpha  occ. eigenvalues --   -0.31718  -0.29516  -0.26049  -0.25262
 Alpha virt. eigenvalues --   -0.04605  -0.00562   0.09306   0.10468   0.11877
 Alpha virt. eigenvalues --    0.12438   0.13598   0.14526   0.15595   0.16092
 Alpha virt. eigenvalues --    0.16742   0.18795   0.19437   0.21753   0.21827

 Mulliken charges:
               1
     1  C   -0.482953
     2  C    0.382397
     3  O   -0.321717
     4  C   -0.142395
     5  C   -0.310462
     6  C    0.220617
     7  C   -0.499715
     8  C    0.103745
     9  O   -0.267460
    10  H    0.143078
    11  H    0.146092
    12  H    0.142886
    13  H    0.111842
    14  H    0.142841
    15  H    0.138444
    16  H    0.120473
    17  H    0.167095
    18  H    0.123781
    19  H    0.081410
 Sum of Mulliken charges =   0.00000

 Dipole moment (field-independent basis, Debye):
    X=             -0.2230    Y=             -0.0194    Z=             -0.8724  Tot=              0.9006
 Quadrupole moment (field-independent basis, Debye-Ang):
   XX=            -59.2479   YY=            -55.6065   ZZ=            -50.8529
   XY=             10.4679   XZ=              0.8109   YZ=             -0.3133

  Exact polarizability:  91.256   1.387  77.297  -1.797  -0.852  66.890
 Approx polarizability: 124.438  -8.217 123.739  -4.669  -0.260 101.322

                      1                      2                      3
                      A                      A                      A
 Frequencies --     66.0854                85.3512               130.3506
 Red. masses --      3.5477                 4.1222                 1.1218
 Frc consts  --      0.0091                 0.0177                 0.0112
 IR Inten    --      5.8110                11.1745                 0.7743

                      4                      5                      6
                      A                      A                      A
 Frequencies --    147.2554               167.6336               205.6049
 Red. masses --      2.2581                 1.9006                 1.5646
 Frc consts  --      0.0288                 0.0315                 0.0390
 IR Inten    --      0.5119                 3.4785                 5.2683

                      7                      8                      9
                      A                      A                      A
 Frequencies --    241.2358               307.9928               340.6576
 Red. masses --      6.2136                 2.7098                 2.4957
 Frc consts  --      0.2130                 0.1515                 0.1706
 IR Inten    --      1.0140                 2.4424                 1.1307

                     10                     11                     12
                      A                      A                      A
 Frequencies --    380.0627               396.0056               573.7019
 Red. masses --      2.7606                 2.9304                 3.2714
 Frc consts  --      0.2349                 0.2708                 0.6344
 IR Inten    --      2.6062                 4.1037                 2.7461

                     13                     14                     15
                      A                      A                      A
 Frequencies --    599.4285               629.4246               715.5101
 Red. masses --      3.4010                 3.4649                 4.0369
 Frc consts  --      0.7200                 0.8088                 1.2177
 IR Inten    --     10.9709                 4.9053                 0.5176

                     16                     17                     18
                      A                      A                      A
 Frequencies --    769.7159               829.7938               925.1028
 Red. masses --      2.4505                 3.3458                 1.7833
 Frc consts  --      0.8554                 1.3574                 0.8992
 IR Inten    --      0.9609                 5.7375                65.1124

                     19                     20                     21
                      A                      A                      A
 Frequencies --    950.5197               959.7984               994.8061
 Red. masses --      1.7014                 1.6125                 1.6383
 Frc consts  --      0.9057                 0.8752                 0.9553
 IR Inten    --      6.6071                74.6203                 6.0209

                     22                     23                     24
                      A                      A                      A
 Frequencies --   1046.7436              1050.6806              1072.1196
 Red. masses --      1.7817                 1.7852                 1.8433
 Frc consts  --      1.1502                 1.1611                 1.2483
 IR Inten    --      2.0161                 2.2277                17.2497

                     25                     26                     27
                      A                      A                      A
 Frequencies --   1092.4610              1119.3843              1142.4511
 Red. masses --      1.4638                 1.5741                 1.3043
 Frc consts  --      1.0293                 1.1621                 1.0030
 IR Inten    --      0.6806                10.5047                 9.7685

                     28                     29                     30
                      A                      A                      A
 Frequencies --   1190.8947              1268.6972              1306.5277
 Red. masses --      2.0549                 2.4219                 2.4046
 Frc consts  --      1.7170                 2.2968                 2.4185
 IR Inten    --    103.9614                40.3730                22.9085

                     31                     32                     33
                      A                      A                      A
 Frequencies --   1377.7065              1407.0072              1420.9922
 Red. masses --      1.2802                 1.7428                 1.3471
 Frc consts  --      1.4316                 2.0328                 1.6027
 IR Inten    --     11.3655                69.9345                15.9747

                     34                     35                     36
                      A                      A                      A
 Frequencies --   1429.6905              1455.5154              1462.7837
 Red. masses --      1.2627                 1.3400                 1.0797
 Frc consts  --      1.5206                 1.6726                 1.3612
 IR Inten    --      2.2851                 8.3152                 9.4058

                     37                     38                     39
                      A                      A                      A
 Frequencies --   1473.7598              1497.2473              1506.6729
 Red. masses --      1.0490                 1.0726                 1.0443
 Frc consts  --      1.3424                 1.4167                 1.3968
 IR Inten    --      7.8160                15.0227                 5.4256

                     40                     41                     42
                      A                      A                      A
 Frequencies --   1785.0206              1810.3310              2884.8967
 Red. masses --     10.3308                10.1121                 1.0834
 Frc consts  --     19.3941                19.5257                 5.3125
 IR Inten    --    204.2506                76.0462               120.6263

                     43                     44                     45
                      A                      A                      A
 Frequencies --   3034.2923              3034.6128              3089.5801
 Red. masses --      1.0402                 1.0371                 1.1011
 Frc consts  --      5.6425                 5.6272                 6.1924
 IR Inten    --     28.8241                 1.7005                18.9858

                     46                     47                     48
                      A                      A                      A
 Frequencies --   3094.2837              3137.9781              3155.2162
 Red. masses --      1.0981                 1.0523                 1.1017
 Frc consts  --      6.1945                 6.1048                 6.4621
 IR Inten    --      6.5316                 5.3813                10.5778

                     49                     50                     51
                      A                      A                      A
 Frequencies --   3155.9800              3176.4528              3239.6117
 Red. masses --      1.0963                 1.0883                 1.1188
 Frc consts  --      6.4334                 6.4695                 6.9179
 IR Inten    --      0.7531                 3.0732                 0.6131

 - Thermochemistry -
 -------------------
 Temperature   298.150 Kelvin.  Pressure   1.00000 Atm.
 Atom     1 has atomic number  6 and mass  12.00000

 Molecular mass:   126.06808 amu.
 Principal axes and moments of inertia in atomic units:
                           1         2         3
     Eigenvalues --   668.300551591.618131857.64606
           X            0.99812   0.06055   0.00901
           Y           -0.06038   0.99802  -0.01751
           Z           -0.01005   0.01693   0.99981
 This molecule is an asymmetric top.
 Rotational symmetry number  1.
 Warning -- assumption of classical behavior for rotation
           may cause significant error
 Rotational temperatures (Kelvin)      0.12960     0.05442     0.04663
 Rotational constants (GHZ):           2.70049     1.13390     0.97152
 Zero-point vibrational energy     408737.8 (Joules/Mol)
                                   97.69068 (Kcal/Mol)
 Warning -- explicit consideration of  13 degrees of freedom as
           vibrations may cause significant error
 Vibrational temperatures:     95.08   122.80   187.55   211.87   241.19
          (Kelvin)            295.82   347.08   443.13   490.13   546.82
                              569.76   825.43   862.44   905.60  1029.46
                             1107.45  1193.89  1331.01  1367.58  1380.93
                             1431.30  1506.03  1511.69  1542.54  1571.81
                             1610.54  1643.73  1713.43  1825.37  1879.80
                             1982.21  2024.37  2044.49  2057.00  2094.16
                             2104.62  2120.41  2154.20  2167.76  2568.24
                             2604.66  4150.72  4365.66  4366.13  4445.21
                             4451.98  4514.84  4539.65  4540.75  4570.20
                             4661.07

 Zero-point correction=                           0.155680 (Hartree/Particle)
 Thermal correction to Energy=                    0.165669
 Thermal correction to Enthalpy=                  0.166613
 Thermal correction to Gibbs Free Energy=         0.120414
 Sum of electronic and zero-point Energies=           -423.057038
 Sum of electronic and thermal Energies=              -423.047049
 Sum of electronic and thermal Enthalpies=            -423.046105
 Sum of electronic and thermal Free Energies=         -423.092305

                     E (Thermal)             CV                S
                      KCal/Mol        Cal/Mol-Kelvin    Cal/Mol-Kelvin
 Total                  103.959             35.501             97.235
 Electronic               0.000              0.000              0.000
 Translational            0.889              2.981             40.409
 Rotational               0.889              2.981             29.070
 Vibrational            102.181             29.539             27.756
 Vibration     1          0.597              1.970              4.267
 Vibration     2          0.601              1.959              3.764
 Vibration     3          0.612              1.923              2.941
 Vibration     4          0.617              1.906              2.707
 Vibration     5          0.624              1.882              2.462
 Vibration     6          0.640              1.832              2.082
 Vibration     7          0.658              1.777              1.794
 Vibration     8          0.698              1.659              1.373
 Vibration     9          0.720              1.594              1.209
 Vibration    10          0.750              1.513              1.039
 Vibration    11          0.763              1.479              0.977
 Vibration    12          0.930              1.088              0.497
 Vibration    13          0.957              1.033              0.451

 Normal termination of Gaussian 09 at Mon Jan 27 16:04:39 2020.
