 Gaussian 09, Revision D.01,
 Gaussian 09:  ES64L-G09RevD.01 24-Apr-2013

 -----------------------------
 # b3lyp 6-31G(2df,p) opt Freq
 -----------------------------

 -----
 titel
 -----
 Symbolic Z-matrix:
 Charge =  0 Multiplicity = 1

 SCF Done:  E(RB3LYP) =  -423.156957658     A.U. after   14 cycles
 Optimization completed.
    -- Stationary point found.
 Normal termination of Gaussian 09 at Tue Jan 28 14:12:24 2020.

 ----------------------------------------------------------------------
 #N Geom=AllCheck Guess=TCheck SCRF=Check GenChk RB3LYP/6-31G(2df,p) Fr
 eq
 ----------------------------------------------------------------------

 Structure from the checkpoint file:  "/scratch/puck/g09_4955df9d-ef04-4ba9-87a8-a7253f2658d7/Gau-61182.chk"
 -----
 titel
 -----
 Charge =  0 Multiplicity = 1

                         Standard orientation:
 ---------------------------------------------------------------------
 Center     Atomic      Atomic             Coordinates (Angstroms)
 Number     Number       Type             X           Y           Z
 ---------------------------------------------------------------------
      1          6           0       -2.587742   -0.283723   -0.181768
      2          8           0       -1.362252   -0.963733   -0.384089
      3          6           0       -0.329817   -0.588176    0.514392
      4          6           0        0.724776   -1.665244    0.502758
      5          6           0        1.839759   -1.275347   -0.114064
      6          6           0        1.766878    0.148071   -0.605467
      7          6           0        0.476547    0.645639    0.047956
      8          6           0        0.390204    1.940802    0.735024
      9          8           0       -0.223110    1.735768   -0.543153
     10          1           0       -2.494925    0.791145   -0.369625
     11          1           0       -3.305699   -0.712492   -0.885650
     12          1           0       -2.965735   -0.437288    0.841945
     13          1           0       -0.764536   -0.424886    1.513730
     14          1           0        0.533093   -2.651234    0.908176
     15          1           0        2.714252   -1.897362   -0.270373
     16          1           0        2.637621    0.748058   -0.318411
     17          1           0        1.695383    0.195680   -1.699846
     18          1           0       -0.299807    2.069655    1.568671
     19          1           0        1.249614    2.610309    0.736329
 ---------------------------------------------------------------------

 SCF Done:  E(RB3LYP) =  -423.156957658     A.U. after    1 cycles

 The electronic state is 1-A.
 Alpha  occ. eigenvalues --  -19.15325 -19.13322 -10.24031 -10.23426 -10.23373
 Alpha  occ. eigenvalues --  -10.21305 -10.19161 -10.19027 -10.18219  -1.07433
 Alpha  occ. eigenvalues --   -1.02265  -0.83857  -0.72230  -0.69581  -0.66539
 Alpha  occ. eigenvalues --   -0.64430  -0.55997  -0.55226  -0.51460  -0.48144
 Alpha  occ. eigenvalues --   -0.47356  -0.45401  -0.43413  -0.43062  -0.41422
 Alpha  occ. eigenvalues --   -0.38240  -0.37167  -0.36243  -0.34983  -0.32044
 Alpha  occ. eigenvalues --   -0.29563  -0.27927  -0.25732  -0.23811
 Alpha virt. eigenvalues --    0.00993   0.07931   0.10234   0.10587   0.12367
 Alpha virt. eigenvalues --    0.13111   0.14673   0.15532   0.16082   0.16726
 Alpha virt. eigenvalues --    0.16918   0.18659   0.19302   0.20655   0.22190

 Mulliken charges:
               1
     1  C   -0.239858
     2  O   -0.246684
     3  C   -0.024239
     4  C   -0.085390
     5  C   -0.063674
     6  C   -0.352458
     7  C    0.451805
     8  C   -0.250825
     9  O   -0.272000
    10  H    0.131552
    11  H    0.122904
    12  H    0.094998
    13  H    0.063581
    14  H    0.102061
    15  H    0.101284
    16  H    0.109916
    17  H    0.131734
    18  H    0.111797
    19  H    0.113495
 Sum of Mulliken charges =   0.00000

 Dipole moment (field-independent basis, Debye):
    X=              1.0552    Y=              0.0981    Z=              1.7160  Tot=              2.0169
 Quadrupole moment (field-independent basis, Debye-Ang):
   XX=            -48.2301   YY=            -53.9231   ZZ=            -53.3295
   XY=             -0.0157   XZ=             -1.9448   YZ=              1.5582

  Exact polarizability:  89.310   0.729  79.079  -6.514   0.285  62.687
 Approx polarizability: 123.462   3.349 110.420 -10.662  -1.816 101.752

                      1                      2                      3
                      A                      A                      A
 Frequencies --     49.8002               123.7736               181.7099
 Red. masses --      3.1315                 1.8253                 1.6180
 Frc consts  --      0.0046                 0.0165                 0.0315
 IR Inten    --      0.9866                 3.5160                 2.8653

                      4                      5                      6
                      A                      A                      A
 Frequencies --    207.9294               243.9340               317.4033
 Red. masses --      2.9806                 3.5734                 2.7490
 Frc consts  --      0.0759                 0.1253                 0.1632
 IR Inten    --      1.0241                 1.1391                 1.7801

                      7                      8                      9
                      A                      A                      A
 Frequencies --    360.6927               387.0294               453.4118
 Red. masses --      3.1095                 2.6302                 2.9646
 Frc consts  --      0.2383                 0.2321                 0.3591
 IR Inten    --      2.5850                 4.0715                 2.2246

                     10                     11                     12
                      A                      A                      A
 Frequencies --    545.1302               564.6219               723.7277
 Red. masses --      3.8042                 5.1483                 1.4985
 Frc consts  --      0.6661                 0.9670                 0.4624
 IR Inten    --      3.6666                15.1879                12.3532

                     13                     14                     15
                      A                      A                      A
 Frequencies --    769.8673               824.3856               869.4489
 Red. masses --      3.3518                 4.0689                 2.7673
 Frc consts  --      1.1705                 1.6293                 1.2325
 IR Inten    --      4.8473                 5.5390                23.8918

                     16                     17                     18
                      A                      A                      A
 Frequencies --    911.0109               930.9253               970.0225
 Red. masses --      1.8416                 3.5268                 1.9468
 Frc consts  --      0.9005                 1.8008                 1.0793
 IR Inten    --     15.4502                16.1933                 8.0768

                     19                     20                     21
                      A                      A                      A
 Frequencies --    981.7787               996.4754              1014.7549
 Red. masses --      1.3153                 3.0541                 2.0895
 Frc consts  --      0.7470                 1.7867                 1.2677
 IR Inten    --      1.2320                23.0335                 4.8683

                     22                     23                     24
                      A                      A                      A
 Frequencies --   1040.3485              1122.2750              1130.9207
 Red. masses --      2.5476                 2.0422                 1.2813
 Frc consts  --      1.6246                 1.5155                 0.9655
 IR Inten    --      2.9937                97.6763                 2.1674

                     25                     26                     27
                      A                      A                      A
 Frequencies --   1141.7335              1162.3190              1176.6216
 Red. masses --      1.7626                 1.3373                 1.2959
 Frc consts  --      1.3538                 1.0645                 1.0570
 IR Inten    --     72.6018                 2.1598                10.8768

                     28                     29                     30
                      A                      A                      A
 Frequencies --   1182.2688              1214.2974              1226.3854
 Red. masses --      1.3195                 1.4542                 3.2956
 Frc consts  --      1.0867                 1.2633                 2.9204
 IR Inten    --      2.5442                23.6226                 2.1589

                     31                     32                     33
                      A                      A                      A
 Frequencies --   1288.2571              1293.4160              1357.9450
 Red. masses --      1.5799                 1.6602                 1.2941
 Frc consts  --      1.5448                 1.6364                 1.4060
 IR Inten    --      8.9245                 2.5372                 6.8494

                     34                     35                     36
                      A                      A                      A
 Frequencies --   1387.2195              1423.9916              1473.5841
 Red. masses --      1.6614                 2.4668                 1.1499
 Frc consts  --      1.8837                 2.9471                 1.4712
 IR Inten    --     20.4358                15.5111                 0.7916

                     37                     38                     39
                      A                      A                      A
 Frequencies --   1479.2143              1483.3140              1518.6454
 Red. masses --      1.1115                 1.0548                 1.0541
 Frc consts  --      1.4329                 1.3674                 1.4323
 IR Inten    --      3.3350                 2.7364                 3.9955

                     40                     41                     42
                      A                      A                      A
 Frequencies --   1529.4511              1686.2737              2966.6042
 Red. masses --      1.3713                 6.2822                 1.0790
 Frc consts  --      1.8899                10.5250                 5.5949
 IR Inten    --      4.3051                 2.9863                19.8395

                     43                     44                     45
                      A                      A                      A
 Frequencies --   2977.7502              3027.4365              3063.0578
 Red. masses --      1.0522                 1.0617                 1.1001
 Frc consts  --      5.4969                 5.7332                 6.0810
 IR Inten    --     93.7628                19.7235                16.1886

                     46                     47                     48
                      A                      A                      A
 Frequencies --   3069.6537              3075.6350              3117.2774
 Red. masses --      1.0834                 1.0503                 1.1032
 Frc consts  --      6.0150                 5.8535                 6.3162
 IR Inten    --     33.2185                29.4285                24.9888

                     49                     50                     51
                      A                      A                      A
 Frequencies --   3162.8313              3188.6507              3216.4222
 Red. masses --      1.1195                 1.0862                 1.1029
 Frc consts  --      6.5980                 6.5068                 6.7227
 IR Inten    --     21.9161                 7.4059                16.9057

 - Thermochemistry -
 -------------------
 Temperature   298.150 Kelvin.  Pressure   1.00000 Atm.
 Atom     1 has atomic number  6 and mass  12.00000

 Molecular mass:   126.06808 amu.
 Principal axes and moments of inertia in atomic units:
                           1         2         3
     Eigenvalues --   824.913401009.484021580.58277
           X            0.99984   0.00826  -0.01563
           Y           -0.00807   0.99989   0.01257
           Z            0.01573  -0.01244   0.99980
 This molecule is an asymmetric top.
 Rotational symmetry number  1.
 Warning -- assumption of classical behavior for rotation
           may cause significant error
 Rotational temperatures (Kelvin)      0.10500     0.08580     0.05480
 Rotational constants (GHZ):           2.18779     1.78779     1.14182
 Zero-point vibrational energy     416370.0 (Joules/Mol)
                                   99.51483 (Kcal/Mol)
 Warning -- explicit consideration of  11 degrees of freedom as
           vibrations may cause significant error
 Vibrational temperatures:     71.65   178.08   261.44   299.16   350.97
          (Kelvin)            456.67   518.96   556.85   652.36   784.32
                              812.36  1041.28  1107.67  1186.11  1250.94
                             1310.74  1339.39  1395.64  1412.56  1433.70
                             1460.00  1496.83  1614.70  1627.14  1642.70
                             1672.32  1692.89  1701.02  1747.10  1764.49
                             1853.51  1860.93  1953.78  1995.90  2048.80
                             2120.16  2128.26  2134.16  2184.99  2200.54
                             2426.17  4268.28  4284.31  4355.80  4407.05
                             4416.54  4425.15  4485.06  4550.60  4587.75
                             4627.71

 Zero-point correction=                           0.158587 (Hartree/Particle)
 Thermal correction to Energy=                    0.167118
 Thermal correction to Enthalpy=                  0.168062
 Thermal correction to Gibbs Free Energy=         0.125044
 Sum of electronic and zero-point Energies=           -422.998371
 Sum of electronic and thermal Energies=              -422.989840
 Sum of electronic and thermal Enthalpies=            -422.988896
 Sum of electronic and thermal Free Energies=         -423.031913

                     E (Thermal)             CV                S
                      KCal/Mol        Cal/Mol-Kelvin    Cal/Mol-Kelvin
 Total                  104.868             31.978             90.538
 Electronic               0.000              0.000              0.000
 Translational            0.889              2.981             40.409
 Rotational               0.889              2.981             28.667
 Vibrational            103.090             26.017             21.463
 Vibration     1          0.595              1.978              4.825
 Vibration     2          0.610              1.929              3.041
 Vibration     3          0.630              1.865              2.311
 Vibration     4          0.641              1.829              2.062
 Vibration     5          0.659              1.773              1.774
 Vibration     6          0.704              1.640              1.323
 Vibration     7          0.735              1.553              1.119
 Vibration     8          0.755              1.498              1.012
 Vibration     9          0.812              1.353              0.786
 Vibration    10          0.900              1.150              0.554
 Vibration    11          0.920              1.108              0.515

 Optimization completed.
    -- Stationary point found.
 Normal termination of Gaussian 09 at Tue Jan 28 14:57:16 2020.
