 Gaussian 09, Revision D.01,
 Gaussian 09:  ES64L-G09RevD.01 24-Apr-2013

 -----------------------------
 # b3lyp 6-31G(2df,p) opt Freq
 -----------------------------

 -----
 titel
 -----
 Symbolic Z-matrix:
 Charge =  0 Multiplicity = 1

 SCF Done:  E(RB3LYP) =  -423.163682428     A.U. after   14 cycles
 Optimization completed.
    -- Stationary point found.
 Normal termination of Gaussian 09 at Tue Jan 28 08:49:17 2020.

 ----------------------------------------------------------------------
 #N Geom=AllCheck Guess=TCheck SCRF=Check GenChk RB3LYP/6-31G(2df,p) Fr
 eq
 ----------------------------------------------------------------------

 Structure from the checkpoint file:  "/scratch/puck/g09_ad507ced-7cfa-4955-882b-fe4324731e84/Gau-103471.chk"
 -----
 titel
 -----
 Charge =  0 Multiplicity = 1

                         Standard orientation:
 ---------------------------------------------------------------------
 Center     Atomic      Atomic             Coordinates (Angstroms)
 Number     Number       Type             X           Y           Z
 ---------------------------------------------------------------------
      1          6           0       -2.462977    0.469870   -0.420861
      2          8           0       -1.229147   -0.083245   -0.836892
      3          6           0       -0.292627   -0.316640    0.191204
      4          6           0       -0.710563   -1.429809    1.149145
      5          6           0        0.303232    0.936661    0.879220
      6          6           0        0.849337    1.856536   -0.150426
      7          6           0        1.699455    0.656327    0.248710
      8          6           0        1.145089   -0.581909   -0.374317
      9          8           0        1.628675   -1.539500   -0.907778
     10          1           0       -2.319804    1.391261    0.162146
     11          1           0       -3.020331    0.711531   -1.328788
     12          1           0       -3.058078   -0.233971    0.176221
     13          1           0        0.084726   -1.635792    1.871513
     14          1           0       -1.609308   -1.159967    1.711801
     15          1           0       -0.906648   -2.343700    0.582920
     16          1           0        0.124152    1.228314    1.906134
     17          1           0        0.393529    1.891140   -1.133820
     18          1           0        1.240650    2.804263    0.204045
     19          1           0        2.689223    0.782672    0.669147
 ---------------------------------------------------------------------

 SCF Done:  E(RB3LYP) =  -423.163682428     A.U. after    1 cycles

 The electronic state is 1-A.
 Alpha  occ. eigenvalues --  -19.14727 -19.12905 -10.26354 -10.24721 -10.22883
 Alpha  occ. eigenvalues --  -10.21175 -10.20909 -10.20870 -10.18383  -1.04731
 Alpha  occ. eigenvalues --   -1.03229  -0.90520  -0.76628  -0.69670  -0.67193
 Alpha  occ. eigenvalues --   -0.62844  -0.58584  -0.52808  -0.49938  -0.49190
 Alpha  occ. eigenvalues --   -0.46724  -0.45738  -0.43635  -0.41331  -0.40828
 Alpha  occ. eigenvalues --   -0.40045  -0.38817  -0.38100  -0.36611  -0.32092
 Alpha  occ. eigenvalues --   -0.31705  -0.29036  -0.26429  -0.23411
 Alpha virt. eigenvalues --   -0.01145   0.07692   0.09928   0.10085   0.12233
 Alpha virt. eigenvalues --    0.13402   0.13596   0.14380   0.15917   0.16174
 Alpha virt. eigenvalues --    0.17440   0.18197   0.19710   0.20075   0.21382

 Mulliken charges:
               1
     1  C   -0.251774
     2  O   -0.282168
     3  C    0.273162
     4  C   -0.459303
     5  C   -0.095694
     6  C   -0.293780
     7  C   -0.180176
     8  C    0.389224
     9  O   -0.326915
    10  H    0.110614
    11  H    0.132391
    12  H    0.113263
    13  H    0.126963
    14  H    0.118386
    15  H    0.144754
    16  H    0.102013
    17  H    0.140994
    18  H    0.125234
    19  H    0.112813
 Sum of Mulliken charges =   0.00000

 Dipole moment (field-independent basis, Debye):
    X=             -1.4944    Y=              2.7050    Z=              2.5945  Tot=              4.0351
 Quadrupole moment (field-independent basis, Debye-Ang):
   XX=            -51.6186   YY=            -54.2761   ZZ=            -53.9445
   XY=              4.0931   XZ=              2.4871   YZ=             -2.6769

  Exact polarizability:  83.100   0.433  80.138  -0.549   1.237  65.037
 Approx polarizability: 115.026  -6.036 119.723  -4.757   9.217 103.123

                      1                      2                      3
                      A                      A                      A
 Frequencies --     82.9087               118.2960               172.4216
 Red. masses --      2.3638                 3.3089                 3.0062
 Frc consts  --      0.0096                 0.0273                 0.0527
 IR Inten    --      1.8043                 1.4985                 0.2863

                      4                      5                      6
                      A                      A                      A
 Frequencies --    184.3494               204.3805               261.8929
 Red. masses --      1.3394                 1.2994                 2.4755
 Frc consts  --      0.0268                 0.0320                 0.1000
 IR Inten    --      0.2525                 1.0663                 3.6328

                      7                      8                      9
                      A                      A                      A
 Frequencies --    274.1063               331.8284               356.4163
 Red. masses --      2.3043                 3.6341                 3.3034
 Frc consts  --      0.1020                 0.2358                 0.2472
 IR Inten    --      1.3051                 1.7806                 4.4575

                     10                     11                     12
                      A                      A                      A
 Frequencies --    494.4481               568.8482               618.7954
 Red. masses --      3.5585                 3.6526                 3.8650
 Frc consts  --      0.5126                 0.6964                 0.8720
 IR Inten    --      9.7645                 0.5034                 3.1177

                     13                     14                     15
                      A                      A                      A
 Frequencies --    677.5959               739.3587               815.1841
 Red. masses --      4.1859                 2.9735                 3.7111
 Frc consts  --      1.1323                 0.9577                 1.4530
 IR Inten    --      4.3527                13.9230                14.4779

                     16                     17                     18
                      A                      A                      A
 Frequencies --    834.7220               894.9556               917.1947
 Red. masses --      1.9360                 1.8630                 1.8450
 Frc consts  --      0.7948                 0.8792                 0.9145
 IR Inten    --      0.5688                15.6272                19.6802

                     19                     20                     21
                      A                      A                      A
 Frequencies --    945.1799               946.9914               995.0404
 Red. masses --      2.5664                 1.7951                 1.2561
 Frc consts  --      1.3508                 0.9485                 0.7328
 IR Inten    --      7.0350                27.4235                 8.5758

                     22                     23                     24
                      A                      A                      A
 Frequencies --   1049.6245              1074.5598              1098.5723
 Red. masses --      1.3867                 2.0488                 1.6261
 Frc consts  --      0.9001                 1.3938                 1.1562
 IR Inten    --      3.4471                 8.0878                42.3505

                     25                     26                     27
                      A                      A                      A
 Frequencies --   1113.8469              1148.6530              1160.6493
 Red. masses --      1.9895                 1.9105                 2.8899
 Frc consts  --      1.4542                 1.4852                 2.2937
 IR Inten    --     33.2092                25.0653                36.7901

                     28                     29                     30
                      A                      A                      A
 Frequencies --   1179.6589              1193.0680              1224.4344
 Red. masses --      1.3008                 2.4997                 2.8429
 Frc consts  --      1.0666                 2.0964                 2.5112
 IR Inten    --      3.3949                28.8697                65.9345

                     31                     32                     33
                      A                      A                      A
 Frequencies --   1234.4918              1299.6961              1326.4767
 Red. masses --      1.8030                 2.2102                 2.6167
 Frc consts  --      1.6190                 2.1997                 2.7127
 IR Inten    --     25.4949                 2.7693                 5.0863

                     34                     35                     36
                      A                      A                      A
 Frequencies --   1399.9289              1472.2571              1481.7374
 Red. masses --      1.2431                 1.1199                 1.0632
 Frc consts  --      1.4354                 1.4302                 1.3754
 IR Inten    --     10.3287                 0.7182                 2.7771

                     37                     38                     39
                      A                      A                      A
 Frequencies --   1485.6176              1488.9296              1502.7616
 Red. masses --      1.0815                 1.1235                 1.0806
 Frc consts  --      1.4064                 1.4675                 1.4378
 IR Inten    --      0.4301                 3.2159                 4.4990

                     40                     41                     42
                      A                      A                      A
 Frequencies --   1508.3358              1883.2775              2992.5146
 Red. masses --      1.0475                12.3651                 1.0362
 Frc consts  --      1.4041                25.8391                 5.4673
 IR Inten    --      6.4529               302.5066                43.1749

                     43                     44                     45
                      A                      A                      A
 Frequencies --   3041.6101              3049.4394              3111.4911
 Red. masses --      1.0546                 1.0806                 1.1005
 Frc consts  --      5.7485                 5.9207                 6.2774
 IR Inten    --      6.9757                53.9126                25.1037

                     46                     47                     48
                      A                      A                      A
 Frequencies --   3117.9900              3129.9271              3134.8490
 Red. masses --      1.0981                 1.1022                 1.0535
 Frc consts  --      6.2896                 6.3617                 6.0997
 IR Inten    --     19.3239                 9.7223                12.7561

                     49                     50                     51
                      A                      A                      A
 Frequencies --   3194.1398              3201.4061              3222.6492
 Red. masses --      1.0903                 1.0993                 1.1152
 Frc consts  --      6.5540                 6.6382                 6.8241
 IR Inten    --      8.3284                 3.7992                 3.5627

 - Thermochemistry -
 -------------------
 Temperature   298.150 Kelvin.  Pressure   1.00000 Atm.
 Atom     1 has atomic number  6 and mass  12.00000

 Molecular mass:   126.06808 amu.
 Principal axes and moments of inertia in atomic units:
                           1         2         3
     Eigenvalues --   791.185231112.266891415.59137
           X            0.99807   0.06170   0.00685
           Y           -0.06111   0.99591  -0.06654
           Z           -0.01092   0.06599   0.99776
 This molecule is an asymmetric top.
 Rotational symmetry number  1.
 Warning -- assumption of classical behavior for rotation
           may cause significant error
 Rotational temperatures (Kelvin)      0.10947     0.07787     0.06119
 Rotational constants (GHZ):           2.28106     1.62258     1.27490
 Zero-point vibrational energy     412457.5 (Joules/Mol)
                                   98.57971 (Kcal/Mol)
 Warning -- explicit consideration of  12 degrees of freedom as
           vibrations may cause significant error
 Vibrational temperatures:    119.29   170.20   248.08   265.24   294.06
          (Kelvin)            376.80   394.38   477.43   512.80   711.40
                              818.44   890.31   974.91  1063.77  1172.87
                             1200.98  1287.64  1319.64  1359.90  1362.51
                             1431.64  1510.17  1546.05  1580.60  1602.58
                             1652.65  1669.91  1697.26  1716.56  1761.69
                             1776.16  1869.97  1908.50  2014.18  2118.25
                             2131.89  2137.47  2142.23  2162.14  2170.16
                             2709.61  4305.56  4376.19  4387.46  4476.74
                             4486.09  4503.26  4510.34  4595.65  4606.10
                             4636.67

 Zero-point correction=                           0.157097 (Hartree/Particle)
 Thermal correction to Energy=                    0.166227
 Thermal correction to Enthalpy=                  0.167171
 Thermal correction to Gibbs Free Energy=         0.123360
 Sum of electronic and zero-point Energies=           -423.006586
 Sum of electronic and thermal Energies=              -422.997455
 Sum of electronic and thermal Enthalpies=            -422.996511
 Sum of electronic and thermal Free Energies=         -423.040322

                     E (Thermal)             CV                S
                      KCal/Mol        Cal/Mol-Kelvin    Cal/Mol-Kelvin
 Total                  104.309             33.843             92.208
 Electronic               0.000              0.000              0.000
 Translational            0.889              2.981             40.409
 Rotational               0.889              2.981             28.612
 Vibrational            102.532             27.881             23.187
 Vibration     1          0.600              1.961              3.821
 Vibration     2          0.608              1.934              3.128
 Vibration     3          0.626              1.876              2.409
 Vibration     4          0.631              1.861              2.284
 Vibration     5          0.640              1.834              2.093
 Vibration     6          0.669              1.743              1.649
 Vibration     7          0.676              1.721              1.570
 Vibration     8          0.714              1.612              1.251
 Vibration     9          0.732              1.562              1.138
 Vibration    10          0.850              1.262              0.672
 Vibration    11          0.925              1.099              0.506
 Vibration    12          0.979              0.992              0.418

 Normal termination of Gaussian 09 at Tue Jan 28 09:32:34 2020.
