 Gaussian 09, Revision D.01,
 Gaussian 09:  ES64L-G09RevD.01 24-Apr-2013

 -----------------------------
 # b3lyp 6-31G(2df,p) opt Freq
 -----------------------------

 -----
 titel
 -----
 Symbolic Z-matrix:
 Charge =  0 Multiplicity = 1

 SCF Done:  E(RB3LYP) =  -423.173215795     A.U. after   14 cycles
 Optimization completed.
    -- Stationary point found.
 Normal termination of Gaussian 09 at Mon Jan 27 22:55:44 2020.

 ----------------------------------------------------------------------
 #N Geom=AllCheck Guess=TCheck SCRF=Check GenChk RB3LYP/6-31G(2df,p) Fr
 eq
 ----------------------------------------------------------------------

 Structure from the checkpoint file:  "/scratch/puck/g09_2b892526-fdf6-4aa2-a5d4-eae93366b4ca/Gau-75295.chk"
 -----
 titel
 -----
 Charge =  0 Multiplicity = 1

                         Standard orientation:
 ---------------------------------------------------------------------
 Center     Atomic      Atomic             Coordinates (Angstroms)
 Number     Number       Type             X           Y           Z
 ---------------------------------------------------------------------
      1          8           0        3.056989   -0.340086    0.103184
      2          6           0        1.775965   -0.041609   -0.359780
      3          6           0        0.647181   -0.789742    0.279453
      4          6           0       -0.551692   -1.225899   -0.561621
      5          6           0       -1.770549   -0.296852   -0.413990
      6          8           0       -2.506405   -0.563164    0.786828
      7          6           0       -1.384026    1.165771   -0.474877
      8          6           0       -0.217788    1.610661    0.001063
      9          6           0        0.812372    0.699624    0.552500
     10          1           0        3.591944    0.458565    0.041670
     11          1           0        1.694069    0.156277   -1.430124
     12          1           0        0.951750   -1.450337    1.083905
     13          1           0       -0.272904   -1.258131   -1.621766
     14          1           0       -0.864256   -2.236619   -0.284277
     15          1           0       -2.477872   -0.527067   -1.217635
     16          1           0       -2.013632   -0.162655    1.511129
     17          1           0       -2.127381    1.862471   -0.851186
     18          1           0        0.003127    2.676315   -0.000776
     19          1           0        1.241704    0.975460    1.512478
 ---------------------------------------------------------------------

 SCF Done:  E(RB3LYP) =  -423.173215795     A.U. after    1 cycles

 The electronic state is 1-A.
 Alpha  occ. eigenvalues --  -19.14668 -19.12773 -10.23751 -10.22957 -10.19306
 Alpha  occ. eigenvalues --  -10.19043 -10.19033 -10.18127 -10.17988  -1.03207
 Alpha  occ. eigenvalues --   -1.00866  -0.86714  -0.77501  -0.74109  -0.64098
 Alpha  occ. eigenvalues --   -0.61365  -0.58375  -0.53822  -0.51419  -0.49784
 Alpha  occ. eigenvalues --   -0.46617  -0.45152  -0.43233  -0.41295  -0.39498
 Alpha  occ. eigenvalues --   -0.38851  -0.38197  -0.33915  -0.33478  -0.31392
 Alpha  occ. eigenvalues --   -0.29065  -0.28269  -0.25355  -0.23178
 Alpha virt. eigenvalues --    0.00572   0.07860   0.09127   0.10226   0.11229
 Alpha virt. eigenvalues --    0.11772   0.14178   0.15732   0.16326   0.17672
 Alpha virt. eigenvalues --    0.18117   0.19665   0.22721   0.23170   0.23886

 Mulliken charges:
               1
     1  O   -0.426709
     2  C    0.089309
     3  C   -0.073938
     4  C   -0.256553
     5  C    0.094566
     6  O   -0.436517
     7  C   -0.105753
     8  C   -0.076608
     9  C   -0.130351
    10  H    0.286613
    11  H    0.086258
    12  H    0.099778
    13  H    0.099181
    14  H    0.109765
    15  H    0.084069
    16  H    0.279854
    17  H    0.093717
    18  H    0.090462
    19  H    0.092859
 Sum of Mulliken charges =   0.00000

 Dipole moment (field-independent basis, Debye):
    X=              1.3549    Y=              1.9013    Z=             -0.3144  Tot=              2.3558
 Quadrupole moment (field-independent basis, Debye-Ang):
   XX=            -57.4972   YY=            -52.2886   ZZ=            -50.7059
   XY=              3.1863   XZ=              1.5430   YZ=              0.8692

  Exact polarizability:  93.680   3.087  74.403   5.878   0.657  62.853
 Approx polarizability: 135.364   8.382 109.356   9.637   1.565  99.576

                      1                      2                      3
                      A                      A                      A
 Frequencies --     74.9533               156.0788               237.1702
 Red. masses --      4.1675                 3.9344                 3.0233
 Frc consts  --      0.0138                 0.0565                 0.1002
 IR Inten    --      1.0718                 0.1942                14.5199

                      4                      5                      6
                      A                      A                      A
 Frequencies --    284.4070               292.1277               323.3079
 Red. masses --      1.1698                 2.6558                 1.9636
 Frc consts  --      0.0557                 0.1335                 0.1209
 IR Inten    --     46.0280                 6.0093                58.9157

                      7                      8                      9
                      A                      A                      A
 Frequencies --    330.5948               372.4592               451.9626
 Red. masses --      1.4984                 2.7341                 3.1524
 Frc consts  --      0.0965                 0.2235                 0.3794
 IR Inten    --     64.2857                13.3265                10.9045

                     10                     11                     12
                      A                      A                      A
 Frequencies --    526.5213               546.6190               600.3635
 Red. masses --      3.8395                 4.3822                 4.0358
 Frc consts  --      0.6271                 0.7715                 0.8571
 IR Inten    --      0.9867                 4.2211                 1.4087

                     13                     14                     15
                      A                      A                      A
 Frequencies --    765.2073               788.1346               830.3787
 Red. masses --      1.5241                 3.5942                 2.9534
 Frc consts  --      0.5258                 1.3154                 1.1998
 IR Inten    --     29.8864                 7.3590                13.3451

                     16                     17                     18
                      A                      A                      A
 Frequencies --    846.5901               901.7932               929.6946
 Red. masses --      2.3868                 2.9817                 2.2142
 Frc consts  --      1.0079                 1.4286                 1.1276
 IR Inten    --      3.5681                10.0900                 1.6178

                     19                     20                     21
                      A                      A                      A
 Frequencies --    952.8251               989.8744              1007.6614
 Red. masses --      3.2456                 1.8888                 1.4660
 Frc consts  --      1.7361                 1.0904                 0.8770
 IR Inten    --      9.7469                 2.0789                 2.7452

                     22                     23                     24
                      A                      A                      A
 Frequencies --   1024.3606              1066.9128              1083.2326
 Red. masses --      1.9755                 1.8609                 1.4636
 Frc consts  --      1.2213                 1.2481                 1.0118
 IR Inten    --     41.3384                19.6824                36.0768

                     25                     26                     27
                      A                      A                      A
 Frequencies --   1087.5322              1122.1561              1151.1496
 Red. masses --      1.6269                 1.8671                 1.9842
 Frc consts  --      1.1337                 1.3853                 1.5492
 IR Inten    --     33.1063                 9.5515                71.3264

                     28                     29                     30
                      A                      A                      A
 Frequencies --   1189.7843              1206.2749              1240.6664
 Red. masses --      1.3759                 1.3498                 1.1572
 Frc consts  --      1.1475                 1.1572                 1.0495
 IR Inten    --     35.1187                 2.3192                21.1243

                     31                     32                     33
                      A                      A                      A
 Frequencies --   1275.6768              1289.5765              1324.6026
 Red. masses --      1.4173                 1.2120                 1.4585
 Frc consts  --      1.3589                 1.1875                 1.5077
 IR Inten    --      6.3122                82.2464                 5.0715

                     34                     35                     36
                      A                      A                      A
 Frequencies --   1330.0273              1342.7505              1389.1795
 Red. masses --      1.5216                 1.3836                 1.4673
 Frc consts  --      1.5859                 1.4697                 1.6684
 IR Inten    --      3.2116                 9.9379                 0.9856

                     37                     38                     39
                      A                      A                      A
 Frequencies --   1410.1726              1432.7997              1465.3936
 Red. masses --      1.3304                 1.3973                 1.9591
 Frc consts  --      1.5587                 1.6901                 2.4787
 IR Inten    --     16.3411                41.4046                26.8829

                     40                     41                     42
                      A                      A                      A
 Frequencies --   1478.0039              1699.1312              3029.5681
 Red. masses --      1.2499                 6.7034                 1.0663
 Frc consts  --      1.6087                11.4025                 5.7662
 IR Inten    --      3.4085                 6.0784                15.5433

                     43                     44                     45
                      A                      A                      A
 Frequencies --   3055.3089              3083.7901              3087.5662
 Red. masses --      1.0842                 1.0881                 1.0978
 Frc consts  --      5.9629                 6.0966                 6.1662
 IR Inten    --     49.3055                22.3415                23.3604

                     46                     47                     48
                      A                      A                      A
 Frequencies --   3134.3281              3142.7400              3170.1296
 Red. masses --      1.0854                 1.0868                 1.0890
 Frc consts  --      6.2824                 6.3242                 6.4479
 IR Inten    --      6.9718                20.6427                12.7920

                     49                     50                     51
                      A                      A                      A
 Frequencies --   3175.1222              3800.6440              3810.0950
 Red. masses --      1.0953                 1.0661                 1.0660
 Frc consts  --      6.5061                 9.0732                 9.1175
 IR Inten    --     21.9797                22.8236                12.2781

 - Thermochemistry -
 -------------------
 Temperature   298.150 Kelvin.  Pressure   1.00000 Atm.
 Atom     1 has atomic number  8 and mass  15.99491

 Molecular mass:   126.06808 amu.
 Principal axes and moments of inertia in atomic units:
                           1         2         3
     Eigenvalues --   519.019191561.139671812.14181
           X            0.99995   0.00560   0.00858
           Y           -0.00574   0.99984   0.01681
           Z           -0.00849  -0.01686   0.99982
 This molecule is an asymmetric top.
 Rotational symmetry number  1.
 Warning -- assumption of classical behavior for rotation
           may cause significant error
 Rotational temperatures (Kelvin)      0.16688     0.05548     0.04780
 Rotational constants (GHZ):           3.47721     1.15604     0.99592
 Zero-point vibrational energy     420531.6 (Joules/Mol)
                                  100.50947 (Kcal/Mol)
 Warning -- explicit consideration of  12 degrees of freedom as
           vibrations may cause significant error
 Vibrational temperatures:    107.84   224.56   341.23   409.20   420.31
          (Kelvin)            465.17   475.65   535.88   650.27   757.55
                              786.46   863.79  1100.96  1133.95  1194.73
                             1218.05  1297.48  1337.62  1370.90  1424.21
                             1449.80  1473.82  1535.05  1558.53  1564.71
                             1614.53  1656.25  1711.83  1735.56  1785.04
                             1835.41  1855.41  1905.81  1913.61  1931.92
                             1998.72  2028.92  2061.48  2108.37  2126.52
                             2444.67  4358.87  4395.90  4436.88  4442.31
                             4509.59  4521.70  4561.10  4568.29  5468.27
                             5481.87

 Zero-point correction=                           0.160172 (Hartree/Particle)
 Thermal correction to Energy=                    0.168548
 Thermal correction to Enthalpy=                  0.169493
 Thermal correction to Gibbs Free Energy=         0.127348
 Sum of electronic and zero-point Energies=           -423.013044
 Sum of electronic and thermal Energies=              -423.004667
 Sum of electronic and thermal Enthalpies=            -423.003723
 Sum of electronic and thermal Free Energies=         -423.045868

                     E (Thermal)             CV                S
                      KCal/Mol        Cal/Mol-Kelvin    Cal/Mol-Kelvin
 Total                  105.766             32.764             88.701
 Electronic               0.000              0.000              0.000
 Translational            0.889              2.981             40.409
 Rotational               0.889              2.981             28.775
 Vibrational            103.988             26.802             19.517
 Vibration     1          0.599              1.966              4.019
 Vibration     2          0.620              1.896              2.597
 Vibration     3          0.656              1.784              1.824
 Vibration     4          0.683              1.703              1.507
 Vibration     5          0.688              1.688              1.462
 Vibration     6          0.708              1.629              1.293
 Vibration     7          0.713              1.614              1.257
 Vibration     8          0.744              1.529              1.070
 Vibration     9          0.811              1.357              0.790
 Vibration    10          0.881              1.191              0.595
 Vibration    11          0.902              1.147              0.551
 Vibration    12          0.959              1.031              0.449

 Normal termination of Gaussian 09 at Mon Jan 27 23:39:55 2020.
