 Gaussian 09, Revision D.01,
 Gaussian 09:  ES64L-G09RevD.01 24-Apr-2013

 -----------------------------
 # b3lyp 6-31G(2df,p) opt Freq
 -----------------------------

 -----
 titel
 -----
 Symbolic Z-matrix:
 Charge =  0 Multiplicity = 1

 SCF Done:  E(RB3LYP) =  -423.219331136     A.U. after   14 cycles
 Optimization completed.
    -- Stationary point found.
 Normal termination of Gaussian 09 at Tue Jan 28 03:22:43 2020.

 ----------------------------------------------------------------------
 #N Geom=AllCheck Guess=TCheck SCRF=Check GenChk RB3LYP/6-31G(2df,p) Fr
 eq
 ----------------------------------------------------------------------

 Structure from the checkpoint file:  "/scratch/puck/g09_0d31baa8-e14c-4dbf-bb3a-614514542087/Gau-79330.chk"
 -----
 titel
 -----
 Charge =  0 Multiplicity = 1

                         Standard orientation:
 ---------------------------------------------------------------------
 Center     Atomic      Atomic             Coordinates (Angstroms)
 Number     Number       Type             X           Y           Z
 ---------------------------------------------------------------------
      1          6           0        2.286425   -1.109006    0.139474
      2          6           0        0.856453   -0.595653    0.323506
      3          6           0       -0.171502   -1.424142   -0.469903
      4          6           0       -1.558762   -0.822225   -0.426597
      5          6           0       -2.107149   -0.210331    0.852595
      6          6           0       -1.636687    0.664419   -0.275895
      7          8           0       -0.460032    1.440251   -0.174507
      8          6           0        0.773171    0.896868    0.006382
      9          8           0        1.729928    1.620881   -0.051453
     10          1           0        2.989822   -0.517916    0.727395
     11          1           0        2.354705   -2.156120    0.450128
     12          1           0        2.592607   -1.041416   -0.908867
     13          1           0        0.603388   -0.674531    1.390167
     14          1           0        0.154420   -1.483089   -1.516688
     15          1           0       -0.176307   -2.451392   -0.087443
     16          1           0       -2.281852   -1.281117   -1.094096
     17          1           0       -3.174813   -0.266554    1.032966
     18          1           0       -1.503042   -0.250116    1.751478
     19          1           0       -2.369800    1.233613   -0.834739
 ---------------------------------------------------------------------

 SCF Done:  E(RB3LYP) =  -423.219331136     A.U. after    1 cycles

 The electronic state is 1-A.
 Alpha  occ. eigenvalues --  -19.18101 -19.11606 -10.30159 -10.25409 -10.20962
 Alpha  occ. eigenvalues --  -10.20816 -10.20289 -10.19935 -10.17971  -1.09609
 Alpha  occ. eigenvalues --   -1.01468  -0.87418  -0.80894  -0.71217  -0.66912
 Alpha  occ. eigenvalues --   -0.63255  -0.59983  -0.52815  -0.51871  -0.51151
 Alpha  occ. eigenvalues --   -0.46169  -0.44336  -0.43674  -0.41589  -0.40686
 Alpha  occ. eigenvalues --   -0.40532  -0.39435  -0.35940  -0.34906  -0.34664
 Alpha  occ. eigenvalues --   -0.33850  -0.29284  -0.27064  -0.25583
 Alpha virt. eigenvalues --    0.01128   0.07406   0.09100   0.10268   0.12339
 Alpha virt. eigenvalues --    0.12973   0.14083   0.15277   0.16028   0.17024
 Alpha virt. eigenvalues --    0.17737   0.18645   0.20836   0.21460   0.22239

 Mulliken charges:
               1
     1  C   -0.392449
     2  C   -0.160732
     3  C   -0.222889
     4  C   -0.069379
     5  C   -0.326092
     6  C    0.127216
     7  O   -0.230659
     8  C    0.424558
     9  O   -0.323660
    10  H    0.140612
    11  H    0.108508
    12  H    0.126685
    13  H    0.114252
    14  H    0.113145
    15  H    0.110292
    16  H    0.097522
    17  H    0.121382
    18  H    0.126139
    19  H    0.115549
 Sum of Mulliken charges =   0.00000

 Dipole moment (field-independent basis, Debye):
    X=             -2.5601    Y=             -3.2906    Z=              0.1775  Tot=              4.1729
 Quadrupole moment (field-independent basis, Debye-Ang):
   XX=            -52.8822   YY=            -58.7831   ZZ=            -51.0546
   XY=             -4.6656   XZ=              1.2432   YZ=              0.3363

  Exact polarizability:  90.429   1.093  72.227  -0.802   0.068  62.096
 Approx polarizability: 123.077   7.335 108.069  -1.813  -0.998  97.606

                      1                      2                      3
                      A                      A                      A
 Frequencies --     85.0008               143.8229               206.5366
 Red. masses --      5.4964                 2.8925                 1.0646
 Frc consts  --      0.0234                 0.0353                 0.0268
 IR Inten    --      0.7379                 0.4796                 0.1313

                      4                      5                      6
                      A                      A                      A
 Frequencies --    287.1427               303.0479               338.4415
 Red. masses --      2.5685                 2.7366                 2.7058
 Frc consts  --      0.1248                 0.1481                 0.1826
 IR Inten    --      2.7860                 3.3028                 2.1476

                      7                      8                      9
                      A                      A                      A
 Frequencies --    378.8697               442.7552               507.9160
 Red. masses --      3.4724                 4.3318                 5.2327
 Frc consts  --      0.2937                 0.5003                 0.7954
 IR Inten    --      0.1635                 5.1751                 0.5179

                     10                     11                     12
                      A                      A                      A
 Frequencies --    564.5873               638.6490               706.6720
 Red. masses --      3.6158                 4.9014                 2.2180
 Frc consts  --      0.6791                 1.1779                 0.6526
 IR Inten    --      3.4428                 2.0262                 6.7051

                     13                     14                     15
                      A                      A                      A
 Frequencies --    744.8945               788.1285               822.9847
 Red. masses --      2.7823                 3.2519                 1.5082
 Frc consts  --      0.9096                 1.1901                 0.6019
 IR Inten    --      8.4318                 3.9923                 9.7324

                     16                     17                     18
                      A                      A                      A
 Frequencies --    888.6883               910.1724               952.6359
 Red. masses --      2.3396                 1.8545                 1.7719
 Frc consts  --      1.0887                 0.9052                 0.9474
 IR Inten    --      7.3609                 3.5735                 8.0483

                     19                     20                     21
                      A                      A                      A
 Frequencies --   1002.4199              1022.4221              1045.5430
 Red. masses --      2.0464                 1.6767                 1.3252
 Frc consts  --      1.2116                 1.0327                 0.8535
 IR Inten    --      5.5499                11.3504                 0.6237

                     22                     23                     24
                      A                      A                      A
 Frequencies --   1071.9441              1091.1137              1122.7118
 Red. masses --      2.3925                 1.8510                 2.1273
 Frc consts  --      1.6197                 1.2983                 1.5798
 IR Inten    --     31.3783                13.4669                29.9241

                     25                     26                     27
                      A                      A                      A
 Frequencies --   1129.3502              1150.9083              1174.5273
 Red. masses --      1.2549                 2.0025                 1.9892
 Frc consts  --      0.9430                 1.5628                 1.6168
 IR Inten    --      6.6097                18.6386                 4.3269

                     28                     29                     30
                      A                      A                      A
 Frequencies --   1195.3749              1235.1376              1254.7914
 Red. masses --      2.1575                 1.4167                 2.1783
 Frc consts  --      1.8164                 1.2733                 2.0208
 IR Inten    --    158.2966                 0.8118                91.6911

                     31                     32                     33
                      A                      A                      A
 Frequencies --   1314.7737              1347.7801              1373.3233
 Red. masses --      1.3284                 1.4133                 1.7742
 Frc consts  --      1.3530                 1.5126                 1.9715
 IR Inten    --      1.1741                 4.9566                 1.8876

                     34                     35                     36
                      A                      A                      A
 Frequencies --   1392.5741              1413.3465              1420.1344
 Red. masses --      1.6044                 1.2570                 1.4622
 Frc consts  --      1.8332                 1.4794                 1.7374
 IR Inten    --     36.6064                16.4838                 5.7635

                     37                     38                     39
                      A                      A                      A
 Frequencies --   1485.4557              1489.6948              1496.6694
 Red. masses --      1.2412                 1.1193                 1.0572
 Frc consts  --      1.6137                 1.4635                 1.3953
 IR Inten    --      7.8366                10.1847                 4.2590

                     40                     41                     42
                      A                      A                      A
 Frequencies --   1503.1964              1836.9338              3012.7862
 Red. masses --      1.1314                12.6957                 1.0773
 Frc consts  --      1.5063                25.2403                 5.7613
 IR Inten    --      5.4372               313.2099                 1.1698

                     43                     44                     45
                      A                      A                      A
 Frequencies --   3022.7302              3046.0903              3059.8771
 Red. masses --      1.0631                 1.0374                 1.1022
 Frc consts  --      5.7227                 5.6713                 6.0803
 IR Inten    --     36.9798                25.4927                22.2171

                     46                     47                     48
                      A                      A                      A
 Frequencies --   3111.8733              3141.3098              3143.3583
 Red. masses --      1.1019                 1.0553                 1.0994
 Frc consts  --      6.2870                 6.1353                 6.4000
 IR Inten    --     23.5546                 7.7217                11.5423

                     49                     50                     51
                      A                      A                      A
 Frequencies --   3151.1926              3183.5766              3227.3361
 Red. masses --      1.0887                 1.0918                 1.1156
 Frc consts  --      6.3693                 6.5197                 6.8460
 IR Inten    --     11.6080                15.7076                 8.9644

 - Thermochemistry -
 -------------------
 Temperature   298.150 Kelvin.  Pressure   1.00000 Atm.
 Atom     1 has atomic number  6 and mass  12.00000

 Molecular mass:   126.06808 amu.
 Principal axes and moments of inertia in atomic units:
                           1         2         3
     Eigenvalues --   669.677281138.942461605.79576
           X            0.99806  -0.06234   0.00004
           Y            0.06234   0.99804   0.00543
           Z           -0.00038  -0.00542   0.99999
 This molecule is an asymmetric top.
 Rotational symmetry number  1.
 Warning -- assumption of classical behavior for rotation
           may cause significant error
 Rotational temperatures (Kelvin)      0.12934     0.07605     0.05394
 Rotational constants (GHZ):           2.69494     1.58458     1.12389
 Zero-point vibrational energy     420973.1 (Joules/Mol)
                                  100.61498 (Kcal/Mol)
 Warning -- explicit consideration of  10 degrees of freedom as
           vibrations may cause significant error
 Vibrational temperatures:    122.30   206.93   297.16   413.13   436.02
          (Kelvin)            486.94   545.11   637.03   730.78   812.31
                              918.87  1016.74  1071.74  1133.94  1184.09
                             1278.62  1309.53  1370.63  1442.26  1471.04
                             1504.30  1542.29  1569.87  1615.33  1624.88
                             1655.90  1689.88  1719.88  1777.09  1805.36
                             1891.66  1939.15  1975.90  2003.60  2033.49
                             2043.25  2137.24  2143.34  2153.37  2162.76
                             2642.93  4334.72  4349.03  4382.64  4402.48
                             4477.29  4519.64  4522.59  4533.86  4580.45
                             4643.41

 Zero-point correction=                           0.160340 (Hartree/Particle)
 Thermal correction to Energy=                    0.168375
 Thermal correction to Enthalpy=                  0.169319
 Thermal correction to Gibbs Free Energy=         0.127815
 Sum of electronic and zero-point Energies=           -423.058991
 Sum of electronic and thermal Energies=              -423.050956
 Sum of electronic and thermal Enthalpies=            -423.050012
 Sum of electronic and thermal Free Energies=         -423.091516

                     E (Thermal)             CV                S
                      KCal/Mol        Cal/Mol-Kelvin    Cal/Mol-Kelvin
 Total                  105.657             31.302             87.352
 Electronic               0.000              0.000              0.000
 Translational            0.889              2.981             40.409
 Rotational               0.889              2.981             28.595
 Vibrational            103.879             25.340             18.348
 Vibration     1          0.601              1.960              3.772
 Vibration     2          0.616              1.909              2.752
 Vibration     3          0.641              1.831              2.074
 Vibration     4          0.684              1.698              1.491
 Vibration     5          0.694              1.668              1.400
 Vibration     6          0.719              1.599              1.219
 Vibration     7          0.749              1.515              1.044
 Vibration     8          0.802              1.377              0.818
 Vibration     9          0.863              1.232              0.639
 Vibration    10          0.920              1.108              0.515

 Optimization completed.
    -- Stationary point found.
 Normal termination of Gaussian 09 at Tue Jan 28 04:05:57 2020.
