 Gaussian 09, Revision D.01,
 Gaussian 09:  ES64L-G09RevD.01 24-Apr-2013

 -----------------------------
 # b3lyp 6-31G(2df,p) opt Freq
 -----------------------------

 -----
 titel
 -----
 Symbolic Z-matrix:
 Charge =  0 Multiplicity = 1

 SCF Done:  E(RB3LYP) =  -423.207416835     A.U. after   14 cycles
 Optimization completed.
    -- Stationary point found.
 Normal termination of Gaussian 09 at Tue Jan 28 12:10:32 2020.

 ----------------------------------------------------------------------
 #N Geom=AllCheck Guess=TCheck SCRF=Check GenChk RB3LYP/6-31G(2df,p) Fr
 eq
 ----------------------------------------------------------------------

 Structure from the checkpoint file:  "/scratch/puck/g09_e45ae2f7-2402-46c1-b716-4e02c8b4e7a5/Gau-25567.chk"
 -----
 titel
 -----
 Charge =  0 Multiplicity = 1

                         Standard orientation:
 ---------------------------------------------------------------------
 Center     Atomic      Atomic             Coordinates (Angstroms)
 Number     Number       Type             X           Y           Z
 ---------------------------------------------------------------------
      1          6           0        2.654219   -0.402946   -0.130044
      2          6           0        1.461664   -0.634673    0.808247
      3          6           0        0.140960   -0.284690    0.153373
      4          6           0       -0.426580   -1.188744   -0.998458
      5          6           0       -1.817858   -1.219777   -0.293817
      6          6           0       -1.274511   -0.283434    0.800169
      7          8           0       -1.440313    1.126669    0.440107
      8          6           0       -0.179005    1.186839   -0.109584
      9          8           0        0.356610    2.136446   -0.587893
     10          1           0        2.580496   -1.028203   -1.026126
     11          1           0        2.695065    0.641000   -0.451785
     12          1           0        3.594835   -0.648136    0.371206
     13          1           0        1.433336   -1.684075    1.128590
     14          1           0        1.585929   -0.034144    1.717882
     15          1           0       -0.391327   -0.756011   -1.999739
     16          1           0        0.063565   -2.164619   -1.025859
     17          1           0       -2.663649   -0.811835   -0.849860
     18          1           0       -2.086070   -2.208985    0.084304
     19          1           0       -1.495893   -0.445353    1.854358
 ---------------------------------------------------------------------

 SCF Done:  E(RB3LYP) =  -423.207416835     A.U. after    1 cycles

 The electronic state is 1-A.
 Alpha  occ. eigenvalues --  -19.17720 -19.13207 -10.30225 -10.25165 -10.21308
 Alpha  occ. eigenvalues --  -10.20393 -10.20013 -10.19853 -10.17991  -1.10259
 Alpha  occ. eigenvalues --   -1.02959  -0.85374  -0.77813  -0.69925  -0.67416
 Alpha  occ. eigenvalues --   -0.62360  -0.60091  -0.52068  -0.51425  -0.49221
 Alpha  occ. eigenvalues --   -0.46758  -0.44733  -0.43676  -0.42291  -0.40285
 Alpha  occ. eigenvalues --   -0.39384  -0.37762  -0.36543  -0.35751  -0.34916
 Alpha  occ. eigenvalues --   -0.33040  -0.30381  -0.29238  -0.26486
 Alpha virt. eigenvalues --    0.01211   0.07134   0.08104   0.08918   0.12018
 Alpha virt. eigenvalues --    0.12467   0.13476   0.14839   0.15464   0.15660
 Alpha virt. eigenvalues --    0.16502   0.18393   0.19314   0.19827   0.21092

 Mulliken charges:
               1
     1  C   -0.386456
     2  C   -0.298401
     3  C    0.152542
     4  C   -0.286891
     5  C   -0.236486
     6  C    0.046820
     7  O   -0.262439
     8  C    0.436171
     9  O   -0.337155
    10  H    0.118690
    11  H    0.152125
    12  H    0.115728
    13  H    0.099325
    14  H    0.109898
    15  H    0.124386
    16  H    0.115642
    17  H    0.125124
    18  H    0.114192
    19  H    0.097186
 Sum of Mulliken charges =   0.00000

 Dipole moment (field-independent basis, Debye):
    X=             -0.0777    Y=             -3.9427    Z=              0.9035  Tot=              4.0457
 Quadrupole moment (field-independent basis, Debye-Ang):
   XX=            -52.7521   YY=            -59.3538   ZZ=            -51.6291
   XY=              1.1980   XZ=              1.0038   YZ=              1.3467

  Exact polarizability:  82.064   4.657  75.529  -2.219  -1.416  66.060
 Approx polarizability: 111.531   8.230 116.004  -7.447  -5.491 100.874

                      1                      2                      3
                      A                      A                      A
 Frequencies --     90.4347               124.1820               142.2513
 Red. masses --      2.6813                 3.9015                 2.4547
 Frc consts  --      0.0129                 0.0354                 0.0293
 IR Inten    --      0.7721                 0.5084                 1.7709

                      4                      5                      6
                      A                      A                      A
 Frequencies --    205.8215               228.6413               295.4223
 Red. masses --      1.8412                 1.6661                 1.8794
 Frc consts  --      0.0460                 0.0513                 0.0966
 IR Inten    --      1.3875                 0.9216                 0.9820

                      7                      8                      9
                      A                      A                      A
 Frequencies --    319.4239               411.7048               498.5466
 Red. masses --      3.8390                 3.2776                 3.3410
 Frc consts  --      0.2308                 0.3273                 0.4893
 IR Inten    --      1.3003                 0.5391                 2.1209

                     10                     11                     12
                      A                      A                      A
 Frequencies --    646.7908               685.5648               731.5703
 Red. masses --      5.7383                 3.7708                 1.4925
 Frc consts  --      1.4144                 1.0442                 0.4706
 IR Inten    --      0.0987                 1.6561                 1.3540

                     13                     14                     15
                      A                      A                      A
 Frequencies --    763.3962               790.5581               839.8447
 Red. masses --      3.2852                 1.3486                 3.2703
 Frc consts  --      1.1280                 0.4966                 1.3590
 IR Inten    --      3.1803                 4.4580                 5.2789

                     16                     17                     18
                      A                      A                      A
 Frequencies --    870.2251               904.0638               948.9827
 Red. masses --      2.5581                 2.1352                 2.4326
 Frc consts  --      1.1414                 1.0282                 1.2907
 IR Inten    --     31.8748                 1.9989                 3.0899

                     19                     20                     21
                      A                      A                      A
 Frequencies --    960.5270               987.4878               996.1656
 Red. masses --      2.2062                 2.7037                 3.2805
 Frc consts  --      1.1993                 1.5534                 1.9180
 IR Inten    --     30.0026                33.6363                 0.7698

                     22                     23                     24
                      A                      A                      A
 Frequencies --   1034.3842              1100.8978              1113.4406
 Red. masses --      1.8560                 2.5105                 1.5121
 Frc consts  --      1.1700                 1.7927                 1.1045
 IR Inten    --     14.6645                54.5410                12.1403

                     25                     26                     27
                      A                      A                      A
 Frequencies --   1138.0768              1174.0053              1207.0570
 Red. masses --      2.6525                 2.4183                 1.8994
 Frc consts  --      2.0242                 1.9638                 1.6305
 IR Inten    --     20.3654                27.0395                 3.2935

                     28                     29                     30
                      A                      A                      A
 Frequencies --   1218.8781              1241.0522              1271.8102
 Red. masses --      1.3312                 1.4256                 1.4998
 Frc consts  --      1.1653                 1.2937                 1.4293
 IR Inten    --      0.2772                 2.5869                 3.2284

                     31                     32                     33
                      A                      A                      A
 Frequencies --   1301.4880              1317.4463              1344.2599
 Red. masses --      1.3657                 1.4800                 1.7054
 Frc consts  --      1.3630                 1.5135                 1.8157
 IR Inten    --      1.6295                14.8170                10.4420

                     34                     35                     36
                      A                      A                      A
 Frequencies --   1367.8082              1411.9552              1466.6374
 Red. masses --      2.0067                 1.2229                 1.0859
 Frc consts  --      2.2120                 1.4364                 1.3763
 IR Inten    --      5.6963                 3.2612                 1.4643

                     37                     38                     39
                      A                      A                      A
 Frequencies --   1483.7898              1493.0449              1498.9292
 Red. masses --      1.0834                 1.0920                 1.0393
 Frc consts  --      1.4054                 1.4342                 1.3759
 IR Inten    --      2.1099                 0.7905                 7.1515

                     40                     41                     42
                      A                      A                      A
 Frequencies --   1511.4614              1919.9465              3019.3528
 Red. masses --      1.0706                12.7691                 1.0595
 Frc consts  --      1.4410                27.7324                 5.6909
 IR Inten    --      2.9187               385.2111                24.8582

                     43                     44                     45
                      A                      A                      A
 Frequencies --   3040.3357              3054.8685              3069.5405
 Red. masses --      1.0375                 1.1006                 1.0586
 Frc consts  --      5.6506                 6.0515                 5.8768
 IR Inten    --     18.6939                16.4631                23.5232

                     46                     47                     48
                      A                      A                      A
 Frequencies --   3076.0510              3107.1424              3119.3525
 Red. masses --      1.0606                 1.1008                 1.1073
 Frc consts  --      5.9127                 6.2615                 6.3482
 IR Inten    --     23.6066                32.9426                 3.9089

                     49                     50                     51
                      A                      A                      A
 Frequencies --   3126.5717              3127.0160              3137.5391
 Red. masses --      1.0926                 1.1020                 1.1063
 Frc consts  --      6.2926                 6.3489                 6.4165
 IR Inten    --     19.2757                13.8958                27.0205

 - Thermochemistry -
 -------------------
 Temperature   298.150 Kelvin.  Pressure   1.00000 Atm.
 Atom     1 has atomic number  6 and mass  12.00000

 Molecular mass:   126.06808 amu.
 Principal axes and moments of inertia in atomic units:
                           1         2         3
     Eigenvalues --   791.443811090.816021506.00215
           X            0.99981   0.01721   0.00920
           Y           -0.01737   0.99970   0.01706
           Z           -0.00890  -0.01722   0.99981
 This molecule is an asymmetric top.
 Rotational symmetry number  1.
 Warning -- assumption of classical behavior for rotation
           may cause significant error
 Rotational temperatures (Kelvin)      0.10944     0.07940     0.05751
 Rotational constants (GHZ):           2.28032     1.65449     1.19837
 Zero-point vibrational energy     418308.6 (Joules/Mol)
                                   99.97817 (Kcal/Mol)
 Warning -- explicit consideration of   9 degrees of freedom as
           vibrations may cause significant error
 Vibrational temperatures:    130.12   178.67   204.67   296.13   328.96
          (Kelvin)            425.05   459.58   592.35   717.30   930.59
                              986.37  1052.57  1098.36  1137.44  1208.35
                             1252.06  1300.74  1365.37  1381.98  1420.77
                             1433.26  1488.25  1583.94  1601.99  1637.44
                             1689.13  1736.68  1753.69  1785.60  1829.85
                             1872.55  1895.51  1934.09  1967.97  2031.49
                             2110.16  2134.84  2148.16  2156.62  2174.65
                             2762.37  4344.17  4374.36  4395.27  4416.38
                             4425.75  4470.48  4488.05  4498.43  4499.07
                             4514.21

 Zero-point correction=                           0.159325 (Hartree/Particle)
 Thermal correction to Energy=                    0.167795
 Thermal correction to Enthalpy=                  0.168739
 Thermal correction to Gibbs Free Energy=         0.126089
 Sum of electronic and zero-point Energies=           -423.048091
 Sum of electronic and thermal Energies=              -423.039622
 Sum of electronic and thermal Enthalpies=            -423.038678
 Sum of electronic and thermal Free Energies=         -423.081328

                     E (Thermal)             CV                S
                      KCal/Mol        Cal/Mol-Kelvin    Cal/Mol-Kelvin
 Total                  105.293             31.734             89.766
 Electronic               0.000              0.000              0.000
 Translational            0.889              2.981             40.409
 Rotational               0.889              2.981             28.654
 Vibrational            103.516             25.773             20.703
 Vibration     1          0.602              1.956              3.651
 Vibration     2          0.610              1.929              3.034
 Vibration     3          0.616              1.911              2.773
 Vibration     4          0.640              1.832              2.080
 Vibration     5          0.651              1.797              1.890
 Vibration     6          0.690              1.682              1.443
 Vibration     7          0.705              1.636              1.313
 Vibration     8          0.776              1.445              0.921
 Vibration     9          0.854              1.253              0.662

 Optimization completed.
    -- Stationary point found.
 Normal termination of Gaussian 09 at Tue Jan 28 12:57:07 2020.
