 Gaussian 09, Revision D.01,
 Gaussian 09:  ES64L-G09RevD.01 24-Apr-2013

 -----------------------------
 # b3lyp 6-31G(2df,p) opt Freq
 -----------------------------

 -----
 titel
 -----
 Symbolic Z-matrix:
 Charge =  0 Multiplicity = 1

 SCF Done:  E(RB3LYP) =  -423.201981612     A.U. after   13 cycles
 Optimization completed.
    -- Stationary point found.
 Normal termination of Gaussian 09 at Tue Jan 28 13:27:52 2020.

 ----------------------------------------------------------------------
 #N Geom=AllCheck Guess=TCheck SCRF=Check GenChk RB3LYP/6-31G(2df,p) Fr
 eq
 ----------------------------------------------------------------------

 Structure from the checkpoint file:  "/scratch/puck/g09_dcbe13c3-a788-4853-aa19-d45961701301/Gau-31865.chk"
 -----
 titel
 -----
 Charge =  0 Multiplicity = 1

                         Standard orientation:
 ---------------------------------------------------------------------
 Center     Atomic      Atomic             Coordinates (Angstroms)
 Number     Number       Type             X           Y           Z
 ---------------------------------------------------------------------
      1          6           0       -2.553740   -1.496176   -0.289798
      2          6           0       -2.324852   -0.087174    0.269226
      3          6           0       -1.200118    0.649854   -0.429293
      4          6           0       -0.518457    1.855561    0.216127
      5          6           0        0.203877    0.564693    0.058065
      6          6           0        0.889780   -0.343442    1.067761
      7          6           0        1.991331   -0.389228    0.003068
      8          8           0        3.055295   -0.894034   -0.150213
      9          8           0        1.319524    0.438057   -0.866085
     10          1           0       -3.375333   -1.998810    0.229321
     11          1           0       -2.804161   -1.460455   -1.355367
     12          1           0       -1.658783   -2.118407   -0.184710
     13          1           0       -3.247359    0.499984    0.177723
     14          1           0       -2.109256   -0.143434    1.344148
     15          1           0       -1.293905    0.711086   -1.511494
     16          1           0       -0.225825    2.676562   -0.429018
     17          1           0       -0.825775    2.147420    1.216127
     18          1           0        1.197877    0.116944    2.008350
     19          1           0        0.417033   -1.307606    1.264367
 ---------------------------------------------------------------------

 SCF Done:  E(RB3LYP) =  -423.201981612     A.U. after    1 cycles

 The electronic state is 1-A.
 Alpha  occ. eigenvalues --  -19.18111 -19.13392 -10.30991 -10.26193 -10.21354
 Alpha  occ. eigenvalues --  -10.20585 -10.19940 -10.19867 -10.18520  -1.10717
 Alpha  occ. eigenvalues --   -1.03379  -0.87580  -0.77172  -0.76218  -0.64924
 Alpha  occ. eigenvalues --   -0.61140  -0.57569  -0.54232  -0.52837  -0.49115
 Alpha  occ. eigenvalues --   -0.48291  -0.45212  -0.44162  -0.43031  -0.40888
 Alpha  occ. eigenvalues --   -0.39764  -0.38478  -0.36616  -0.35918  -0.34875
 Alpha  occ. eigenvalues --   -0.34574  -0.29940  -0.27485  -0.26888
 Alpha virt. eigenvalues --    0.01134   0.06902   0.07835   0.09503   0.10687
 Alpha virt. eigenvalues --    0.13087   0.13480   0.14093   0.15327   0.15627
 Alpha virt. eigenvalues --    0.17196   0.18248   0.19647   0.21425   0.21488

 Mulliken charges:
               1
     1  C   -0.377556
     2  C   -0.199114
     3  C   -0.072012
     4  C   -0.378539
     5  C    0.448931
     6  C   -0.502152
     7  C    0.437507
     8  O   -0.314164
     9  O   -0.259668
    10  H    0.117715
    11  H    0.122550
    12  H    0.120013
    13  H    0.106941
    14  H    0.095886
    15  H    0.105660
    16  H    0.133747
    17  H    0.120591
    18  H    0.146437
    19  H    0.147226
 Sum of Mulliken charges =   0.00000

 Dipole moment (field-independent basis, Debye):
    X=             -3.7783    Y=              0.8475    Z=              1.7076  Tot=              4.2320
 Quadrupole moment (field-independent basis, Debye-Ang):
   XX=            -63.6646   YY=            -52.6506   ZZ=            -51.8610
   XY=              3.3410   XZ=              3.0796   YZ=             -0.0983

  Exact polarizability:  90.147  -4.125  73.964   0.428  -0.328  65.518
 Approx polarizability: 122.088 -11.204 105.600  -0.367  -1.516 101.312

                      1                      2                      3
                      A                      A                      A
 Frequencies --     71.5771               107.3533               147.1299
 Red. masses --      4.2199                 2.3154                 2.2106
 Frc consts  --      0.0127                 0.0157                 0.0282
 IR Inten    --      1.2408                 1.8487                 1.5132

                      4                      5                      6
                      A                      A                      A
 Frequencies --    161.9423               237.6436               290.7261
 Red. masses --      3.9554                 1.2723                 2.6253
 Frc consts  --      0.0611                 0.0423                 0.1307
 IR Inten    --      0.6908                 0.4415                 1.3811

                      7                      8                      9
                      A                      A                      A
 Frequencies --    390.9075               405.7405               459.0788
 Red. masses --      3.2959                 2.4656                 2.8790
 Frc consts  --      0.2967                 0.2391                 0.3575
 IR Inten    --      1.4114                 0.4302                 0.7738

                     10                     11                     12
                      A                      A                      A
 Frequencies --    515.5201               524.0699               569.8892
 Red. masses --      5.5350                 2.2471                 3.1472
 Frc consts  --      0.8667                 0.3636                 0.6022
 IR Inten    --      5.4524                 3.7160                 0.4008

                     13                     14                     15
                      A                      A                      A
 Frequencies --    759.2183               790.8174               809.8787
 Red. masses --      1.5137                 2.5060                 1.5936
 Frc consts  --      0.5141                 0.9234                 0.6158
 IR Inten    --      3.6912                 4.6098                 4.6093

                     16                     17                     18
                      A                      A                      A
 Frequencies --    868.0112               895.2257               932.2966
 Red. masses --      2.7000                 2.3545                 1.4246
 Frc consts  --      1.1986                 1.1117                 0.7295
 IR Inten    --     44.9593                10.1198                 3.3704

                     19                     20                     21
                      A                      A                      A
 Frequencies --    957.9642               995.3996              1019.9368
 Red. masses --      3.5151                 2.5714                 1.8296
 Frc consts  --      1.9006                 1.5011                 1.1214
 IR Inten    --     12.8357                 8.7475                33.4696

                     22                     23                     24
                      A                      A                      A
 Frequencies --   1031.6602              1054.6588              1078.8791
 Red. masses --      2.2634                 1.4535                 2.1938
 Frc consts  --      1.4193                 0.9526                 1.5045
 IR Inten    --     14.4058                10.2082                80.6615

                     25                     26                     27
                      A                      A                      A
 Frequencies --   1095.4911              1128.9668              1157.5670
 Red. masses --      2.4767                 1.6455                 1.6141
 Frc consts  --      1.7512                 1.2357                 1.2743
 IR Inten    --     41.7131                 6.1264                 5.9603

                     28                     29                     30
                      A                      A                      A
 Frequencies --   1188.1877              1203.2677              1242.7452
 Red. masses --      1.9727                 1.4739                 2.5687
 Frc consts  --      1.6409                 1.2573                 2.3373
 IR Inten    --      2.9747                 1.7944                44.6069

                     31                     32                     33
                      A                      A                      A
 Frequencies --   1293.0794              1329.9499              1368.5384
 Red. masses --      1.2945                 1.4578                 1.6798
 Frc consts  --      1.2753                 1.5192                 1.8537
 IR Inten    --      6.9553                17.2546                 8.2079

                     34                     35                     36
                      A                      A                      A
 Frequencies --   1412.8591              1424.8680              1455.3984
 Red. masses --      1.2367                 1.4011                 1.1195
 Frc consts  --      1.4545                 1.6759                 1.3972
 IR Inten    --      1.8635                11.5220                 6.8910

                     37                     38                     39
                      A                      A                      A
 Frequencies --   1486.5137              1497.3717              1501.6748
 Red. masses --      1.0724                 1.0484                 2.3372
 Frc consts  --      1.3962                 1.3850                 3.1052
 IR Inten    --      0.8971                 8.0364                31.3799

                     40                     41                     42
                      A                      A                      A
 Frequencies --   1505.9252              1945.0508              3019.4617
 Red. masses --      1.0771                12.9125                 1.0598
 Frc consts  --      1.4392                28.7821                 5.6929
 IR Inten    --      2.2530               498.1086                23.2778

                     43                     44                     45
                      A                      A                      A
 Frequencies --   3035.1600              3049.5271              3084.6259
 Red. masses --      1.0352                 1.1014                 1.0593
 Frc consts  --      5.6186                 6.0348                 5.9385
 IR Inten    --     22.5205                16.3869                 5.6129

                     46                     47                     48
                      A                      A                      A
 Frequencies --   3102.5846              3108.3722              3126.6962
 Red. masses --      1.1017                 1.1015                 1.0551
 Frc consts  --      6.2483                 6.2705                 6.0772
 IR Inten    --     36.9495                32.8104                 6.8766

                     49                     50                     51
                      A                      A                      A
 Frequencies --   3137.2652              3140.0157              3218.4499
 Red. masses --      1.0873                 1.1069                 1.1158
 Frc consts  --      6.3055                 6.4302                 6.8099
 IR Inten    --      9.8051                 2.8034                 3.2847

 - Thermochemistry -
 -------------------
 Temperature   298.150 Kelvin.  Pressure   1.00000 Atm.
 Atom     1 has atomic number  6 and mass  12.00000

 Molecular mass:   126.06808 amu.
 Principal axes and moments of inertia in atomic units:
                           1         2         3
     Eigenvalues --   589.734541723.335541998.27424
           X            0.99953   0.02932   0.00930
           Y           -0.02942   0.99951   0.01086
           Z           -0.00898  -0.01113   0.99990
 This molecule is an asymmetric top.
 Rotational symmetry number  1.
 Warning -- assumption of classical behavior for rotation
           may cause significant error
 Rotational temperatures (Kelvin)      0.14687     0.05026     0.04334
 Rotational constants (GHZ):           3.06026     1.04724     0.90315
 Zero-point vibrational energy     414716.2 (Joules/Mol)
                                   99.11956 (Kcal/Mol)
 Warning -- explicit consideration of  12 degrees of freedom as
           vibrations may cause significant error
 Vibrational temperatures:    102.98   154.46   211.69   233.00   341.92
          (Kelvin)            418.29   562.43   583.77   660.51   741.72
                              754.02   819.94  1092.34  1137.81  1165.23
                             1248.87  1288.03  1341.37  1378.30  1432.16
                             1467.46  1484.33  1517.42  1552.26  1576.17
                             1624.33  1665.48  1709.53  1731.23  1788.03
                             1860.45  1913.50  1969.02  2032.79  2050.06
                             2093.99  2138.76  2154.38  2160.57  2166.69
                             2798.49  4344.33  4366.91  4387.58  4438.08
                             4463.92  4472.25  4498.61  4513.82  4517.78
                             4630.63

 Zero-point correction=                           0.157957 (Hartree/Particle)
 Thermal correction to Energy=                    0.166785
 Thermal correction to Enthalpy=                  0.167729
 Thermal correction to Gibbs Free Energy=         0.124043
 Sum of electronic and zero-point Energies=           -423.044025
 Sum of electronic and thermal Energies=              -423.035197
 Sum of electronic and thermal Enthalpies=            -423.034253
 Sum of electronic and thermal Free Energies=         -423.077939

                     E (Thermal)             CV                S
                      KCal/Mol        Cal/Mol-Kelvin    Cal/Mol-Kelvin
 Total                  104.659             32.971             91.946
 Electronic               0.000              0.000              0.000
 Translational            0.889              2.981             40.409
 Rotational               0.889              2.981             29.098
 Vibrational            102.882             27.009             22.440
 Vibration     1          0.598              1.968              4.110
 Vibration     2          0.606              1.943              3.316
 Vibration     3          0.617              1.906              2.709
 Vibration     4          0.622              1.889              2.527
 Vibration     5          0.656              1.783              1.820
 Vibration     6          0.687              1.691              1.470
 Vibration     7          0.759              1.490              0.997
 Vibration     8          0.771              1.458              0.942
 Vibration     9          0.817              1.341              0.769
 Vibration    10          0.871              1.216              0.620
 Vibration    11          0.879              1.197              0.601
 Vibration    12          0.926              1.096              0.504

 Optimization completed.
    -- Stationary point found.
 Normal termination of Gaussian 09 at Tue Jan 28 14:07:44 2020.
