 Gaussian 09, Revision D.01,
 Gaussian 09:  ES64L-G09RevD.01 24-Apr-2013

 -----------------------------
 # b3lyp 6-31G(2df,p) opt Freq
 -----------------------------

 -----
 titel
 -----
 Symbolic Z-matrix:
 Charge =  0 Multiplicity = 1

 SCF Done:  E(RB3LYP) =  -423.137912874     A.U. after   14 cycles
 SCF Done:  E(RB3LYP) =  -423.137912633     A.U. after    7 cycles
 SCF Done:  E(RB3LYP) =  -423.137913500     A.U. after    7 cycles
 Optimization completed.
    -- Stationary point found.
 Normal termination of Gaussian 09 at Mon Jan 27 23:14:44 2020.

 ----------------------------------------------------------------------
 #N Geom=AllCheck Guess=TCheck SCRF=Check GenChk RB3LYP/6-31G(2df,p) Fr
 eq
 ----------------------------------------------------------------------

 Structure from the checkpoint file:  "/scratch/puck/g09_7140a0ee-9a3e-45e7-8ccc-8dc542853dd4/Gau-179064.chk"
 -----
 titel
 -----
 Charge =  0 Multiplicity = 1

                         Standard orientation:
 ---------------------------------------------------------------------
 Center     Atomic      Atomic             Coordinates (Angstroms)
 Number     Number       Type             X           Y           Z
 ---------------------------------------------------------------------
      1          6           0        2.327064   -1.210138   -0.000006
      2          6           0        1.696831    0.175069    0.000000
      3          6           0        0.527899    0.634568    0.946158
      4          6           0        0.397952    1.863973    0.000003
      5          6           0        0.527900    0.634571   -0.946157
      6          6           0       -0.486878   -0.123274    0.000002
      7          8           0       -0.487327   -1.513482    0.000008
      8          6           0       -1.933484    0.329721   -0.000004
      9          8           0       -2.833230   -0.482585   -0.000004
     10          1           0        1.603477   -2.019652   -0.000097
     11          1           0        2.971646   -1.315266   -0.880606
     12          1           0        2.971505   -1.315344    0.880688
     13          1           0        2.506377    0.915194    0.000004
     14          1           0        0.511512    0.631187    2.037512
     15          1           0       -0.526608    2.437706    0.000004
     16          1           0        1.256878    2.536463    0.000004
     17          1           0        0.511511    0.631194   -2.037511
     18          1           0       -1.426170   -1.767093   -0.000001
     19          1           0       -2.159376    1.407209   -0.000005
 ---------------------------------------------------------------------

 SCF Done:  E(RB3LYP) =  -423.137913500     A.U. after    1 cycles

 The electronic state is 1-A.
 Alpha  occ. eigenvalues --  -19.15974 -19.13661 -10.28081 -10.25478 -10.21247
 Alpha  occ. eigenvalues --  -10.21245 -10.20100 -10.19960 -10.16421  -1.07373
 Alpha  occ. eigenvalues --   -1.02275  -0.91312  -0.73889  -0.69149  -0.64440
 Alpha  occ. eigenvalues --   -0.63816  -0.58444  -0.53788  -0.53282  -0.50620
 Alpha  occ. eigenvalues --   -0.46874  -0.43573  -0.43010  -0.41581  -0.40470
 Alpha  occ. eigenvalues --   -0.37938  -0.36985  -0.36177  -0.32878  -0.32754
 Alpha  occ. eigenvalues --   -0.31725  -0.30720  -0.26754  -0.26021
 Alpha virt. eigenvalues --   -0.04261   0.09526   0.10769   0.11473   0.13003
 Alpha virt. eigenvalues --    0.13603   0.14811   0.15044   0.15382   0.15946
 Alpha virt. eigenvalues --    0.17111   0.19748   0.19960   0.20265   0.21453

 Mulliken charges:
               1
     1  C   -0.450865
     2  C    0.062666
     3  C   -0.131372
     4  C   -0.252588
     5  C   -0.131375
     6  C    0.387938
     7  O   -0.491356
     8  C    0.085917
     9  O   -0.285966
    10  H    0.159124
    11  H    0.110202
    12  H    0.110204
    13  H    0.066707
    14  H    0.080014
    15  H    0.095612
    16  H    0.105831
    17  H    0.080014
    18  H    0.292606
    19  H    0.106686
 Sum of Mulliken charges =   0.00000

 Dipole moment (field-independent basis, Debye):
    X=              1.0541    Y=              2.0530    Z=              0.0000  Tot=              2.3078
 Quadrupole moment (field-independent basis, Debye-Ang):
   XX=            -58.1477   YY=            -53.3328   ZZ=            -52.2937
   XY=             -1.4124   XZ=              0.0000   YZ=              0.0000

  Exact polarizability:  92.071   0.638  78.919   0.000   0.000  62.025
 Approx polarizability: 130.238   8.347 118.430   0.000   0.000  98.914

                      1                      2                      3
                      A                      A                      A
 Frequencies --     92.4970               139.1008               187.9184
 Red. masses --      8.0108                 1.0836                 2.0897
 Frc consts  --      0.0404                 0.0124                 0.0435
 IR Inten    --      0.0040                 0.5047                 3.1644

                      4                      5                      6
                      A                      A                      A
 Frequencies --    244.3645               307.3953               355.6879
 Red. masses --      4.5230                 2.1888                 4.1448
 Frc consts  --      0.1591                 0.1219                 0.3089
 IR Inten    --      4.6953                 0.0103                 0.2482

                      7                      8                      9
                      A                      A                      A
 Frequencies --    400.4668               407.0357               484.0535
 Red. masses --      5.7984                 2.9364                 5.7731
 Frc consts  --      0.5479                 0.2866                 0.7970
 IR Inten    --     16.9973                 9.5856                 1.6693

                     10                     11                     12
                      A                      A                      A
 Frequencies --    534.1936               552.9953               634.3848
 Red. masses --      2.5030                 1.0951                 4.1126
 Frc consts  --      0.4208                 0.1973                 0.9751
 IR Inten    --      7.2995                63.4192                13.6256

                     13                     14                     15
                      A                      A                      A
 Frequencies --    744.4092               772.9228               782.5767
 Red. masses --      3.8087                 2.8670                 2.0471
 Frc consts  --      1.2435                 1.0091                 0.7386
 IR Inten    --      0.8268                 0.0839                 2.9913

                     16                     17                     18
                      A                      A                      A
 Frequencies --    835.8454               874.9377               883.9686
 Red. masses --      5.2639                 2.1845                 2.1838
 Frc consts  --      2.1667                 0.9853                 1.0054
 IR Inten    --     30.8780                 1.0678                 0.8482

                     19                     20                     21
                      A                      A                      A
 Frequencies --   1005.1197              1009.3460              1018.8539
 Red. masses --      3.0667                 1.1968                 1.2144
 Frc consts  --      1.8254                 0.7184                 0.7427
 IR Inten    --     21.6480                 0.0077                 2.7449

                     22                     23                     24
                      A                      A                      A
 Frequencies --   1024.4102              1062.1296              1070.1875
 Red. masses --      1.4147                 2.0338                 1.4955
 Frc consts  --      0.8747                 1.3518                 1.0091
 IR Inten    --     14.2510                 2.8614                 0.0286

                     25                     26                     27
                      A                      A                      A
 Frequencies --   1087.1264              1140.3061              1154.8505
 Red. masses --      1.4321                 2.3034                 1.6335
 Frc consts  --      0.9972                 1.7647                 1.2836
 IR Inten    --      0.5757                25.2017                 0.7133

                     28                     29                     30
                      A                      A                      A
 Frequencies --   1163.4274              1188.3587              1204.5243
 Red. masses --      2.6900                 1.4214                 2.2931
 Frc consts  --      2.1453                 1.1827                 1.9602
 IR Inten    --      6.7749                 2.2791                21.8237

                     31                     32                     33
                      A                      A                      A
 Frequencies --   1237.5284              1249.4126              1277.8916
 Red. masses --      1.5548                 2.2843                 2.9153
 Frc consts  --      1.4029                 2.1010                 2.8049
 IR Inten    --      5.5651                15.7532                37.4917

                     34                     35                     36
                      A                      A                      A
 Frequencies --   1396.2189              1408.4935              1441.5378
 Red. masses --      1.1755                 1.2287                 1.2458
 Frc consts  --      1.3502                 1.4362                 1.5253
 IR Inten    --     81.7636                 1.3832                21.2348

                     37                     38                     39
                      A                      A                      A
 Frequencies --   1458.9933              1494.9176              1510.5709
 Red. masses --      1.3827                 1.0534                 1.0466
 Frc consts  --      1.7342                 1.3870                 1.4071
 IR Inten    --     47.5812                 8.4212                 3.7081

                     40                     41                     42
                      A                      A                      A
 Frequencies --   1549.2304              1783.8616              3007.1886
 Red. masses --      1.1117                10.2887                 1.0865
 Frc consts  --      1.5721                19.2900                 5.7891
 IR Inten    --      1.8337               183.9805                36.3701

                     43                     44                     45
                      A                      A                      A
 Frequencies --   3018.7753              3035.0034              3080.9439
 Red. masses --      1.0780                 1.0490                 1.0994
 Frc consts  --      5.7878                 5.6932                 6.1487
 IR Inten    --     35.8676                53.2791                23.8090

                     46                     47                     48
                      A                      A                      A
 Frequencies --   3088.1448              3097.7257              3106.0518
 Red. masses --      1.0634                 1.0894                 1.0889
 Frc consts  --      5.9750                 6.1594                 6.1897
 IR Inten    --     29.3840                90.8463                15.0382

                     49                     50                     51
                      A                      A                      A
 Frequencies --   3154.6949              3198.3322              3641.0552
 Red. masses --      1.1050                 1.0928                 1.0645
 Frc consts  --      6.4795                 6.5862                 8.3147
 IR Inten    --     41.0093                 2.6255               111.3512

 - Thermochemistry -
 -------------------
 Temperature   298.150 Kelvin.  Pressure   1.00000 Atm.
 Atom     1 has atomic number  6 and mass  12.00000

 Molecular mass:   126.06808 amu.
 Principal axes and moments of inertia in atomic units:
                           1         2         3
     Eigenvalues --   604.082441267.762661647.46641
           X            0.99938  -0.03516   0.00000
           Y            0.03516   0.99938   0.00000
           Z            0.00000   0.00000   1.00000
 This molecule is an asymmetric top.
 Rotational symmetry number  1.
 Warning -- assumption of classical behavior for rotation
           may cause significant error
 Rotational temperatures (Kelvin)      0.14338     0.06832     0.05257
 Rotational constants (GHZ):           2.98757     1.42356     1.09546
 Zero-point vibrational energy     416300.2 (Joules/Mol)
                                   99.49815 (Kcal/Mol)
 Warning -- explicit consideration of  11 degrees of freedom as
           vibrations may cause significant error
 Vibrational temperatures:    133.08   200.13   270.37   351.59   442.27
          (Kelvin)            511.75   576.18   585.63   696.44   768.58
                              795.64   912.74  1071.04  1112.06  1125.95
                             1202.59  1258.84  1271.83  1446.14  1452.22
                             1465.90  1473.90  1528.17  1539.76  1564.13
                             1640.64  1661.57  1673.91  1709.78  1733.04
                             1780.53  1797.62  1838.60  2008.85  2026.51
                             2074.05  2099.16  2150.85  2173.37  2228.99
                             2566.58  4326.67  4343.34  4366.69  4432.79
                             4443.15  4456.93  4468.91  4538.90  4601.68
                             5238.66

 Zero-point correction=                           0.158560 (Hartree/Particle)
 Thermal correction to Energy=                    0.166874
 Thermal correction to Enthalpy=                  0.167818
 Thermal correction to Gibbs Free Energy=         0.125869
 Sum of electronic and zero-point Energies=           -422.979353
 Sum of electronic and thermal Energies=              -422.971040
 Sum of electronic and thermal Enthalpies=            -422.970096
 Sum of electronic and thermal Free Energies=         -423.012045

                     E (Thermal)             CV                S
                      KCal/Mol        Cal/Mol-Kelvin    Cal/Mol-Kelvin
 Total                  104.715             32.563             88.290
 Electronic               0.000              0.000              0.000
 Translational            0.889              2.981             40.409
 Rotational               0.889              2.981             28.625
 Vibrational            102.937             26.601             19.257
 Vibration     1          0.602              1.955              3.607
 Vibration     2          0.615              1.914              2.816
 Vibration     3          0.633              1.856              2.248
 Vibration     4          0.660              1.772              1.771
 Vibration     5          0.697              1.660              1.376
 Vibration     6          0.731              1.564              1.141
 Vibration     7          0.766              1.469              0.961
 Vibration     8          0.772              1.455              0.937
 Vibration     9          0.840              1.285              0.699
 Vibration    10          0.889              1.174              0.578
 Vibration    11          0.908              1.133              0.538

 Optimization completed.
    -- Stationary point found.
 Normal termination of Gaussian 09 at Tue Jan 28 00:00:44 2020.
