 Gaussian 09, Revision D.01,
 Gaussian 09:  ES64L-G09RevD.01 24-Apr-2013

 -----------------------------
 # b3lyp 6-31G(2df,p) opt Freq
 -----------------------------

 -----
 titel
 -----
 Symbolic Z-matrix:
 Charge =  0 Multiplicity = 1

 SCF Done:  E(RB3LYP) =  -423.194864875     A.U. after   14 cycles
 Optimization completed.
    -- Stationary point found.
 Normal termination of Gaussian 09 at Mon Jan 27 16:01:31 2020.

 ----------------------------------------------------------------------
 #N Geom=AllCheck Guess=TCheck SCRF=Check GenChk RB3LYP/6-31G(2df,p) Fr
 eq
 ----------------------------------------------------------------------

 Structure from the checkpoint file:  "/scratch/puck/g09_4738aeee-1d8f-43d0-9280-2a0787128b62/Gau-62253.chk"
 -----
 titel
 -----
 Charge =  0 Multiplicity = 1

                         Standard orientation:
 ---------------------------------------------------------------------
 Center     Atomic      Atomic             Coordinates (Angstroms)
 Number     Number       Type             X           Y           Z
 ---------------------------------------------------------------------
      1          6           0       -1.024550   -1.550491   -0.939568
      2          6           0       -1.020871   -0.324336   -0.046393
      3          6           0       -2.381628    0.337844    0.095269
      4          6           0       -0.150413   -0.222004    1.163284
      5          8           0        1.071599   -0.986511    0.983396
      6          6           0        1.444389   -0.143210   -0.058468
      7          8           0        2.474159   -0.142580   -0.651565
      8          6           0        0.175976    0.674946   -0.014852
      9          6           0        0.129686    2.149590   -0.296146
     10          1           0       -1.291339   -1.276067   -1.965623
     11          1           0       -0.055407   -2.051049   -0.958946
     12          1           0       -1.767551   -2.273326   -0.584433
     13          1           0       -3.122819   -0.405978    0.405559
     14          1           0       -2.382425    1.138044    0.840836
     15          1           0       -2.715772    0.763342   -0.857020
     16          1           0       -0.442599   -0.000676    2.181448
     17          1           0        0.384251    2.338898   -1.344266
     18          1           0       -0.860068    2.572434   -0.112102
     19          1           0        0.852127    2.693061    0.321143
 ---------------------------------------------------------------------

 SCF Done:  E(RB3LYP) =  -423.194864875     A.U. after    1 cycles

 The electronic state is 1-A.
 Alpha  occ. eigenvalues --  -19.17383 -19.13353 -10.30510 -10.25654 -10.22781
 Alpha  occ. eigenvalues --  -10.21787 -10.19790 -10.19666 -10.18625  -1.10521
 Alpha  occ. eigenvalues --   -1.03308  -0.87419  -0.76285  -0.71872  -0.70604
 Alpha  occ. eigenvalues --   -0.64900  -0.57625  -0.51672  -0.49732  -0.49353
 Alpha  occ. eigenvalues --   -0.46768  -0.44853  -0.42852  -0.41626  -0.41114
 Alpha  occ. eigenvalues --   -0.40466  -0.40133  -0.39575  -0.36926  -0.36349
 Alpha  occ. eigenvalues --   -0.34049  -0.28576  -0.27112  -0.26700
 Alpha virt. eigenvalues --    0.00525   0.07620   0.09510   0.11080   0.11266
 Alpha virt. eigenvalues --    0.12051   0.12699   0.14155   0.15391   0.15834
 Alpha virt. eigenvalues --    0.17644   0.17959   0.19529   0.19850   0.20793

 Mulliken charges:
               1
     1  C   -0.466654
     2  C    0.236479
     3  C   -0.461982
     4  C    0.006974
     5  O   -0.265843
     6  C    0.424438
     7  O   -0.332097
     8  C    0.052497
     9  C   -0.501600
    10  H    0.123543
    11  H    0.149926
    12  H    0.120959
    13  H    0.129092
    14  H    0.122876
    15  H    0.130847
    16  H    0.122738
    17  H    0.143675
    18  H    0.127779
    19  H    0.136354
 Sum of Mulliken charges =   0.00000

 Dipole moment (field-independent basis, Debye):
    X=             -4.0479    Y=              1.4718    Z=              0.6362  Tot=              4.3539
 Quadrupole moment (field-independent basis, Debye-Ang):
   XX=            -60.0973   YY=            -52.3279   ZZ=            -52.2908
   XY=              2.1335   XZ=              1.2262   YZ=              1.3927

  Exact polarizability:  86.633   2.510  73.701  -3.300  -0.752  67.292
 Approx polarizability: 127.246   3.499 103.789 -10.250  -6.241 108.314

                      1                      2                      3
                      A                      A                      A
 Frequencies --    121.2714               130.2378               179.2154
 Red. masses --      1.1297                 3.7175                 2.2481
 Frc consts  --      0.0098                 0.0372                 0.0425
 IR Inten    --      0.1979                 2.1409                 0.3305

                      4                      5                      6
                      A                      A                      A
 Frequencies --    188.9532               213.1920               256.9922
 Red. masses --      1.1208                 1.4550                 3.5284
 Frc consts  --      0.0236                 0.0390                 0.1373
 IR Inten    --      0.2223                 0.0735                 1.0571

                      7                      8                      9
                      A                      A                      A
 Frequencies --    280.2576               303.9019               354.4589
 Red. masses --      1.8100                 3.3604                 2.3408
 Frc consts  --      0.0838                 0.1829                 0.1733
 IR Inten    --      0.6778                 1.4634                 0.4025

                     10                     11                     12
                      A                      A                      A
 Frequencies --    409.0000               523.1922               535.8692
 Red. masses --      2.7612                 3.7437                 3.5635
 Frc consts  --      0.2721                 0.6038                 0.6029
 IR Inten    --      0.2384                 1.9722                 1.7127

                     13                     14                     15
                      A                      A                      A
 Frequencies --    641.6121               677.6709               738.1421
 Red. masses --      5.0219                 5.1215                 3.9822
 Frc consts  --      1.2180                 1.3858                 1.2783
 IR Inten    --      0.4761                 2.0909                 0.8596

                     16                     17                     18
                      A                      A                      A
 Frequencies --    785.9015               857.7944               909.6137
 Red. masses --      6.8091                 3.0584                 2.1645
 Frc consts  --      2.4779                 1.3259                 1.0551
 IR Inten    --     15.2707                24.5809                 4.1632

                     19                     20                     21
                      A                      A                      A
 Frequencies --    921.9670               973.6780               976.9568
 Red. masses --      3.2193                 1.4263                 1.9610
 Frc consts  --      1.6123                 0.7967                 1.1028
 IR Inten    --     46.5908                 1.2160                26.8334

                     22                     23                     24
                      A                      A                      A
 Frequencies --   1013.2366              1031.8488              1067.9892
 Red. masses --      1.6209                 1.4311                 2.7049
 Frc consts  --      0.9804                 0.8978                 1.8177
 IR Inten    --     13.4316                 7.3085                51.2559

                     25                     26                     27
                      A                      A                      A
 Frequencies --   1106.3467              1140.8012              1168.2216
 Red. masses --      1.7261                 1.8412                 2.1146
 Frc consts  --      1.2448                 1.4118                 1.7003
 IR Inten    --      1.6822                14.6327                 4.0971

                     28                     29                     30
                      A                      A                      A
 Frequencies --   1216.1194              1272.7395              1313.1737
 Red. masses --      2.8468                 2.2459                 3.8198
 Frc consts  --      2.4806                 2.1434                 3.8809
 IR Inten    --     19.0722                15.8990                 1.3892

                     31                     32                     33
                      A                      A                      A
 Frequencies --   1406.0572              1415.9047              1428.7610
 Red. masses --      1.3408                 1.2427                 1.5569
 Frc consts  --      1.5618                 1.4678                 1.8725
 IR Inten    --      2.5724                 3.4502                 1.3761

                     34                     35                     36
                      A                      A                      A
 Frequencies --   1433.7864              1481.4848              1485.4440
 Red. masses --      2.1104                 1.0494                 1.0666
 Frc consts  --      2.5561                 1.3570                 1.3866
 IR Inten    --      3.0876                 0.9747                 4.9717

                     37                     38                     39
                      A                      A                      A
 Frequencies --   1490.4577              1496.5233              1505.0966
 Red. masses --      1.0466                 1.0463                 1.0582
 Frc consts  --      1.3698                 1.3807                 1.4124
 IR Inten    --      0.8873                 8.3720                 4.7683

                     40                     41                     42
                      A                      A                      A
 Frequencies --   1515.3141              1932.8044              3033.3985
 Red. masses --      1.1251                12.8816                 1.0361
 Frc consts  --      1.5221                28.3527                 5.6173
 IR Inten    --      4.6221               438.2011                13.2385

                     43                     44                     45
                      A                      A                      A
 Frequencies --   3037.4580              3042.0036              3093.6341
 Red. masses --      1.0380                 1.0371                 1.1008
 Frc consts  --      5.6426                 5.6543                 6.2069
 IR Inten    --     36.1591                19.6494                 8.7203

                     46                     47                     48
                      A                      A                      A
 Frequencies --   3099.2488              3100.0241              3109.7421
 Red. masses --      1.1011                 1.1010                 1.1012
 Frc consts  --      6.2317                 6.2340                 6.2745
 IR Inten    --      8.5128                27.8795                23.6212

                     49                     50                     51
                      A                      A                      A
 Frequencies --   3128.9443              3139.7445              3207.1151
 Red. masses --      1.0987                 1.0978                 1.0944
 Frc consts  --      6.3377                 6.3761                 6.6322
 IR Inten    --     11.6760                 8.6658                 5.8504

 - Thermochemistry -
 -------------------
 Temperature   298.150 Kelvin.  Pressure   1.00000 Atm.
 Atom     1 has atomic number  6 and mass  12.00000

 Molecular mass:   126.06808 amu.
 Principal axes and moments of inertia in atomic units:
                           1         2         3
     Eigenvalues --   733.467861170.188771449.06226
           X            0.99969   0.02311   0.00929
           Y           -0.02348   0.99882   0.04241
           Z           -0.00830  -0.04262   0.99906
 This molecule is an asymmetric top.
 Rotational symmetry number  1.
 Warning -- assumption of classical behavior for rotation
           may cause significant error
 Rotational temperatures (Kelvin)      0.11809     0.07402     0.05977
 Rotational constants (GHZ):           2.46056     1.54227     1.24545
 Zero-point vibrational energy     412073.5 (Joules/Mol)
                                   98.48792 (Kcal/Mol)
 Warning -- explicit consideration of  12 degrees of freedom as
           vibrations may cause significant error
 Vibrational temperatures:    174.48   187.38   257.85   271.86   306.74
          (Kelvin)            369.75   403.23   437.25   509.99   588.46
                              752.76   771.00   923.14   975.02  1062.02
                             1130.74  1234.17  1308.73  1326.50  1400.90
                             1405.62  1457.82  1484.60  1536.60  1591.78
                             1641.36  1680.81  1749.72  1831.19  1889.36
                             2023.00  2037.17  2055.67  2062.90  2131.52
                             2137.22  2144.43  2153.16  2165.50  2180.20
                             2780.87  4364.38  4370.22  4376.76  4451.04
                             4459.12  4460.24  4474.22  4501.85  4517.39
                             4614.32

 Zero-point correction=                           0.156950 (Hartree/Particle)
 Thermal correction to Energy=                    0.166214
 Thermal correction to Enthalpy=                  0.167159
 Thermal correction to Gibbs Free Energy=         0.123462
 Sum of electronic and zero-point Energies=           -423.037914
 Sum of electronic and thermal Energies=              -423.028651
 Sum of electronic and thermal Enthalpies=            -423.027706
 Sum of electronic and thermal Free Energies=         -423.071403

                     E (Thermal)             CV                S
                      KCal/Mol        Cal/Mol-Kelvin    Cal/Mol-Kelvin
 Total                  104.301             34.580             91.967
 Electronic               0.000              0.000              0.000
 Translational            0.889              2.981             40.409
 Rotational               0.889              2.981             28.610
 Vibrational            102.524             28.618             22.948
 Vibration     1          0.609              1.931              3.080
 Vibration     2          0.612              1.923              2.943
 Vibration     3          0.629              1.868              2.337
 Vibration     4          0.633              1.855              2.238
 Vibration     5          0.644              1.821              2.016
 Vibration     6          0.667              1.751              1.682
 Vibration     7          0.680              1.710              1.532
 Vibration     8          0.695              1.666              1.395
 Vibration     9          0.730              1.566              1.146
 Vibration    10          0.773              1.451              0.930
 Vibration    11          0.878              1.199              0.603
 Vibration    12          0.891              1.171              0.574

 Normal termination of Gaussian 09 at Mon Jan 27 16:47:23 2020.
