 Gaussian 09, Revision D.01,
 Gaussian 09:  ES64L-G09RevD.01 24-Apr-2013

 -----------------------------
 # b3lyp 6-31G(2df,p) opt Freq
 -----------------------------

 -----
 titel
 -----
 Symbolic Z-matrix:
 Charge =  0 Multiplicity = 1

 SCF Done:  E(RB3LYP) =  -423.169057609     A.U. after   13 cycles
 Optimization completed.
    -- Stationary point found.
 Normal termination of Gaussian 09 at Mon Jan 27 12:18:02 2020.

 ----------------------------------------------------------------------
 #N Geom=AllCheck Guess=TCheck SCRF=Check GenChk RB3LYP/6-31G(2df,p) Fr
 eq
 ----------------------------------------------------------------------

 Structure from the checkpoint file:  "/scratch/puck/g09_40a86885-ae8a-4aaa-8501-67ec16f433a7/Gau-35492.chk"
 -----
 titel
 -----
 Charge =  0 Multiplicity = 1

                         Standard orientation:
 ---------------------------------------------------------------------
 Center     Atomic      Atomic             Coordinates (Angstroms)
 Number     Number       Type             X           Y           Z
 ---------------------------------------------------------------------
      1          6           0       -2.129527   -0.820674    0.173566
      2          6           0       -2.290256    0.708054   -0.127094
      3          6           0       -0.775865    0.775356   -0.175998
      4          6           0        0.175110    1.625776    0.179086
      5          6           0        1.623987    1.199081    0.233381
      6          8           0        1.884947    0.049890   -0.564839
      7          6           0        1.616257   -1.194342    0.017561
      8          8           0        0.300314   -1.342818    0.497064
      9          6           0       -0.665349   -0.730380   -0.332031
     10          1           0       -2.141089   -1.023925    1.246172
     11          1           0       -2.796650   -1.514619   -0.341056
     12          1           0       -2.759912    0.886008   -1.100660
     13          1           0       -2.800402    1.321669    0.619206
     14          1           0       -0.047684    2.651303    0.465832
     15          1           0        2.266714    1.992824   -0.165235
     16          1           0        1.940616    1.024388    1.275608
     17          1           0        1.833814   -1.918045   -0.781664
     18          1           0        2.259383   -1.389833    0.888785
     19          1           0       -0.563024   -1.063568   -1.375614
 ---------------------------------------------------------------------

 SCF Done:  E(RB3LYP) =  -423.169057608     A.U. after    1 cycles

 The electronic state is 1-A.
 Alpha  occ. eigenvalues --  -19.14428 -19.14093 -10.27150 -10.23381 -10.23078
 Alpha  occ. eigenvalues --  -10.18926 -10.18545 -10.18119 -10.17704  -1.06754
 Alpha  occ. eigenvalues --   -1.00483  -0.84974  -0.76224  -0.70443  -0.66229
 Alpha  occ. eigenvalues --   -0.62363  -0.58217  -0.54412  -0.51136  -0.49169
 Alpha  occ. eigenvalues --   -0.47088  -0.46453  -0.43713  -0.43067  -0.40496
 Alpha  occ. eigenvalues --   -0.37761  -0.36160  -0.35046  -0.33527  -0.32702
 Alpha  occ. eigenvalues --   -0.29915  -0.27913  -0.25245  -0.23575
 Alpha virt. eigenvalues --    0.01463   0.10083   0.10734   0.11957   0.13207
 Alpha virt. eigenvalues --    0.14061   0.14870   0.15724   0.16470   0.17252
 Alpha virt. eigenvalues --    0.17962   0.18000   0.19068   0.20267   0.21641

 Mulliken charges:
               1
     1  C   -0.259646
     2  C   -0.328566
     3  C    0.340762
     4  C   -0.247425
     5  C   -0.122911
     6  O   -0.233314
     7  C   -0.004562
     8  O   -0.255139
     9  C    0.079763
    10  H    0.121274
    11  H    0.101736
    12  H    0.113433
    13  H    0.113243
    14  H    0.088298
    15  H    0.116307
    16  H    0.104749
    17  H    0.098251
    18  H    0.096704
    19  H    0.077043
 Sum of Mulliken charges =   0.00000

 Dipole moment (field-independent basis, Debye):
    X=             -0.5215    Y=              0.5941    Z=              0.2334  Tot=              0.8243
 Quadrupole moment (field-independent basis, Debye-Ang):
   XX=            -50.8066   YY=            -51.5438   ZZ=            -53.9283
   XY=             -0.0234   XZ=              2.5026   YZ=              2.5220

  Exact polarizability:  94.430   4.787  81.754   4.794   4.728  59.851
 Approx polarizability: 125.819  12.265 117.834   7.899   7.207  96.185

                      1                      2                      3
                      A                      A                      A
 Frequencies --    117.1672               203.5219               222.4349
 Red. masses --      2.1625                 3.4787                 2.7914
 Frc consts  --      0.0175                 0.0849                 0.0814
 IR Inten    --      2.6411                 2.5853                 6.1932

                      4                      5                      6
                      A                      A                      A
 Frequencies --    295.6627               316.4338               341.9865
 Red. masses --      3.3333                 2.9076                 3.2042
 Frc consts  --      0.1717                 0.1715                 0.2208
 IR Inten    --      2.2185                 6.6206                 0.0487

                      7                      8                      9
                      A                      A                      A
 Frequencies --    381.9339               487.6959               626.8157
 Red. masses --      2.7171                 4.2596                 3.2885
 Frc consts  --      0.2335                 0.5969                 0.7612
 IR Inten    --      1.1532                 1.4633                 3.9310

                     10                     11                     12
                      A                      A                      A
 Frequencies --    680.3928               699.4771               759.1366
 Red. masses --      4.6022                 1.9495                 1.8935
 Frc consts  --      1.2553                 0.5620                 0.6429
 IR Inten    --      4.2596                 4.6845                 1.1145

                     13                     14                     15
                      A                      A                      A
 Frequencies --    797.7704               844.9411               902.0430
 Red. masses --      2.0873                 1.4200                 2.6486
 Frc consts  --      0.7827                 0.5973                 1.2698
 IR Inten    --      2.0829                 6.6784                10.3696

                     16                     17                     18
                      A                      A                      A
 Frequencies --    917.5356               949.3085              1001.9179
 Red. masses --      2.9324                 2.5838                 2.4301
 Frc consts  --      1.4545                 1.3719                 1.4373
 IR Inten    --      4.7692                 3.8252                 1.5523

                     19                     20                     21
                      A                      A                      A
 Frequencies --   1014.5857              1041.4698              1065.3419
 Red. masses --      2.4816                 2.3255                 2.2200
 Frc consts  --      1.5051                 1.4862                 1.4845
 IR Inten    --     20.5018                35.5095                21.7221

                     22                     23                     24
                      A                      A                      A
 Frequencies --   1094.2186              1117.4775              1118.5452
 Red. masses --      3.3125                 2.0038                 3.1812
 Frc consts  --      2.3367                 1.4743                 2.3450
 IR Inten    --     45.9410                 7.5745                58.8115

                     25                     26                     27
                      A                      A                      A
 Frequencies --   1167.7842              1171.0967              1193.0875
 Red. masses --      3.8593                 1.8153                 1.3405
 Frc consts  --      3.1009                 1.4669                 1.1242
 IR Inten    --    159.5373                27.5740                 3.3528

                     28                     29                     30
                      A                      A                      A
 Frequencies --   1228.4001              1258.3859              1264.4733
 Red. masses --      1.1588                 1.4053                 1.5095
 Frc consts  --      1.0303                 1.3112                 1.4220
 IR Inten    --      1.9529                 1.1934                 5.8096

                     31                     32                     33
                      A                      A                      A
 Frequencies --   1275.0260              1311.3561              1332.0901
 Red. masses --      1.2404                 1.1855                 1.5220
 Frc consts  --      1.1881                 1.2012                 1.5912
 IR Inten    --     46.2764                 6.1332                 1.7862

                     34                     35                     36
                      A                      A                      A
 Frequencies --   1373.7495              1394.3051              1446.6076
 Red. masses --      1.3959                 1.2971                 1.2168
 Frc consts  --      1.5521                 1.4857                 1.5003
 IR Inten    --     12.9284                28.8796                 9.0410

                     37                     38                     39
                      A                      A                      A
 Frequencies --   1472.9789              1483.0475              1488.0820
 Red. masses --      1.0861                 1.0887                 1.1289
 Frc consts  --      1.3883                 1.4108                 1.4729
 IR Inten    --      1.8669                 3.2284                 2.9268

                     40                     41                     42
                      A                      A                      A
 Frequencies --   1512.7316              1776.8414              2963.1455
 Red. masses --      1.1011                 8.7474                 1.0696
 Frc consts  --      1.4845                16.2714                 5.5332
 IR Inten    --      0.1475                 1.9629                47.2044

                     43                     44                     45
                      A                      A                      A
 Frequencies --   2983.6949              2989.5887              3027.8282
 Red. masses --      1.0551                 1.0805                 1.1117
 Frc consts  --      5.5342                 5.6900                 6.0050
 IR Inten    --     96.0581                48.3177                49.0543

                     46                     47                     48
                      A                      A                      A
 Frequencies --   3044.7148              3051.2005              3075.3784
 Red. masses --      1.0620                 1.0911                 1.0583
 Frc consts  --      5.8003                 5.9849                 5.8974
 IR Inten    --     33.1010                35.1345                34.8169

                     49                     50                     51
                      A                      A                      A
 Frequencies --   3099.5159              3137.5833              3151.8911
 Red. masses --      1.1025                 1.1088                 1.0903
 Frc consts  --      6.2407                 6.4314                 6.3820
 IR Inten    --     17.6767                26.1255                16.7328

 - Thermochemistry -
 -------------------
 Temperature   298.150 Kelvin.  Pressure   1.00000 Atm.
 Atom     1 has atomic number  6 and mass  12.00000

 Molecular mass:   126.06808 amu.
 Principal axes and moments of inertia in atomic units:
                           1         2         3
     Eigenvalues --   601.151301136.147311589.21037
           X            0.99994   0.00336   0.01079
           Y           -0.00362   0.99971   0.02371
           Z           -0.01071  -0.02375   0.99966
 This molecule is an asymmetric top.
 Rotational symmetry number  1.
 Warning -- assumption of classical behavior for rotation
           may cause significant error
 Rotational temperatures (Kelvin)      0.14408     0.07623     0.05450
 Rotational constants (GHZ):           3.00214     1.58847     1.13562
 Zero-point vibrational energy     422714.8 (Joules/Mol)
                                  101.03127 (Kcal/Mol)
 Warning -- explicit consideration of   8 degrees of freedom as
           vibrations may cause significant error
 Vibrational temperatures:    168.58   292.82   320.03   425.39   455.28
          (Kelvin)            492.04   549.52   701.68   901.85   978.93
                             1006.39  1092.23  1147.81  1215.68  1297.84
                             1320.13  1365.84  1441.53  1459.76  1498.44
                             1532.79  1574.33  1607.80  1609.34  1680.18
                             1684.94  1716.58  1767.39  1810.53  1819.29
                             1834.48  1886.75  1916.58  1976.52  2006.09
                             2081.34  2119.29  2133.77  2141.02  2176.48
                             2556.48  4263.30  4292.87  4301.35  4356.36
                             4380.66  4389.99  4424.78  4459.51  4514.28
                             4534.86

 Zero-point correction=                           0.161004 (Hartree/Particle)
 Thermal correction to Energy=                    0.168518
 Thermal correction to Enthalpy=                  0.169462
 Thermal correction to Gibbs Free Energy=         0.129194
 Sum of electronic and zero-point Energies=           -423.008054
 Sum of electronic and thermal Energies=              -423.000540
 Sum of electronic and thermal Enthalpies=            -422.999595
 Sum of electronic and thermal Free Energies=         -423.039864

                     E (Thermal)             CV                S
                      KCal/Mol        Cal/Mol-Kelvin    Cal/Mol-Kelvin
 Total                  105.747             29.749             84.752
 Electronic               0.000              0.000              0.000
 Translational            0.889              2.981             40.409
 Rotational               0.889              2.981             28.475
 Vibrational            103.969             23.787             15.868
 Vibration     1          0.608              1.935              3.147
 Vibration     2          0.639              1.835              2.101
 Vibration     3          0.648              1.807              1.939
 Vibration     4          0.690              1.682              1.441
 Vibration     5          0.703              1.642              1.328
 Vibration     6          0.721              1.592              1.203
 Vibration     7          0.751              1.509              1.031
 Vibration     8          0.844              1.277              0.690

 Optimization completed.
    -- Stationary point found.
 Normal termination of Gaussian 09 at Mon Jan 27 13:02:26 2020.
