 Gaussian 09, Revision D.01,
 Gaussian 09:  ES64L-G09RevD.01 24-Apr-2013

 -----------------------------
 # b3lyp 6-31G(2df,p) opt Freq
 -----------------------------

 -----
 titel
 -----
 Symbolic Z-matrix:
 Charge =  0 Multiplicity = 1

 SCF Done:  E(RB3LYP) =  -423.170349212     A.U. after   13 cycles
 Optimization completed.
    -- Stationary point found.
 Normal termination of Gaussian 09 at Mon Jan 27 23:06:53 2020.

 ----------------------------------------------------------------------
 #N Geom=AllCheck Guess=TCheck SCRF=Check GenChk RB3LYP/6-31G(2df,p) Fr
 eq
 ----------------------------------------------------------------------

 Structure from the checkpoint file:  "/scratch/puck/g09_13e34407-a738-4bf3-a9f7-a58066128297/Gau-79628.chk"
 -----
 titel
 -----
 Charge =  0 Multiplicity = 1

                         Standard orientation:
 ---------------------------------------------------------------------
 Center     Atomic      Atomic             Coordinates (Angstroms)
 Number     Number       Type             X           Y           Z
 ---------------------------------------------------------------------
      1          8           0       -2.218538   -1.052455   -0.601940
      2          6           0       -0.958735   -0.424758   -0.579500
      3          6           0       -0.947050    1.094604   -0.188777
      4          6           0       -0.827764    0.619851    1.295851
      5          6           0       -0.124849   -0.646690    0.719523
      6          6           0        1.364096   -0.347720    0.457341
      7          8           0        2.010323   -1.414214   -0.234376
      8          6           0        1.493651    0.967413   -0.283609
      9          6           0        0.393526    1.653288   -0.604332
     10          1           0       -2.605035   -1.016059    0.278973
     11          1           0       -0.492840   -0.669246   -1.538578
     12          1           0       -1.797551    1.706732   -0.491468
     13          1           0       -0.258091    1.257234    1.975987
     14          1           0       -1.796045    0.393457    1.753466
     15          1           0       -0.241161   -1.606906    1.228766
     16          1           0        1.895172   -0.297254    1.417165
     17          1           0        1.671312   -1.422081   -1.136374
     18          1           0        2.493066    1.301252   -0.545404
     19          1           0        0.439635    2.590297   -1.150985
 ---------------------------------------------------------------------

 SCF Done:  E(RB3LYP) =  -423.170349212     A.U. after    1 cycles

 The electronic state is 1-A.
 Alpha  occ. eigenvalues --  -19.14195 -19.13421 -10.23576 -10.23575 -10.19337
 Alpha  occ. eigenvalues --  -10.19243 -10.19069 -10.18929 -10.18130  -1.02712
 Alpha  occ. eigenvalues --   -1.01575  -0.86950  -0.75914  -0.72065  -0.66475
 Alpha  occ. eigenvalues --   -0.61016  -0.58956  -0.55016  -0.51756  -0.48937
 Alpha  occ. eigenvalues --   -0.46137  -0.43739  -0.42792  -0.42077  -0.41038
 Alpha  occ. eigenvalues --   -0.38994  -0.37697  -0.34817  -0.33423  -0.31471
 Alpha  occ. eigenvalues --   -0.30441  -0.27431  -0.26614  -0.23693
 Alpha virt. eigenvalues --    0.00261   0.06668   0.08324   0.09527   0.12689
 Alpha virt. eigenvalues --    0.13069   0.14285   0.15310   0.16753   0.18143
 Alpha virt. eigenvalues --    0.18285   0.19517   0.20569   0.21402   0.24609

 Mulliken charges:
               1
     1  O   -0.457827
     2  C    0.183520
     3  C   -0.096609
     4  C   -0.264805
     5  C   -0.093561
     6  C    0.110685
     7  O   -0.440520
     8  C   -0.127408
     9  C   -0.060069
    10  H    0.281783
    11  H    0.068542
    12  H    0.066755
    13  H    0.104542
    14  H    0.090219
    15  H    0.071113
    16  H    0.091502
    17  H    0.278204
    18  H    0.097366
    19  H    0.096570
 Sum of Mulliken charges =   0.00000

 Dipole moment (field-independent basis, Debye):
    X=             -0.6829    Y=              1.5162    Z=              0.6891  Tot=              1.8001
 Quadrupole moment (field-independent basis, Debye-Ang):
   XX=            -56.2384   YY=            -55.1855   ZZ=            -51.0356
   XY=              1.4947   XZ=             -4.7819   YZ=             -1.3306

  Exact polarizability:  85.189  -2.158  74.343  -1.376  -3.350  66.972
 Approx polarizability: 128.022  -9.165 112.141   2.242  -4.095 103.806

                      1                      2                      3
                      A                      A                      A
 Frequencies --    150.9780               196.7235               224.4094
 Red. masses --      4.9177                 3.3122                 1.1370
 Frc consts  --      0.0660                 0.0755                 0.0337
 IR Inten    --      2.9441                 8.5036                56.9284

                      4                      5                      6
                      A                      A                      A
 Frequencies --    289.9730               321.2287               345.9960
 Red. masses --      1.3647                 2.2128                 3.4056
 Frc consts  --      0.0676                 0.1345                 0.2402
 IR Inten    --     26.6984                72.6791                 5.8820

                      7                      8                      9
                      A                      A                      A
 Frequencies --    392.2645               415.7604               472.3052
 Red. masses --      2.1735                 4.0295                 4.6284
 Frc consts  --      0.1970                 0.4104                 0.6083
 IR Inten    --      2.2227                 5.6948                 1.0997

                     10                     11                     12
                      A                      A                      A
 Frequencies --    498.8852               616.7758               703.5137
 Red. masses --      4.0219                 3.4199                 3.0616
 Frc consts  --      0.5898                 0.7665                 0.8928
 IR Inten    --      1.6434                 1.7626                 2.5642

                     13                     14                     15
                      A                      A                      A
 Frequencies --    751.1905               828.6880               850.0730
 Red. masses --      1.7558                 2.5326                 2.1877
 Frc consts  --      0.5837                 1.0247                 0.9314
 IR Inten    --     15.5599                28.9325                 3.3390

                     16                     17                     18
                      A                      A                      A
 Frequencies --    892.2445               920.7102               938.1780
 Red. masses --      3.9901                 2.2161                 2.4334
 Frc consts  --      1.8716                 1.1068                 1.2619
 IR Inten    --     24.5075                 2.8226                 0.8667

                     19                     20                     21
                      A                      A                      A
 Frequencies --    952.6866               973.1304               987.9868
 Red. masses --      1.8848                 2.5074                 1.3633
 Frc consts  --      1.0079                 1.3990                 0.7841
 IR Inten    --      5.2710                 6.0127                 1.5988

                     22                     23                     24
                      A                      A                      A
 Frequencies --   1045.0597              1067.5520              1085.1704
 Red. masses --      3.7267                 1.5881                 2.1605
 Frc consts  --      2.3981                 1.0664                 1.4990
 IR Inten    --     85.0743                30.1618                28.5640

                     25                     26                     27
                      A                      A                      A
 Frequencies --   1112.6651              1113.9988              1138.2723
 Red. masses --      3.3253                 1.2783                 1.4439
 Frc consts  --      2.4255                 0.9346                 1.1022
 IR Inten    --     83.7903                 5.7899                 3.6120

                     28                     29                     30
                      A                      A                      A
 Frequencies --   1163.7320              1222.0419              1237.7944
 Red. masses --      1.1493                 1.3794                 1.4062
 Frc consts  --      0.9171                 1.2137                 1.2694
 IR Inten    --      7.4547                12.6803                53.3427

                     31                     32                     33
                      A                      A                      A
 Frequencies --   1254.1448              1266.8728              1276.3425
 Red. masses --      1.4475                 1.3836                 1.5256
 Frc consts  --      1.3414                 1.3083                 1.4643
 IR Inten    --     11.0169                10.3118                 0.8943

                     34                     35                     36
                      A                      A                      A
 Frequencies --   1300.7308              1333.5479              1352.0018
 Red. masses --      1.5297                 1.8023                 1.4602
 Frc consts  --      1.5249                 1.8884                 1.5726
 IR Inten    --      0.0612                 0.5599                 2.1949

                     37                     38                     39
                      A                      A                      A
 Frequencies --   1387.9439              1421.7595              1434.8179
 Red. masses --      1.4819                 1.2550                 1.2539
 Frc consts  --      1.6820                 1.4947                 1.5209
 IR Inten    --      3.5456                69.0924                72.3656

                     40                     41                     42
                      A                      A                      A
 Frequencies --   1502.2151              1687.4992              3019.5951
 Red. masses --      1.1046                 6.4856                 1.0836
 Frc consts  --      1.4687                10.8814                 5.8214
 IR Inten    --      2.8508                 2.8192                32.1234

                     43                     44                     45
                      A                      A                      A
 Frequencies --   3047.4678              3063.6144              3079.7335
 Red. masses --      1.0609                 1.0857                 1.0880
 Frc consts  --      5.8050                 6.0038                 6.0799
 IR Inten    --     40.8842                44.7890                37.8239

                     46                     47                     48
                      A                      A                      A
 Frequencies --   3102.8163              3107.3718              3164.5426
 Red. masses --      1.0895                 1.1039                 1.0848
 Frc consts  --      6.1799                 6.2803                 6.4007
 IR Inten    --     27.0351                33.0037                 7.9899

                     49                     50                     51
                      A                      A                      A
 Frequencies --   3187.8565              3800.2076              3817.6057
 Red. masses --      1.0998                 1.0659                 1.0655
 Frc consts  --      6.5848                 9.0693                 9.1494
 IR Inten    --     23.3012                11.2924                14.4714

 - Thermochemistry -
 -------------------
 Temperature   298.150 Kelvin.  Pressure   1.00000 Atm.
 Atom     1 has atomic number  8 and mass  15.99491

 Molecular mass:   126.06808 amu.
 Principal axes and moments of inertia in atomic units:
                           1         2         3
     Eigenvalues --   721.911571116.558561399.66011
           X            0.99975   0.00559  -0.02163
           Y           -0.00596   0.99984  -0.01712
           Z            0.02153   0.01724   0.99962
 This molecule is an asymmetric top.
 Rotational symmetry number  1.
 Warning -- assumption of classical behavior for rotation
           may cause significant error
 Rotational temperatures (Kelvin)      0.11998     0.07757     0.06188
 Rotational constants (GHZ):           2.49995     1.61634     1.28941
 Zero-point vibrational energy     421795.3 (Joules/Mol)
                                  100.81151 (Kcal/Mol)
 Warning -- explicit consideration of  11 degrees of freedom as
           vibrations may cause significant error
 Vibrational temperatures:    217.22   283.04   322.87   417.21   462.18
          (Kelvin)            497.81   564.38   598.19   679.54   717.78
                              887.40  1012.20  1080.79  1192.30  1223.06
                             1283.74  1324.69  1349.83  1370.70  1400.12
                             1421.49  1503.61  1535.97  1561.32  1600.87
                             1602.79  1637.72  1674.35  1758.24  1780.91
                             1804.43  1822.75  1836.37  1871.46  1918.68
                             1945.23  1996.94  2045.59  2064.38  2161.35
                             2427.93  4344.52  4384.62  4407.85  4431.04
                             4464.26  4470.81  4553.07  4586.61  5467.64
                             5492.68

 Zero-point correction=                           0.160653 (Hartree/Particle)
 Thermal correction to Energy=                    0.168559
 Thermal correction to Enthalpy=                  0.169503
 Thermal correction to Gibbs Free Energy=         0.128783
 Sum of electronic and zero-point Energies=           -423.009696
 Sum of electronic and thermal Energies=              -423.001790
 Sum of electronic and thermal Enthalpies=            -423.000846
 Sum of electronic and thermal Free Energies=         -423.041566

                     E (Thermal)             CV                S
                      KCal/Mol        Cal/Mol-Kelvin    Cal/Mol-Kelvin
 Total                  105.772             31.939             85.702
 Electronic               0.000              0.000              0.000
 Translational            0.889              2.981             40.409
 Rotational               0.889              2.981             28.513
 Vibrational            103.995             25.977             16.780
 Vibration     1          0.618              1.902              2.660
 Vibration     2          0.636              1.844              2.164
 Vibration     3          0.649              1.804              1.923
 Vibration     4          0.686              1.692              1.474
 Vibration     5          0.707              1.633              1.304
 Vibration     6          0.724              1.583              1.184
 Vibration     7          0.760              1.487              0.992
 Vibration     8          0.779              1.436              0.906
 Vibration     9          0.829              1.311              0.731
 Vibration    10          0.854              1.252              0.661
 Vibration    11          0.976              0.996              0.422

 Optimization completed.
    -- Stationary point found.
 Normal termination of Gaussian 09 at Mon Jan 27 23:54:20 2020.
