 Gaussian 09, Revision D.01,
 Gaussian 09:  ES64L-G09RevD.01 24-Apr-2013

 -----------------------------
 # b3lyp 6-31G(2df,p) opt Freq
 -----------------------------

 -----
 titel
 -----
 Symbolic Z-matrix:
 Charge =  0 Multiplicity = 1

 SCF Done:  E(RB3LYP) =  -423.133268269     A.U. after   14 cycles
 Optimization completed.
    -- Stationary point found.
 Normal termination of Gaussian 09 at Tue Jan 28 00:50:07 2020.

 ----------------------------------------------------------------------
 #N Geom=AllCheck Guess=TCheck SCRF=Check GenChk RB3LYP/6-31G(2df,p) Fr
 eq
 ----------------------------------------------------------------------

 Structure from the checkpoint file:  "/scratch/puck/g09_893e6b46-f1ea-4782-8d24-1bef07419b98/Gau-38628.chk"
 -----
 titel
 -----
 Charge =  0 Multiplicity = 1

                         Standard orientation:
 ---------------------------------------------------------------------
 Center     Atomic      Atomic             Coordinates (Angstroms)
 Number     Number       Type             X           Y           Z
 ---------------------------------------------------------------------
      1          8           0       -2.608565   -0.693363    0.362172
      2          6           0       -1.890280   -0.068226   -0.702454
      3          6           0       -0.477681   -0.682188   -0.895106
      4          6           0        0.048882    0.340532    0.161481
      5          8           0        0.047605   -0.181498    1.473210
      6          6           0        1.418163    0.982041   -0.069225
      7          6           0        2.506046    0.012115   -0.115188
      8          6           0        3.396760   -0.792170   -0.177146
      9          6           0       -1.221577    1.202679   -0.133112
     10          1           0       -2.817769   -1.593559    0.089634
     11          1           0       -2.527026    0.041173   -1.587992
     12          1           0       -0.349112   -1.740163   -0.652212
     13          1           0       -0.080281   -0.487670   -1.895503
     14          1           0       -0.831187   -0.558034    1.617369
     15          1           0        1.392770    1.548178   -1.008089
     16          1           0        1.594520    1.705433    0.736518
     17          1           0        4.186430   -1.500523   -0.216211
     18          1           0       -1.710724    1.662592    0.728091
     19          1           0       -1.051817    1.952764   -0.910162
 ---------------------------------------------------------------------

 SCF Done:  E(RB3LYP) =  -423.133268269     A.U. after    1 cycles

 The electronic state is 1-A.
 Alpha  occ. eigenvalues --  -19.15505 -19.12605 -10.24244 -10.24185 -10.20203
 Alpha  occ. eigenvalues --  -10.18222 -10.18138 -10.17417 -10.16248  -1.03791
 Alpha  occ. eigenvalues --   -1.01228  -0.83300  -0.77594  -0.70388  -0.67283
 Alpha  occ. eigenvalues --   -0.62213  -0.56420  -0.53020  -0.51802  -0.50065
 Alpha  occ. eigenvalues --   -0.46776  -0.45778  -0.42865  -0.40920  -0.40178
 Alpha  occ. eigenvalues --   -0.39337  -0.36620  -0.35439  -0.34095  -0.31040
 Alpha  occ. eigenvalues --   -0.27322  -0.25768  -0.25412  -0.25153
 Alpha virt. eigenvalues --    0.05130   0.06170   0.06991   0.10358   0.10684
 Alpha virt. eigenvalues --    0.12645   0.13385   0.14547   0.15301   0.16369
 Alpha virt. eigenvalues --    0.17215   0.18010   0.19137   0.19827   0.21542

 Mulliken charges:
               1
     1  O   -0.435568
     2  C    0.090411
     3  C   -0.295267
     4  C    0.434755
     5  O   -0.487015
     6  C   -0.403473
     7  C    0.325450
     8  C   -0.461858
     9  C   -0.277281
    10  H    0.287750
    11  H    0.070397
    12  H    0.102605
    13  H    0.104246
    14  H    0.280866
    15  H    0.120157
    16  H    0.138128
    17  H    0.192395
    18  H    0.113617
    19  H    0.099685
 Sum of Mulliken charges =   0.00000

 Dipole moment (field-independent basis, Debye):
    X=             -1.5951    Y=             -0.5421    Z=             -2.0125  Tot=              2.6246
 Quadrupole moment (field-independent basis, Debye-Ang):
   XX=            -52.9197   YY=            -47.3839   ZZ=            -55.0028
   XY=              2.0514   XZ=              0.7202   YZ=             -0.0456

  Exact polarizability:  93.453  -9.556  74.519  -0.140   0.373  63.307
 Approx polarizability: 123.135 -20.356 116.025  -2.066  -0.018  97.230

                      1                      2                      3
                      A                      A                      A
 Frequencies --     61.7164               101.7416               147.7941
 Red. masses --      3.9720                 4.3696                 3.6647
 Frc consts  --      0.0089                 0.0266                 0.0472
 IR Inten    --      1.2412                 0.0517                 1.6159

                      4                      5                      6
                      A                      A                      A
 Frequencies --    239.0993               305.1736               340.2125
 Red. masses --      4.3956                 3.4200                 3.4057
 Frc consts  --      0.1481                 0.1877                 0.2323
 IR Inten    --      4.8793                 1.8544                 0.4600

                      7                      8                      9
                      A                      A                      A
 Frequencies --    365.4343               371.6618               407.9576
 Red. masses --      1.6050                 2.1399                 2.6600
 Frc consts  --      0.1263                 0.1742                 0.2608
 IR Inten    --     49.9093                31.4458                 8.5936

                     10                     11                     12
                      A                      A                      A
 Frequencies --    431.4263               440.2127               493.9474
 Red. masses --      2.0011                 1.8422                 3.6746
 Frc consts  --      0.2194                 0.2103                 0.5282
 IR Inten    --      3.0998                 3.1499                 6.1551

                     13                     14                     15
                      A                      A                      A
 Frequencies --    542.4423               611.6305               636.7656
 Red. masses --      1.1389                 1.2031                 1.2677
 Frc consts  --      0.1974                 0.2652                 0.3029
 IR Inten    --    103.7578                42.0061                38.0422

                     16                     17                     18
                      A                      A                      A
 Frequencies --    713.4643               812.5309               852.3363
 Red. masses --      3.2128                 1.9739                 2.5585
 Frc consts  --      0.9636                 0.7678                 1.0951
 IR Inten    --     13.9107                 4.0556                 9.3015

                     19                     20                     21
                      A                      A                      A
 Frequencies --    867.4852               904.4642               931.8302
 Red. masses --      3.8582                 2.3054                 2.4762
 Frc consts  --      1.7106                 1.1112                 1.2668
 IR Inten    --      9.7468                16.8399                 4.1323

                     22                     23                     24
                      A                      A                      A
 Frequencies --    947.0950               969.7196               992.7889
 Red. masses --      2.4930                 2.2881                 2.5320
 Frc consts  --      1.3175                 1.2677                 1.4704
 IR Inten    --      8.2496                11.0378                34.0429

                     25                     26                     27
                      A                      A                      A
 Frequencies --   1037.2273              1076.8443              1121.3974
 Red. masses --      1.6723                 1.5875                 2.0761
 Frc consts  --      1.0600                 1.0846                 1.5382
 IR Inten    --      7.5806                 7.3732                 1.9083

                     28                     29                     30
                      A                      A                      A
 Frequencies --   1158.3272              1184.1669              1201.5663
 Red. masses --      1.6964                 1.6092                 1.3450
 Frc consts  --      1.3410                 1.3295                 1.1441
 IR Inten    --     35.9217                63.6355                 5.7436

                     31                     32                     33
                      A                      A                      A
 Frequencies --   1236.1310              1268.2449              1305.5735
 Red. masses --      1.3412                 1.5551                 1.6060
 Frc consts  --      1.2075                 1.4737                 1.6128
 IR Inten    --     42.6784                 6.3647                21.1597

                     34                     35                     36
                      A                      A                      A
 Frequencies --   1319.0303              1337.1677              1404.1369
 Red. masses --      1.5290                 1.4573                 1.4054
 Frc consts  --      1.5674                 1.5353                 1.6325
 IR Inten    --     42.6767                17.9951                 5.6494

                     37                     38                     39
                      A                      A                      A
 Frequencies --   1437.8629              1447.0897              1455.8476
 Red. masses --      1.5713                 1.1051                 1.0939
 Frc consts  --      1.9140                 1.3634                 1.3660
 IR Inten    --     85.9614                 9.9046                 6.1268

                     40                     41                     42
                      A                      A                      A
 Frequencies --   1475.2720              2240.1600              3026.6338
 Red. masses --      1.1776                 5.9319                 1.0584
 Frc consts  --      1.5101                17.5389                 5.7124
 IR Inten    --      9.5486                 2.3747                15.1494

                     43                     44                     45
                      A                      A                      A
 Frequencies --   3029.8377              3055.6728              3063.9315
 Red. masses --      1.0846                 1.0582                 1.0941
 Frc consts  --      5.8661                 5.8214                 6.0516
 IR Inten    --     64.7206                28.0358                 3.0604

                     46                     47                     48
                      A                      A                      A
 Frequencies --   3067.6487              3116.7939              3128.3388
 Red. masses --      1.0690                 1.1082                 1.1081
 Frc consts  --      5.9269                 6.3430                 6.3891
 IR Inten    --     23.5041                18.0170                15.6384

                     49                     50                     51
                      A                      A                      A
 Frequencies --   3508.1360              3750.1631              3804.5066
 Red. masses --      1.1621                 1.0656                 1.0660
 Frc consts  --      8.4263                 8.8295                 9.0911
 IR Inten    --     63.0896                68.5576                21.3414

 - Thermochemistry -
 -------------------
 Temperature   298.150 Kelvin.  Pressure   1.00000 Atm.
 Atom     1 has atomic number  8 and mass  15.99491

 Molecular mass:   126.06808 amu.
 Principal axes and moments of inertia in atomic units:
                           1         2         3
     Eigenvalues --   491.816381847.838151871.20463
           X            0.99999  -0.00234   0.00353
           Y            0.00214   0.99841   0.05634
           Z           -0.00365  -0.05633   0.99841
 This molecule is an asymmetric top.
 Rotational symmetry number  1.
 Warning -- assumption of classical behavior for rotation
           may cause significant error
 Rotational temperatures (Kelvin)      0.17611     0.04687     0.04629
 Rotational constants (GHZ):           3.66954     0.97668     0.96448
 Zero-point vibrational energy     411196.2 (Joules/Mol)
                                   98.27825 (Kcal/Mol)
 Warning -- explicit consideration of  14 degrees of freedom as
           vibrations may cause significant error
 Vibrational temperatures:     88.80   146.38   212.64   344.01   439.08
          (Kelvin)            489.49   525.78   534.74   586.96   620.73
                              633.37   710.68   780.45   880.00   916.16
                             1026.51  1169.05  1226.32  1248.12  1301.32
                             1340.69  1362.66  1395.21  1428.40  1492.34
                             1549.34  1613.44  1666.57  1703.75  1728.78
                             1778.51  1824.72  1878.43  1897.79  1923.88
                             2020.24  2068.76  2082.04  2094.64  2122.58
                             3223.09  4354.65  4359.26  4396.43  4408.31
                             4413.66  4484.37  4500.98  5047.42  5395.64
                             5473.83

 Zero-point correction=                           0.156616 (Hartree/Particle)
 Thermal correction to Energy=                    0.165939
 Thermal correction to Enthalpy=                  0.166883
 Thermal correction to Gibbs Free Energy=         0.122671
 Sum of electronic and zero-point Energies=           -422.976652
 Sum of electronic and thermal Energies=              -422.967329
 Sum of electronic and thermal Enthalpies=            -422.966385
 Sum of electronic and thermal Free Energies=         -423.010597

                     E (Thermal)             CV                S
                      KCal/Mol        Cal/Mol-Kelvin    Cal/Mol-Kelvin
 Total                  104.128             36.033             93.053
 Electronic               0.000              0.000              0.000
 Translational            0.889              2.981             40.409
 Rotational               0.889              2.981             28.921
 Vibrational            102.351             30.072             23.723
 Vibration     1          0.597              1.973              4.402
 Vibration     2          0.604              1.948              3.421
 Vibration     3          0.617              1.905              2.700
 Vibration     4          0.657              1.781              1.810
 Vibration     5          0.696              1.664              1.388
 Vibration     6          0.720              1.595              1.211
 Vibration     7          0.739              1.543              1.099
 Vibration     8          0.743              1.530              1.073
 Vibration     9          0.773              1.453              0.934
 Vibration    10          0.792              1.402              0.854
 Vibration    11          0.800              1.382              0.826
 Vibration    12          0.850              1.263              0.673
 Vibration    13          0.898              1.156              0.560
 Vibration    14          0.971              1.007              0.430

 Optimization completed.
    -- Stationary point found.
 Normal termination of Gaussian 09 at Tue Jan 28 02:50:15 2020.
