 Gaussian 09, Revision D.01,
 Gaussian 09:  ES64L-G09RevD.01 24-Apr-2013

 -----------------------------
 # b3lyp 6-31G(2df,p) opt Freq
 -----------------------------

 -----
 titel
 -----
 Symbolic Z-matrix:
 Charge =  0 Multiplicity = 1

 SCF Done:  E(RB3LYP) =  -423.158342638     A.U. after   15 cycles
 Optimization completed.
    -- Stationary point found.
 Normal termination of Gaussian 09 at Tue Jan 28 12:07:50 2020.

 ----------------------------------------------------------------------
 #N Geom=AllCheck Guess=TCheck SCRF=Check GenChk RB3LYP/6-31G(2df,p) Fr
 eq
 ----------------------------------------------------------------------

 Structure from the checkpoint file:  "/scratch/puck/g09_1eafcc4a-737b-4563-af84-3832eb5bae84/Gau-1514.chk"
 -----
 titel
 -----
 Charge =  0 Multiplicity = 1

                         Standard orientation:
 ---------------------------------------------------------------------
 Center     Atomic      Atomic             Coordinates (Angstroms)
 Number     Number       Type             X           Y           Z
 ---------------------------------------------------------------------
      1          6           0        4.014680   -0.173023    0.000023
      2          6           0        2.743396   -1.040920    0.000400
      3          6           0        1.511010   -0.267046    0.000238
      4          6           0        0.494618    0.385274    0.000080
      5          6           0       -0.685226    1.214167   -0.000008
      6          8           0       -0.636022    2.426696   -0.001448
      7          6           0       -2.042188    0.511736    0.002700
      8          8           0       -1.900939   -0.881378   -0.003406
      9          6           0       -3.136737   -1.557870    0.000156
     10          1           0        4.046580    0.468373   -0.884358
     11          1           0        4.046726    0.468935    0.883990
     12          1           0        4.905332   -0.807789    0.000153
     13          1           0        2.740949   -1.704580   -0.874121
     14          1           0        2.741114   -1.704085    0.875296
     15          1           0       -2.591895    0.865847    0.891464
     16          1           0       -2.599457    0.873188   -0.878245
     17          1           0       -3.739543   -1.310434   -0.887754
     18          1           0       -2.920838   -2.628604   -0.005075
     19          1           0       -3.730605   -1.317317    0.895956
 ---------------------------------------------------------------------

 SCF Done:  E(RB3LYP) =  -423.158342638     A.U. after    1 cycles

 The electronic state is 1-A.
 Alpha  occ. eigenvalues --  -19.14985 -19.12898 -10.28288 -10.23809 -10.23150
 Alpha  occ. eigenvalues --  -10.21933 -10.19929 -10.18961 -10.18018  -1.04935
 Alpha  occ. eigenvalues --   -1.03606  -0.80956  -0.76315  -0.73163  -0.66552
 Alpha  occ. eigenvalues --   -0.65228  -0.60741  -0.50499  -0.48797  -0.48715
 Alpha  occ. eigenvalues --   -0.47916  -0.46587  -0.43612  -0.42332  -0.40962
 Alpha  occ. eigenvalues --   -0.40431  -0.37961  -0.37395  -0.36499  -0.33105
 Alpha  occ. eigenvalues --   -0.27519  -0.27122  -0.26223  -0.25419
 Alpha virt. eigenvalues --   -0.04868   0.03918   0.08868   0.10219   0.10459
 Alpha virt. eigenvalues --    0.13660   0.14078   0.14440   0.14952   0.16229
 Alpha virt. eigenvalues --    0.16470   0.16622   0.18714   0.19505   0.21002

 Mulliken charges:
               1
     1  C   -0.368180
     2  C   -0.323946
     3  C    0.037295
     4  C    0.117367
     5  C    0.169652
     6  O   -0.288277
     7  C   -0.151763
     8  O   -0.226264
     9  C   -0.230214
    10  H    0.135941
    11  H    0.135920
    12  H    0.119209
    13  H    0.142775
    14  H    0.142735
    15  H    0.119660
    16  H    0.119709
    17  H    0.108624
    18  H    0.131172
    19  H    0.108585
 Sum of Mulliken charges =   0.00000

 Dipole moment (field-independent basis, Debye):
    X=              0.1403    Y=             -3.0643    Z=              0.0105  Tot=              3.0675
 Quadrupole moment (field-independent basis, Debye-Ang):
   XX=            -39.3315   YY=            -59.4411   ZZ=            -52.2448
   XY=             -0.4995   XZ=             -0.0145   YZ=              0.0036

  Exact polarizability: 112.674 -13.606  84.505  -0.006  -0.009  56.948
 Approx polarizability: 143.640 -34.864 136.265  -0.008  -0.026  84.610

                      1                      2                      3
                      A                      A                      A
 Frequencies --     26.6159                31.2971                57.0711
 Red. masses --      1.9785                 2.2144                 4.2867
 Frc consts  --      0.0008                 0.0013                 0.0082
 IR Inten    --      8.7604                 0.0003                 1.9080

                      4                      5                      6
                      A                      A                      A
 Frequencies --     91.1079               128.5476               138.5342
 Red. masses --      3.3160                 2.6776                 4.0883
 Frc consts  --      0.0162                 0.0261                 0.0462
 IR Inten    --      0.0478                 0.1352                 0.7766

                      7                      8                      9
                      A                      A                      A
 Frequencies --    231.9171               233.7250               233.8442
 Red. masses --      1.2980                 1.3337                 2.8427
 Frc consts  --      0.0411                 0.0429                 0.0916
 IR Inten    --      0.1743                 2.8444                 3.8740

                     10                     11                     12
                      A                      A                      A
 Frequencies --    377.9329               396.2692               409.7816
 Red. masses --      4.0926                 3.2455                 7.0944
 Frc consts  --      0.3444                 0.3003                 0.7019
 IR Inten    --      2.0310                 2.2709                 5.1464

                     13                     14                     15
                      A                      A                      A
 Frequencies --    504.6982               605.5112               643.1194
 Red. masses --      5.2893                 2.9861                 5.5116
 Frc consts  --      0.7938                 0.6451                 1.3431
 IR Inten    --      0.7282                 5.9975                 4.0496

                     16                     17                     18
                      A                      A                      A
 Frequencies --    672.0925               779.1137               916.6274
 Red. masses --      4.2806                 1.2121                 2.6661
 Frc consts  --      1.1392                 0.4335                 1.3198
 IR Inten    --     42.5066                 3.0984                 2.3688

                     19                     20                     21
                      A                      A                      A
 Frequencies --   1016.3749              1018.1845              1037.3460
 Red. masses --      2.0769                 4.3605                 3.3580
 Frc consts  --      1.2641                 2.6634                 2.1290
 IR Inten    --      0.1557                35.8051                37.9115

                     22                     23                     24
                      A                      A                      A
 Frequencies --   1087.0224              1098.0039              1161.7960
 Red. masses --      1.7669                 1.4832                 3.2960
 Frc consts  --      1.2301                 1.0536                 2.6212
 IR Inten    --      6.7912                 0.0548               148.4780

                     25                     26                     27
                      A                      A                      A
 Frequencies --   1185.1569              1233.7193              1246.7417
 Red. masses --      1.2686                 2.2812                 1.1058
 Frc consts  --      1.0498                 2.0457                 1.0127
 IR Inten    --      2.1136                70.2394                 6.0723

                     28                     29                     30
                      A                      A                      A
 Frequencies --   1255.8403              1282.4639              1348.2804
 Red. masses --      3.8138                 1.1522                 1.5683
 Frc consts  --      3.5439                 1.1165                 1.6798
 IR Inten    --    149.0842                 0.0268                55.8206

                     31                     32                     33
                      A                      A                      A
 Frequencies --   1384.1429              1412.0029              1461.0670
 Red. masses --      1.4289                 1.2091                 1.0745
 Frc consts  --      1.6129                 1.4203                 1.3514
 IR Inten    --     12.4265                 1.3740                 3.4483

                     34                     35                     36
                      A                      A                      A
 Frequencies --   1469.5533              1487.0204              1491.0427
 Red. masses --      1.0900                 1.0458                 1.1049
 Frc consts  --      1.3869                 1.3625                 1.4473
 IR Inten    --     14.5662                 5.3211                 5.9221

                     37                     38                     39
                      A                      A                      A
 Frequencies --   1494.9691              1503.8084              1514.8898
 Red. masses --      1.0388                 1.0529                 1.0901
 Frc consts  --      1.3678                 1.4029                 1.4740
 IR Inten    --      4.9918                 1.8139                 1.6268

                     40                     41                     42
                      A                      A                      A
 Frequencies --   1758.2558              2331.0322              2958.9889
 Red. masses --     12.7765                11.9387                 1.0520
 Frc consts  --     23.2715                38.2210                 5.4267
 IR Inten    --    201.0099               174.9881                34.2238

                     43                     44                     45
                      A                      A                      A
 Frequencies --   2974.8638              2987.9451              3018.8537
 Red. masses --      1.0394                 1.1027                 1.1035
 Frc consts  --      5.4194                 5.8001                 5.9254
 IR Inten    --     62.5497                40.6564                49.6906

                     46                     47                     48
                      A                      A                      A
 Frequencies --   3022.7807              3048.8168              3050.5879
 Red. masses --      1.0592                 1.0344                 1.1000
 Frc consts  --      5.7023                 5.6650                 6.0315
 IR Inten    --     11.4152                26.9928                 5.1353

                     49                     50                     51
                      A                      A                      A
 Frequencies --   3119.2836              3123.3251              3129.7731
 Red. masses --      1.0962                 1.1023                 1.1030
 Frc consts  --      6.2842                 6.3354                 6.3660
 IR Inten    --     23.4071                24.0024                19.0862

 - Thermochemistry -
 -------------------
 Temperature   298.150 Kelvin.  Pressure   1.00000 Atm.
 Atom     1 has atomic number  6 and mass  12.00000

 Molecular mass:   126.06808 amu.
 Principal axes and moments of inertia in atomic units:
                           1         2         3
     Eigenvalues --   704.970912432.026683092.00311
           X            0.99998   0.00680  -0.00005
           Y           -0.00680   0.99998  -0.00001
           Z            0.00005   0.00001   1.00000
 This molecule is an asymmetric top.
 Rotational symmetry number  1.
 Warning -- assumption of classical behavior for rotation
           may cause significant error
 Rotational temperatures (Kelvin)      0.12286     0.03561     0.02801
 Rotational constants (GHZ):           2.56002     0.74207     0.58368
 Zero-point vibrational energy     407877.2 (Joules/Mol)
                                   97.48499 (Kcal/Mol)
 Warning -- explicit consideration of  14 degrees of freedom as
           vibrations may cause significant error
 Vibrational temperatures:     38.29    45.03    82.11   131.08   184.95
          (Kelvin)            199.32   333.68   336.28   336.45   543.76
                              570.14   589.58   726.15   871.19   925.30
                              966.99  1120.97  1318.82  1462.34  1464.94
                             1492.51  1563.98  1579.78  1671.56  1705.17
                             1775.04  1793.78  1806.87  1845.18  1939.87
                             1991.47  2031.55  2102.15  2114.36  2139.49
                             2145.28  2150.92  2163.64  2179.59  2529.73
                             3353.83  4257.32  4280.16  4298.98  4343.45
                             4349.10  4386.56  4389.11  4487.95  4493.76
                             4503.04

 Zero-point correction=                           0.155352 (Hartree/Particle)
 Thermal correction to Energy=                    0.166418
 Thermal correction to Enthalpy=                  0.167362
 Thermal correction to Gibbs Free Energy=         0.116194
 Sum of electronic and zero-point Energies=           -423.002990
 Sum of electronic and thermal Energies=              -422.991925
 Sum of electronic and thermal Enthalpies=            -422.990981
 Sum of electronic and thermal Free Energies=         -423.042149

                     E (Thermal)             CV                S
                      KCal/Mol        Cal/Mol-Kelvin    Cal/Mol-Kelvin
 Total                  104.429             36.445            107.693
 Electronic               0.000              0.000              0.000
 Translational            0.889              2.981             40.409
 Rotational               0.889              2.981             30.051
 Vibrational            102.651             30.484             37.233
 Vibration     1          0.593              1.984              6.067
 Vibration     2          0.594              1.983              5.745
 Vibration     3          0.596              1.975              4.556
 Vibration     4          0.602              1.956              3.636
 Vibration     5          0.611              1.925              2.968
 Vibration     6          0.614              1.915              2.824
 Vibration     7          0.653              1.792              1.864
 Vibration     8          0.654              1.789              1.850
 Vibration     9          0.654              1.789              1.849
 Vibration    10          0.748              1.517              1.047
 Vibration    11          0.763              1.478              0.976
 Vibration    12          0.774              1.449              0.927
 Vibration    13          0.860              1.240              0.646
 Vibration    14          0.964              1.020              0.440

 Normal termination of Gaussian 09 at Tue Jan 28 12:43:21 2020.
