 Gaussian 09, Revision D.01,
 Gaussian 09:  ES64L-G09RevD.01 24-Apr-2013

 -----------------------------
 # b3lyp 6-31G(2df,p) opt Freq
 -----------------------------

 -----
 titel
 -----
 Symbolic Z-matrix:
 Charge =  0 Multiplicity = 1

 SCF Done:  E(RB3LYP) =  -423.219593019     A.U. after   14 cycles
 Optimization completed.
    -- Stationary point found.
 Normal termination of Gaussian 09 at Tue Jan 28 14:09:01 2020.

 ----------------------------------------------------------------------
 #N Geom=AllCheck Guess=TCheck SCRF=Check GenChk RB3LYP/6-31G(2df,p) Fr
 eq
 ----------------------------------------------------------------------

 Structure from the checkpoint file:  "/scratch/puck/g09_1b4172ea-3c70-4742-b037-103325e1a31f/Gau-25410.chk"
 -----
 titel
 -----
 Charge =  0 Multiplicity = 1

                         Standard orientation:
 ---------------------------------------------------------------------
 Center     Atomic      Atomic             Coordinates (Angstroms)
 Number     Number       Type             X           Y           Z
 ---------------------------------------------------------------------
      1          6           0        0.286660    1.977979    0.607358
      2          6           0        0.236396    0.651255   -0.151901
      3          6           0       -0.688442   -0.438437    0.438415
      4          6           0       -1.991294   -0.650465   -0.347887
      5          8           0       -2.775696    0.526819   -0.430158
      6          6           0        0.179196   -1.676452    0.475484
      7          6           0        1.439947   -1.452137    0.089799
      8          6           0        1.619427   -0.020764   -0.252409
      9          8           0        2.651242    0.536059   -0.549473
     10          1           0        0.540671    1.822085    1.661810
     11          1           0        1.051567    2.626020    0.171803
     12          1           0       -0.679921    2.486684    0.557093
     13          1           0       -0.079365    0.858391   -1.182870
     14          1           0       -0.970374   -0.174911    1.470787
     15          1           0       -1.756418   -0.923734   -1.382518
     16          1           0       -2.561406   -1.485686    0.089569
     17          1           0       -3.074488    0.748883    0.457708
     18          1           0       -0.215426   -2.636944    0.793628
     19          1           0        2.249463   -2.169681    0.046880
 ---------------------------------------------------------------------

 SCF Done:  E(RB3LYP) =  -423.219593019     A.U. after    1 cycles

 The electronic state is 1-A.
 Alpha  occ. eigenvalues --  -19.14791 -19.12006 -10.25848 -10.24037 -10.21577
 Alpha  occ. eigenvalues --  -10.20531 -10.19488 -10.19262 -10.17759  -1.02992
 Alpha  occ. eigenvalues --   -1.02858  -0.85998  -0.76168  -0.73568  -0.65167
 Alpha  occ. eigenvalues --   -0.64317  -0.56957  -0.53144  -0.51319  -0.48399
 Alpha  occ. eigenvalues --   -0.46952  -0.43797  -0.42897  -0.41753  -0.40669
 Alpha  occ. eigenvalues --   -0.39525  -0.37497  -0.36473  -0.34919  -0.34395
 Alpha  occ. eigenvalues --   -0.33151  -0.28950  -0.26877  -0.23677
 Alpha virt. eigenvalues --   -0.04704   0.05455   0.06194   0.10466   0.11369
 Alpha virt. eigenvalues --    0.12436   0.13548   0.14993   0.15556   0.16895
 Alpha virt. eigenvalues --    0.17482   0.18148   0.19494   0.21030   0.23366

 Mulliken charges:
               1
     1  C   -0.407332
     2  C   -0.089228
     3  C   -0.086967
     4  C   -0.077579
     5  O   -0.409420
     6  C   -0.066515
     7  C   -0.190788
     8  C    0.374361
     9  O   -0.338875
    10  H    0.114036
    11  H    0.140440
    12  H    0.116935
    13  H    0.113854
    14  H    0.080791
    15  H    0.119073
    16  H    0.089337
    17  H    0.284889
    18  H    0.114115
    19  H    0.118872
 Sum of Mulliken charges =   0.00000

 Dipole moment (field-independent basis, Debye):
    X=             -2.7235    Y=             -1.9734    Z=              2.0848  Tot=              3.9571
 Quadrupole moment (field-independent basis, Debye-Ang):
   XX=            -62.0969   YY=            -50.3857   ZZ=            -52.6406
   XY=             -2.1367   XZ=             -2.5752   YZ=              1.2085

  Exact polarizability:  93.324   2.677  82.084  -6.841  -2.407  58.407
 Approx polarizability: 145.573  12.597 116.704 -17.241  -8.148  95.100

                      1                      2                      3
                      A                      A                      A
 Frequencies --     46.4872               115.1007               160.4210
 Red. masses --      4.6276                 3.2585                 4.0932
 Frc consts  --      0.0059                 0.0254                 0.0621
 IR Inten    --      3.0767                 0.5129                 1.9536

                      4                      5                      6
                      A                      A                      A
 Frequencies --    232.0546               234.0425               258.8630
 Red. masses --      1.4471                 1.4672                 3.3066
 Frc consts  --      0.0459                 0.0474                 0.1305
 IR Inten    --      9.7501                 0.9894                 6.4631

                      7                      8                      9
                      A                      A                      A
 Frequencies --    299.3804               316.2411               422.4278
 Red. masses --      2.9389                 1.1750                 4.5781
 Frc consts  --      0.1552                 0.0692                 0.4813
 IR Inten    --      1.0290               109.7913                18.9118

                     10                     11                     12
                      A                      A                      A
 Frequencies --    470.2400               541.4641               586.6317
 Red. masses --      3.4455                 2.9815                 4.4672
 Frc consts  --      0.4489                 0.5150                 0.9058
 IR Inten    --      2.9233                11.0547                 7.7863

                     13                     14                     15
                      A                      A                      A
 Frequencies --    685.4897               753.6672               770.9589
 Red. masses --      3.4472                 4.0644                 2.3895
 Frc consts  --      0.9544                 1.3602                 0.8368
 IR Inten    --      0.9055                 2.8188                 9.9749

                     16                     17                     18
                      A                      A                      A
 Frequencies --    836.0290               858.4121               975.4944
 Red. masses --      2.0446                 1.6727                 1.3264
 Frc consts  --      0.8420                 0.7262                 0.7437
 IR Inten    --     20.5530                11.4586                17.5185

                     19                     20                     21
                      A                      A                      A
 Frequencies --    995.9832              1012.7606              1022.3240
 Red. masses --      1.6859                 1.7027                 2.5333
 Frc consts  --      0.9853                 1.0290                 1.5600
 IR Inten    --      4.2858                 3.1405                 1.7767

                     22                     23                     24
                      A                      A                      A
 Frequencies --   1061.4398              1068.8070              1107.9058
 Red. masses --      1.7358                 2.3477                 2.4251
 Frc consts  --      1.1522                 1.5801                 1.7538
 IR Inten    --      2.4959                97.4218                12.6318

                     25                     26                     27
                      A                      A                      A
 Frequencies --   1116.5188              1150.9208              1174.8197
 Red. masses --      1.6971                 1.4614                 2.0857
 Frc consts  --      1.2465                 1.1405                 1.6961
 IR Inten    --      1.9053                 8.0346                23.7507

                     28                     29                     30
                      A                      A                      A
 Frequencies --   1198.9338              1258.1746              1286.6114
 Red. masses --      1.6396                 1.3556                 1.7955
 Frc consts  --      1.3886                 1.2644                 1.7512
 IR Inten    --     29.6824                 2.2857                 5.6908

                     31                     32                     33
                      A                      A                      A
 Frequencies --   1314.5289              1345.6442              1373.0782
 Red. masses --      1.2985                 1.6110                 1.6885
 Frc consts  --      1.3220                 1.7187                 1.8757
 IR Inten    --      9.9271                 5.8475                 6.1202

                     34                     35                     36
                      A                      A                      A
 Frequencies --   1388.5652              1401.3749              1414.9402
 Red. masses --      1.3091                 1.2199                 1.2364
 Frc consts  --      1.4871                 1.4115                 1.4584
 IR Inten    --      1.7378                 8.2406                39.8044

                     37                     38                     39
                      A                      A                      A
 Frequencies --   1498.1325              1499.6004              1506.2438
 Red. masses --      1.0498                 1.0458                 1.0884
 Frc consts  --      1.3882                 1.3856                 1.4549
 IR Inten    --      2.8809                 7.3809                 0.5128

                     40                     41                     42
                      A                      A                      A
 Frequencies --   1649.1198              1812.0225              2970.8222
 Red. masses --      6.6156                12.3526                 1.0794
 Frc consts  --     10.6004                23.8966                 5.6130
 IR Inten    --     18.2297               256.4119                26.4674

                     43                     44                     45
                      A                      A                      A
 Frequencies --   2978.5150              3027.6120              3036.5904
 Red. masses --      1.0709                 1.0791                 1.0388
 Frc consts  --      5.5978                 5.8279                 5.6435
 IR Inten    --     59.5832                 2.0180                27.7572

                     46                     47                     48
                      A                      A                      A
 Frequencies --   3071.2534              3105.4420              3126.2757
 Red. masses --      1.0941                 1.0995                 1.1023
 Frc consts  --      6.0804                 6.2475                 6.3474
 IR Inten    --     27.3628                23.3172                10.8924

                     49                     50                     51
                      A                      A                      A
 Frequencies --   3177.2561              3224.6543              3813.9898
 Red. masses --      1.0892                 1.1010                 1.0661
 Frc consts  --      6.4785                 6.7455                 9.1375
 IR Inten    --      9.6077                 6.5661                20.9699

 - Thermochemistry -
 -------------------
 Temperature   298.150 Kelvin.  Pressure   1.00000 Atm.
 Atom     1 has atomic number  6 and mass  12.00000

 Molecular mass:   126.06808 amu.
 Principal axes and moments of inertia in atomic units:
                           1         2         3
     Eigenvalues --   676.539091441.008701908.96566
           X            0.99999   0.00427  -0.00001
           Y           -0.00426   0.99975   0.02201
           Z            0.00010  -0.02201   0.99976
 This molecule is an asymmetric top.
 Rotational symmetry number  1.
 Warning -- assumption of classical behavior for rotation
           may cause significant error
 Rotational temperatures (Kelvin)      0.12802     0.06011     0.04537
 Rotational constants (GHZ):           2.66761     1.25242     0.94540
 Zero-point vibrational energy     417223.2 (Joules/Mol)
                                   99.71873 (Kcal/Mol)
 Warning -- explicit consideration of  12 degrees of freedom as
           vibrations may cause significant error
 Vibrational temperatures:     66.88   165.60   230.81   333.87   336.73
          (Kelvin)            372.45   430.74   455.00   607.78   676.57
                              779.05   844.03   986.27  1084.36  1109.24
                             1202.86  1235.06  1403.52  1433.00  1457.13
                             1470.89  1527.17  1537.77  1594.03  1606.42
                             1655.92  1690.30  1725.00  1810.23  1851.14
                             1891.31  1936.08  1975.55  1997.83  2016.26
                             2035.78  2155.48  2157.59  2167.15  2372.71
                             2607.09  4274.35  4285.41  4356.05  4368.97
                             4418.84  4468.03  4498.01  4571.36  4639.55
                             5487.47

 Zero-point correction=                           0.158912 (Hartree/Particle)
 Thermal correction to Energy=                    0.167965
 Thermal correction to Enthalpy=                  0.168909
 Thermal correction to Gibbs Free Energy=         0.124701
 Sum of electronic and zero-point Energies=           -423.060681
 Sum of electronic and thermal Energies=              -423.051628
 Sum of electronic and thermal Enthalpies=            -423.050684
 Sum of electronic and thermal Free Energies=         -423.094892

                     E (Thermal)             CV                S
                      KCal/Mol        Cal/Mol-Kelvin    Cal/Mol-Kelvin
 Total                  105.399             33.460             93.043
 Electronic               0.000              0.000              0.000
 Translational            0.889              2.981             40.409
 Rotational               0.889              2.981             29.011
 Vibrational            103.622             27.498             23.623
 Vibration     1          0.595              1.979              4.962
 Vibration     2          0.608              1.937              3.181
 Vibration     3          0.622              1.891              2.545
 Vibration     4          0.653              1.792              1.863
 Vibration     5          0.654              1.789              1.848
 Vibration     6          0.668              1.748              1.669
 Vibration     7          0.692              1.675              1.420
 Vibration     8          0.703              1.643              1.329
 Vibration     9          0.785              1.421              0.884
 Vibration    10          0.827              1.316              0.737
 Vibration    11          0.897              1.158              0.562
 Vibration    12          0.944              1.060              0.473

 Optimization completed.
    -- Stationary point found.
 Normal termination of Gaussian 09 at Tue Jan 28 14:53:44 2020.
