 Gaussian 09, Revision D.01,
 Gaussian 09:  ES64L-G09RevD.01 24-Apr-2013

 -----------------------------
 # b3lyp 6-31G(2df,p) opt Freq
 -----------------------------

 -----
 titel
 -----
 Symbolic Z-matrix:
 Charge =  0 Multiplicity = 1

 SCF Done:  E(RB3LYP) =  -423.233401710     A.U. after   14 cycles
 Optimization completed.
    -- Stationary point found.
 Normal termination of Gaussian 09 at Tue Jan 28 08:21:05 2020.

 ----------------------------------------------------------------------
 #N Geom=AllCheck Guess=TCheck SCRF=Check GenChk RB3LYP/6-31G(2df,p) Fr
 eq
 ----------------------------------------------------------------------

 Structure from the checkpoint file:  "/scratch/puck/g09_206691ae-d9c6-47fb-9959-4fceb45e5ffa/Gau-59873.chk"
 -----
 titel
 -----
 Charge =  0 Multiplicity = 1

                         Standard orientation:
 ---------------------------------------------------------------------
 Center     Atomic      Atomic             Coordinates (Angstroms)
 Number     Number       Type             X           Y           Z
 ---------------------------------------------------------------------
      1          6           0        3.217564    0.312866   -0.014037
      2          8           0        1.890566    0.514587    0.487074
      3          6           0        0.948861   -0.309463   -0.021167
      4          8           0        1.191356   -1.171851   -0.829122
      5          6           0       -0.417131    0.037540    0.530358
      6          6           0       -1.442387   -1.118819    0.428590
      7          6           0       -2.717899   -0.421568    0.024498
      8          6           0       -2.512538    0.842245   -0.338300
      9          6           0       -1.059182    1.237903   -0.244366
     10          1           0        3.249038    0.457919   -1.096986
     11          1           0        3.840910    1.052779    0.488378
     12          1           0        3.566263   -0.697939    0.212499
     13          1           0       -0.290596    0.339796    1.572668
     14          1           0       -1.124164   -1.843207   -0.331177
     15          1           0       -1.533643   -1.668708    1.371945
     16          1           0       -3.674882   -0.931068    0.003874
     17          1           0       -3.272003    1.522858   -0.706955
     18          1           0       -0.623502    1.353901   -1.246724
     19          1           0       -0.896518    2.187550    0.275395
 ---------------------------------------------------------------------

 SCF Done:  E(RB3LYP) =  -423.233401710     A.U. after    1 cycles

 The electronic state is 1-A.
 Alpha  occ. eigenvalues --  -19.18054 -19.12227 -10.29924 -10.23561 -10.19804
 Alpha  occ. eigenvalues --  -10.19184 -10.18183 -10.17979 -10.17888  -1.09809
 Alpha  occ. eigenvalues --   -1.00960  -0.84584  -0.75072  -0.70851  -0.70060
 Alpha  occ. eigenvalues --   -0.60240  -0.54996  -0.53223  -0.51129  -0.49626
 Alpha  occ. eigenvalues --   -0.47358  -0.46339  -0.43592  -0.40208  -0.39626
 Alpha  occ. eigenvalues --   -0.38199  -0.37500  -0.35206  -0.34950  -0.34511
 Alpha  occ. eigenvalues --   -0.33547  -0.29934  -0.26734  -0.24054
 Alpha virt. eigenvalues --    0.01696   0.02563   0.09442   0.10958   0.12457
 Alpha virt. eigenvalues --    0.13561   0.14769   0.15514   0.16016   0.16585
 Alpha virt. eigenvalues --    0.17382   0.17774   0.19050   0.19414   0.22143

 Mulliken charges:
               1
     1  C   -0.239654
     2  O   -0.236504
     3  C    0.433275
     4  O   -0.362466
     5  C   -0.098770
     6  C   -0.274160
     7  C   -0.061183
     8  C   -0.061720
     9  C   -0.266780
    10  H    0.139080
    11  H    0.131528
    12  H    0.140181
    13  H    0.099623
    14  H    0.135647
    15  H    0.103975
    16  H    0.094070
    17  H    0.093062
    18  H    0.117188
    19  H    0.113607
 Sum of Mulliken charges =   0.00000

 Dipole moment (field-independent basis, Debye):
    X=              0.2021    Y=              1.3061    Z=              0.8991  Tot=              1.5985
 Quadrupole moment (field-independent basis, Debye-Ang):
   XX=            -46.1209   YY=            -53.9302   ZZ=            -54.3623
   XY=              2.1477   XZ=              0.9204   YZ=             -3.2913

  Exact polarizability:  94.419   3.427  78.655   0.877  -2.910  58.961
 Approx polarizability: 112.270   5.255 129.705  -0.130  -0.355  95.861

                      1                      2                      3
                      A                      A                      A
 Frequencies --     21.7004                69.6665               119.4509
 Red. masses --      4.4794                 2.8197                 1.3215
 Frc consts  --      0.0012                 0.0081                 0.0111
 IR Inten    --      0.8868                 0.2356                 0.6798

                      4                      5                      6
                      A                      A                      A
 Frequencies --    135.2189               206.4487               276.2504
 Red. masses --      2.0046                 3.3521                 3.4407
 Frc consts  --      0.0216                 0.0842                 0.1547
 IR Inten    --      0.5669                 4.2749                 4.4756

                      7                      8                      9
                      A                      A                      A
 Frequencies --    332.3260               383.4750               389.2656
 Red. masses --      4.5953                 3.6361                 2.2713
 Frc consts  --      0.2990                 0.3150                 0.2028
 IR Inten    --     15.4652                 2.6766                 0.7355

                     10                     11                     12
                      A                      A                      A
 Frequencies --    571.5235               706.3024               732.8547
 Red. masses --      2.4855                 1.6390                 2.8357
 Frc consts  --      0.4783                 0.4817                 0.8973
 IR Inten    --      0.7323                35.2950                 3.2011

                     13                     14                     15
                      A                      A                      A
 Frequencies --    766.9902               789.5302               845.2402
 Red. masses --      4.5947                 5.5353                 2.9751
 Frc consts  --      1.5925                 2.0330                 1.2523
 IR Inten    --     11.3602                 0.5145                 1.0345

                     16                     17                     18
                      A                      A                      A
 Frequencies --    922.3950               943.9853               960.4485
 Red. masses --      1.5230                 4.2931                 1.8624
 Frc consts  --      0.7634                 2.2540                 1.0122
 IR Inten    --      3.6667                 7.2739                 5.3769

                     19                     20                     21
                      A                      A                      A
 Frequencies --    975.4382               981.4277              1039.8196
 Red. masses --      1.3215                 2.6860                 3.3800
 Frc consts  --      0.7408                 1.5243                 2.1532
 IR Inten    --      0.4375                 1.1334                 9.0086

                     22                     23                     24
                      A                      A                      A
 Frequencies --   1043.3697              1087.6482              1131.0152
 Red. masses --      2.2034                 3.7276                 1.0850
 Frc consts  --      1.4132                 2.5981                 0.8177
 IR Inten    --      5.3527                16.1457                 2.3668

                     25                     26                     27
                      A                      A                      A
 Frequencies --   1158.0430              1179.7157              1186.5048
 Red. masses --      1.1617                 1.2923                 1.8058
 Frc consts  --      0.9179                 1.0597                 1.4978
 IR Inten    --      2.8418                 5.1245               147.9421

                     28                     29                     30
                      A                      A                      A
 Frequencies --   1209.0659              1223.2761              1298.0728
 Red. masses --      1.4057                 1.7924                 1.4065
 Frc consts  --      1.2108                 1.5803                 1.3963
 IR Inten    --      7.4302               205.4106                 3.0382

                     31                     32                     33
                      A                      A                      A
 Frequencies --   1304.9339              1325.5735              1361.5733
 Red. masses --      1.2354                 1.5893                 1.6941
 Frc consts  --      1.2394                 1.6453                 1.8504
 IR Inten    --     18.7118                35.3531                 8.8702

                     34                     35                     36
                      A                      A                      A
 Frequencies --   1382.4834              1473.8317              1482.1633
 Red. masses --      1.8230                 1.2071                 1.0468
 Frc consts  --      2.0528                 1.5449                 1.3548
 IR Inten    --     51.6022                15.4915                 5.9346

                     37                     38                     39
                      A                      A                      A
 Frequencies --   1485.4199              1491.7544              1498.3441
 Red. masses --      1.0817                 1.1031                 1.0601
 Frc consts  --      1.4062                 1.4462                 1.4022
 IR Inten    --      1.5843                 3.5556                 7.0557

                     40                     41                     42
                      A                      A                      A
 Frequencies --   1692.2587              1814.7069              3012.1299
 Red. masses --      6.0703                11.2679                 1.0685
 Frc consts  --     10.2422                21.8628                 5.7118
 IR Inten    --      3.7962               176.1529                28.6740

                     43                     44                     45
                      A                      A                      A
 Frequencies --   3033.9762              3050.9864              3060.2998
 Red. masses --      1.0588                 1.0299                 1.0945
 Frc consts  --      5.7425                 5.6482                 6.0392
 IR Inten    --     24.5414                31.7280                 5.1704

                     46                     47                     48
                      A                      A                      A
 Frequencies --   3066.4207              3086.6497              3124.6545
 Red. masses --      1.0972                 1.0888                 1.1054
 Frc consts  --      6.0787                 6.1118                 6.3590
 IR Inten    --     15.5007                29.1540                19.2623

                     49                     50                     51
                      A                      A                      A
 Frequencies --   3157.0336              3183.2280              3208.7196
 Red. masses --      1.1059                 1.0842                 1.1042
 Frc consts  --      6.4942                 6.4728                 6.6983
 IR Inten    --     16.4179                 5.6198                25.2807

 - Thermochemistry -
 -------------------
 Temperature   298.150 Kelvin.  Pressure   1.00000 Atm.
 Atom     1 has atomic number  6 and mass  12.00000

 Molecular mass:   126.06808 amu.
 Principal axes and moments of inertia in atomic units:
                           1         2         3
     Eigenvalues --   432.852751849.540472065.09613
           X            0.99997   0.00794  -0.00103
           Y           -0.00798   0.99837  -0.05655
           Z            0.00058   0.05656   0.99840
 This molecule is an asymmetric top.
 Rotational symmetry number  1.
 Rotational temperatures (Kelvin)      0.20010     0.04683     0.04194
 Rotational constants (GHZ):           4.16941     0.97578     0.87393
 Zero-point vibrational energy     418594.9 (Joules/Mol)
                                  100.04659 (Kcal/Mol)
 Warning -- explicit consideration of  10 degrees of freedom as
           vibrations may cause significant error
 Vibrational temperatures:     31.22   100.23   171.86   194.55   297.03
          (Kelvin)            397.46   478.14   551.73   560.07   822.29
                             1016.21  1054.41  1103.53  1135.96  1216.11
                             1327.12  1358.18  1381.87  1403.44  1412.05
                             1496.07  1501.17  1564.88  1627.28  1666.16
                             1697.35  1707.11  1739.57  1760.02  1867.63
                             1877.51  1907.20  1959.00  1989.08  2120.51
                             2132.50  2137.19  2146.30  2155.78  2434.78
                             2610.96  4333.78  4365.21  4389.68  4403.08
                             4411.89  4440.99  4495.68  4542.26  4579.95
                             4616.63

 Zero-point correction=                           0.159434 (Hartree/Particle)
 Thermal correction to Energy=                    0.168471
 Thermal correction to Enthalpy=                  0.169415
 Thermal correction to Gibbs Free Energy=         0.123915
 Sum of electronic and zero-point Energies=           -423.073967
 Sum of electronic and thermal Energies=              -423.064931
 Sum of electronic and thermal Enthalpies=            -423.063987
 Sum of electronic and thermal Free Energies=         -423.109487

                     E (Thermal)             CV                S
                      KCal/Mol        Cal/Mol-Kelvin    Cal/Mol-Kelvin
 Total                  105.717             32.082             95.762
 Electronic               0.000              0.000              0.000
 Translational            0.889              2.981             40.409
 Rotational               0.889              2.981             28.893
 Vibrational            103.939             26.121             26.461
 Vibration     1          0.593              1.985              6.472
 Vibration     2          0.598              1.969              4.163
 Vibration     3          0.609              1.933              3.109
 Vibration     4          0.613              1.918              2.870
 Vibration     5          0.641              1.831              2.075
 Vibration     6          0.678              1.717              1.557
 Vibration     7          0.714              1.611              1.249
 Vibration     8          0.753              1.505              1.025
 Vibration     9          0.757              1.493              1.003
 Vibration    10          0.928              1.093              0.501

 Optimization completed.
    -- Stationary point found.
 Normal termination of Gaussian 09 at Tue Jan 28 10:05:08 2020.
