 Gaussian 09, Revision D.01,
 Gaussian 09:  ES64L-G09RevD.01 24-Apr-2013

 -----------------------------
 # b3lyp 6-31G(2df,p) opt Freq
 -----------------------------

 -----
 titel
 -----
 Symbolic Z-matrix:
 Charge =  0 Multiplicity = 1

 SCF Done:  E(RB3LYP) =  -423.215975095     A.U. after   14 cycles
 SCF Done:  E(RB3LYP) =  -423.215975433     A.U. after    7 cycles
 SCF Done:  E(RB3LYP) =  -423.215975417     A.U. after    8 cycles
 SCF Done:  E(RB3LYP) =  -423.215976043     A.U. after    7 cycles
 SCF Done:  E(RB3LYP) =  -423.215976449     A.U. after    7 cycles
 SCF Done:  E(RB3LYP) =  -423.215976841     A.U. after    7 cycles
 Optimization completed.
    -- Stationary point found.
 Normal termination of Gaussian 09 at Mon Jan 27 17:40:22 2020.

 ----------------------------------------------------------------------
 #N Geom=AllCheck Guess=TCheck SCRF=Check GenChk RB3LYP/6-31G(2df,p) Fr
 eq
 ----------------------------------------------------------------------

 Structure from the checkpoint file:  "/scratch/puck/g09_24d7819b-9161-45d3-9f9c-b97949dd6346/Gau-43341.chk"
 -----
 titel
 -----
 Charge =  0 Multiplicity = 1

                         Standard orientation:
 ---------------------------------------------------------------------
 Center     Atomic      Atomic             Coordinates (Angstroms)
 Number     Number       Type             X           Y           Z
 ---------------------------------------------------------------------
      1          8           0       -1.944932   -1.079857    0.062768
      2          6           0       -0.653363   -0.587762    0.026827
      3          6           0        0.399146   -1.075994    1.069989
      4          6           0        1.465129   -0.845057   -0.037741
      5          6           0        0.339438   -1.079657   -1.078558
      6          6           0        1.918878    0.621674   -0.073876
      7          6           0        0.725629    1.593358    0.122428
      8          6           0       -0.639330    0.930199   -0.005001
      9          8           0       -1.677889    1.548575   -0.100645
     10          1           0       -2.521147   -0.300250   -0.008608
     11          1           0        0.490771   -0.537298    2.017756
     12          1           0        0.241066   -2.138583    1.268100
     13          1           0        2.318662   -1.524357   -0.062803
     14          1           0        0.380308   -0.540244   -2.029764
     15          1           0        0.160967   -2.141175   -1.265769
     16          1           0        2.671970    0.799986    0.700657
     17          1           0        2.407380    0.818897   -1.034477
     18          1           0        0.742011    2.024056    1.131484
     19          1           0        0.757418    2.448653   -0.557966
 ---------------------------------------------------------------------

 SCF Done:  E(RB3LYP) =  -423.215976841     A.U. after    1 cycles

 The electronic state is 1-A.
 Alpha  occ. eigenvalues --  -19.14160 -19.13306 -10.27316 -10.24288 -10.20112
 Alpha  occ. eigenvalues --  -10.20065 -10.19709 -10.19007 -10.18923  -1.05989
 Alpha  occ. eigenvalues --   -1.01604  -0.87426  -0.77094  -0.71070  -0.67188
 Alpha  occ. eigenvalues --   -0.61948  -0.58395  -0.53258  -0.50610  -0.48047
 Alpha  occ. eigenvalues --   -0.46996  -0.45766  -0.43491  -0.41964  -0.40302
 Alpha  occ. eigenvalues --   -0.39245  -0.37209  -0.35835  -0.35140  -0.33583
 Alpha  occ. eigenvalues --   -0.31563  -0.31408  -0.26241  -0.25371
 Alpha virt. eigenvalues --   -0.02013   0.07175   0.09351   0.11285   0.12267
 Alpha virt. eigenvalues --    0.13710   0.14327   0.15480   0.16603   0.17001
 Alpha virt. eigenvalues --    0.18438   0.19802   0.20269   0.21031   0.21849

 Mulliken charges:
               1
     1  O   -0.493350
     2  C    0.344622
     3  C   -0.291472
     4  C   -0.020678
     5  C   -0.284267
     6  C   -0.219206
     7  C   -0.316294
     8  C    0.356792
     9  O   -0.359090
    10  H    0.288444
    11  H    0.096606
    12  H    0.117472
    13  H    0.073562
    14  H    0.098041
    15  H    0.116173
    16  H    0.104821
    17  H    0.108692
    18  H    0.143271
    19  H    0.135860
 Sum of Mulliken charges =   0.00000

 Dipole moment (field-independent basis, Debye):
    X=              2.9626    Y=              0.1107    Z=              0.1227  Tot=              2.9673
 Quadrupole moment (field-independent basis, Debye-Ang):
   XX=            -56.2102   YY=            -55.5594   ZZ=            -51.6837
   XY=              1.0335   XZ=              0.0530   YZ=              0.6009

  Exact polarizability:  81.326  -1.264  77.612   0.504   0.042  64.644
 Approx polarizability: 119.741  -6.263 112.740   1.365  -0.504  99.430

                      1                      2                      3
                      A                      A                      A
 Frequencies --     68.0950               154.5691               318.6221
 Red. masses --      2.6652                 2.5493                 4.3774
 Frc consts  --      0.0073                 0.0359                 0.2618
 IR Inten    --      1.0218                 0.3810                16.3218

                      4                      5                      6
                      A                      A                      A
 Frequencies --    341.1563               377.9572               397.7014
 Red. masses --      2.6239                 2.8039                 2.7267
 Frc consts  --      0.1799                 0.2360                 0.2541
 IR Inten    --      0.8567                10.7332                 4.9853

                      7                      8                      9
                      A                      A                      A
 Frequencies --    418.0107               487.1488               521.6120
 Red. masses --      5.9191                 1.2772                 3.1848
 Frc consts  --      0.6094                 0.1786                 0.5105
 IR Inten    --      1.5755                38.5275                17.3068

                     10                     11                     12
                      A                      A                      A
 Frequencies --    559.6376               604.7679               673.9084
 Red. masses --      2.4291                 2.6258                 3.1978
 Frc consts  --      0.4482                 0.5658                 0.8557
 IR Inten    --      4.1426                 4.6824                 7.7718

                     13                     14                     15
                      A                      A                      A
 Frequencies --    783.4140               811.7022               821.9896
 Red. masses --      1.9443                 3.0241                 2.5820
 Frc consts  --      0.7031                 1.1739                 1.0279
 IR Inten    --      5.3418                 0.9346                 0.3174

                     16                     17                     18
                      A                      A                      A
 Frequencies --    871.8836               905.0099               944.2317
 Red. masses --      1.5469                 2.0096                 2.5620
 Frc consts  --      0.6928                 0.9698                 1.3458
 IR Inten    --      0.0721                 0.9237                 8.6915

                     19                     20                     21
                      A                      A                      A
 Frequencies --    970.3235               982.0131              1028.8020
 Red. masses --      2.7819                 3.2459                 1.2286
 Frc consts  --      1.5432                 1.8443                 0.7661
 IR Inten    --      5.3355                 2.7352                 0.3630

                     22                     23                     24
                      A                      A                      A
 Frequencies --   1037.0035              1085.1788              1097.7457
 Red. masses --      2.4952                 1.5631                 1.4990
 Frc consts  --      1.5809                 1.0846                 1.0643
 IR Inten    --      7.2393                 4.3036                21.2505

                     25                     26                     27
                      A                      A                      A
 Frequencies --   1127.0732              1172.0058              1194.3034
 Red. masses --      2.1452                 1.3262                 2.4369
 Frc consts  --      1.6055                 1.0733                 2.0479
 IR Inten    --      4.1726                 0.1589               184.8213

                     28                     29                     30
                      A                      A                      A
 Frequencies --   1210.9863              1240.6020              1245.3995
 Red. masses --      1.3531                 1.4040                 1.5051
 Frc consts  --      1.1691                 1.2732                 1.3754
 IR Inten    --     10.9866                 1.3883                 5.1695

                     31                     32                     33
                      A                      A                      A
 Frequencies --   1275.6967              1303.4651              1334.8703
 Red. masses --      1.5897                 1.3286                 3.2241
 Frc consts  --      1.5243                 1.3300                 3.3849
 IR Inten    --      0.1160                 1.3900                31.9437

                     34                     35                     36
                      A                      A                      A
 Frequencies --   1347.2602              1377.6158              1429.5123
 Red. masses --      1.6943                 1.4899                 1.4659
 Frc consts  --      1.8119                 1.6660                 1.7650
 IR Inten    --      1.5249                 3.6848                77.8132

                     37                     38                     39
                      A                      A                      A
 Frequencies --   1451.3203              1478.7533              1497.2200
 Red. masses --      1.0847                 1.0891                 1.0975
 Frc consts  --      1.3461                 1.4031                 1.4496
 IR Inten    --     12.3241                 4.0884                 3.3291

                     40                     41                     42
                      A                      A                      A
 Frequencies --   1515.6067              1798.2734              3036.1139
 Red. masses --      1.1308                12.1092                 1.0625
 Frc consts  --      1.5305                23.0716                 5.7705
 IR Inten    --      1.3166               199.6664                24.8329

                     43                     44                     45
                      A                      A                      A
 Frequencies --   3042.0770              3051.2171              3056.1011
 Red. masses --      1.0673                 1.0582                 1.0601
 Frc consts  --      5.8193                 5.8045                 5.8338
 IR Inten    --     14.0724                48.3304                 8.6787

                     46                     47                     48
                      A                      A                      A
 Frequencies --   3074.2705              3092.9514              3097.9850
 Red. masses --      1.0999                 1.0894                 1.0964
 Frc consts  --      6.1246                 6.1403                 6.1995
 IR Inten    --     19.6375                42.0623                11.9681

                     49                     50                     51
                      A                      A                      A
 Frequencies --   3115.6281              3118.7118              3664.7302
 Red. masses --      1.1075                 1.1055                 1.0643
 Frc consts  --      6.3343                 6.3352                 8.4214
 IR Inten    --     11.5709                26.9901                70.1283

 - Thermochemistry -
 -------------------
 Temperature   298.150 Kelvin.  Pressure   1.00000 Atm.
 Atom     1 has atomic number  8 and mass  15.99491

 Molecular mass:   126.06808 amu.
 Principal axes and moments of inertia in atomic units:
                           1         2         3
     Eigenvalues --   748.11244 943.438561385.42567
           X            0.99821   0.05980   0.00014
           Y           -0.05980   0.99819   0.00596
           Z            0.00022  -0.00595   0.99998
 This molecule is an asymmetric top.
 Rotational symmetry number  1.
 Warning -- assumption of classical behavior for rotation
           may cause significant error
 Rotational temperatures (Kelvin)      0.11578     0.09181     0.06252
 Rotational constants (GHZ):           2.41239     1.91294     1.30266
 Zero-point vibrational energy     422355.0 (Joules/Mol)
                                  100.94526 (Kcal/Mol)
 Warning -- explicit consideration of  11 degrees of freedom as
           vibrations may cause significant error
 Vibrational temperatures:     97.97   222.39   458.43   490.85   543.80
          (Kelvin)            572.20   601.42   700.90   750.48   805.19
                              870.13   969.60  1127.16  1167.86  1182.66
                             1254.44  1302.11  1358.54  1396.08  1412.90
                             1480.21  1492.01  1561.33  1579.41  1621.60
                             1686.25  1718.33  1742.34  1784.95  1791.85
                             1835.44  1875.39  1920.58  1938.40  1982.08
                             2056.75  2088.12  2127.59  2154.16  2180.62
                             2587.31  4368.29  4376.86  4390.02  4397.04
                             4423.18  4450.06  4457.30  4482.69  4487.13
                             5272.72

 Zero-point correction=                           0.160867 (Hartree/Particle)
 Thermal correction to Energy=                    0.168511
 Thermal correction to Enthalpy=                  0.169456
 Thermal correction to Gibbs Free Energy=         0.128780
 Sum of electronic and zero-point Energies=           -423.055110
 Sum of electronic and thermal Energies=              -423.047465
 Sum of electronic and thermal Enthalpies=            -423.046521
 Sum of electronic and thermal Free Energies=         -423.087197

                     E (Thermal)             CV                S
                      KCal/Mol        Cal/Mol-Kelvin    Cal/Mol-Kelvin
 Total                  105.742             30.815             85.610
 Electronic               0.000              0.000              0.000
 Translational            0.889              2.981             40.409
 Rotational               0.889              2.981             28.371
 Vibrational            103.965             24.854             16.830
 Vibration     1          0.598              1.969              4.208
 Vibration     2          0.620              1.898              2.615
 Vibration     3          0.705              1.638              1.317
 Vibration     4          0.721              1.593              1.207
 Vibration     5          0.748              1.517              1.047
 Vibration     6          0.764              1.475              0.971
 Vibration     7          0.781              1.431              0.899
 Vibration     8          0.843              1.279              0.691
 Vibration     9          0.877              1.202              0.606
 Vibration    10          0.915              1.119              0.525
 Vibration    11          0.963              1.022              0.442

 Normal termination of Gaussian 09 at Mon Jan 27 18:24:26 2020.
