 Gaussian 09, Revision D.01,
 Gaussian 09:  ES64L-G09RevD.01 24-Apr-2013

 -----------------------------
 # b3lyp 6-31G(2df,p) opt Freq
 -----------------------------

 -----
 titel
 -----
 Symbolic Z-matrix:
 Charge =  0 Multiplicity = 1

 SCF Done:  E(RB3LYP) =  -423.122073406     A.U. after   13 cycles
 Optimization completed.
    -- Stationary point found.
 Normal termination of Gaussian 09 at Tue Jan 28 01:52:54 2020.

 ----------------------------------------------------------------------
 #N Geom=AllCheck Guess=TCheck SCRF=Check GenChk RB3LYP/6-31G(2df,p) Fr
 eq
 ----------------------------------------------------------------------

 Structure from the checkpoint file:  "/scratch/puck/g09_c57a1c3c-c62d-47e6-b782-5ff581d0d859/Gau-38009.chk"
 -----
 titel
 -----
 Charge =  0 Multiplicity = 1

                         Standard orientation:
 ---------------------------------------------------------------------
 Center     Atomic      Atomic             Coordinates (Angstroms)
 Number     Number       Type             X           Y           Z
 ---------------------------------------------------------------------
      1          6           0        2.450446   -0.190566   -0.974122
      2          6           0        1.585221   -0.714545    0.150897
      3          6           0        1.240057    0.177060    1.325152
      4          6           0        0.183606   -0.216755    0.326629
      5          6           0       -1.086862   -0.987658    0.626187
      6          8           0       -1.666618   -1.352347   -0.639193
      7          6           0       -1.895536   -0.029333   -0.146439
      8          6           0       -0.638809    0.802963   -0.517186
      9          8           0       -0.613838    2.136314   -0.074029
     10          1           0        2.247395    0.867910   -1.166296
     11          1           0        3.514181   -0.286605   -0.730831
     12          1           0        2.266938   -0.740495   -1.903372
     13          1           0        1.738433   -1.764635    0.390518
     14          1           0        1.201107   -0.256902    2.319510
     15          1           0        1.591409    1.204902    1.295402
     16          1           0       -1.335078   -1.604137    1.483248
     17          1           0       -2.919181    0.309003   -0.029154
     18          1           0       -0.427620    0.824004   -1.588861
     19          1           0       -0.662664    2.128237    0.888898
 ---------------------------------------------------------------------

 SCF Done:  E(RB3LYP) =  -423.122073406     A.U. after    1 cycles

 The electronic state is 1-A.
 Alpha  occ. eigenvalues --  -19.15230 -19.14638 -10.23948 -10.23931 -10.23430
 Alpha  occ. eigenvalues --  -10.19968 -10.19571 -10.19189 -10.17860  -1.07882
 Alpha  occ. eigenvalues --   -1.02770  -0.86932  -0.76084  -0.70843  -0.65238
 Alpha  occ. eigenvalues --   -0.61576  -0.58226  -0.56422  -0.51677  -0.48531
 Alpha  occ. eigenvalues --   -0.46526  -0.45259  -0.42688  -0.40997  -0.40571
 Alpha  occ. eigenvalues --   -0.38989  -0.38668  -0.36007  -0.33920  -0.31258
 Alpha  occ. eigenvalues --   -0.30426  -0.28543  -0.25757  -0.24728
 Alpha virt. eigenvalues --    0.06675   0.08764   0.09174   0.10976   0.12045
 Alpha virt. eigenvalues --    0.12610   0.13282   0.15488   0.15816   0.16193
 Alpha virt. eigenvalues --    0.16661   0.17848   0.19457   0.19826   0.21903

 Mulliken charges:
               1
     1  C   -0.410847
     2  C   -0.062952
     3  C   -0.372491
     4  C    0.306264
     5  C   -0.080349
     6  O   -0.241174
     7  C   -0.031066
     8  C    0.032870
     9  O   -0.427545
    10  H    0.127434
    11  H    0.118042
    12  H    0.124379
    13  H    0.087266
    14  H    0.112674
    15  H    0.118608
    16  H    0.104806
    17  H    0.107390
    18  H    0.103811
    19  H    0.282880
 Sum of Mulliken charges =   0.00000

 Dipole moment (field-independent basis, Debye):
    X=              0.5588    Y=              0.1108    Z=              2.1104  Tot=              2.1859
 Quadrupole moment (field-independent basis, Debye-Ang):
   XX=            -52.2823   YY=            -57.3888   ZZ=            -50.8264
   XY=             -2.2905   XZ=             -2.8686   YZ=             -0.2064

  Exact polarizability:  84.744  -1.481  71.100   0.938  -1.172  70.321
 Approx polarizability: 111.657  -2.565 111.144   5.992   0.862 108.191

                      1                      2                      3
                      A                      A                      A
 Frequencies --     92.4010               146.4163               197.0399
 Red. masses --      3.9064                 3.0784                 2.0615
 Frc consts  --      0.0197                 0.0389                 0.0472
 IR Inten    --      0.8104                 1.6245                 0.6852

                      4                      5                      6
                      A                      A                      A
 Frequencies --    224.4117               240.8943               305.8380
 Red. masses --      2.0152                 1.8281                 1.3941
 Frc consts  --      0.0598                 0.0625                 0.0768
 IR Inten    --      1.5522                 1.5481                40.5230

                      7                      8                      9
                      A                      A                      A
 Frequencies --    362.0636               390.1120               416.0091
 Red. masses --      2.3257                 2.7473                 2.6341
 Frc consts  --      0.1796                 0.2463                 0.2686
 IR Inten    --     62.9445                10.1455                 1.7014

                     10                     11                     12
                      A                      A                      A
 Frequencies --    519.5872               560.3213               588.2556
 Red. masses --      6.0389                 3.9775                 3.4575
 Frc consts  --      0.9606                 0.7358                 0.7049
 IR Inten    --      8.2186                 1.3961                 4.9907

                     13                     14                     15
                      A                      A                      A
 Frequencies --    790.3140               835.1934               847.1027
 Red. masses --      2.5653                 2.9777                 1.8339
 Frc consts  --      0.9440                 1.2238                 0.7753
 IR Inten    --      4.9093                16.1246                 8.6368

                     16                     17                     18
                      A                      A                      A
 Frequencies --    867.7035               885.4807               905.1486
 Red. masses --      2.0794                 2.7097                 1.3788
 Frc consts  --      0.9224                 1.2518                 0.6656
 IR Inten    --     23.7379                21.6958                 1.9446

                     19                     20                     21
                      A                      A                      A
 Frequencies --    939.7340               964.2697               986.5007
 Red. masses --      2.5500                 2.0731                 2.4336
 Frc consts  --      1.3268                 1.1357                 1.3954
 IR Inten    --      6.9845                12.3637                12.8451

                     22                     23                     24
                      A                      A                      A
 Frequencies --   1024.9241              1050.9748              1059.8041
 Red. masses --      1.7483                 1.3378                 1.3550
 Frc consts  --      1.0821                 0.8706                 0.8967
 IR Inten    --      6.7943                 2.8409                 3.1809

                     25                     26                     27
                      A                      A                      A
 Frequencies --   1096.7786              1116.2985              1127.2380
 Red. masses --      2.4250                 3.0902                 1.7410
 Frc consts  --      1.7187                 2.2688                 1.3034
 IR Inten    --      8.1710                78.6939                 4.1888

                     28                     29                     30
                      A                      A                      A
 Frequencies --   1181.6877              1197.7095              1210.5790
 Red. masses --      1.5825                 1.5888                 1.4418
 Frc consts  --      1.3019                 1.3428                 1.2449
 IR Inten    --      2.2642                 5.1256                 8.9837

                     31                     32                     33
                      A                      A                      A
 Frequencies --   1230.8545              1244.2534              1285.4513
 Red. masses --      1.4439                 1.6469                 1.7033
 Frc consts  --      1.2888                 1.5022                 1.6583
 IR Inten    --      3.8875                16.5937                 1.1602

                     34                     35                     36
                      A                      A                      A
 Frequencies --   1326.0560              1372.5841              1411.7478
 Red. masses --      1.7794                 3.3717                 1.2713
 Frc consts  --      1.8436                 3.7427                 1.4929
 IR Inten    --      0.2509                18.8770                 3.5202

                     37                     38                     39
                      A                      A                      A
 Frequencies --   1420.8300              1432.1457              1489.1248
 Red. masses --      1.2760                 1.6480                 1.3644
 Frc consts  --      1.5177                 1.9916                 1.7826
 IR Inten    --     67.4054                 6.7229                 5.5588

                     40                     41                     42
                      A                      A                      A
 Frequencies --   1494.6822              1506.7422              3029.8894
 Red. masses --      1.0514                 1.2670                 1.0351
 Frc consts  --      1.3839                 1.6947                 5.5986
 IR Inten    --      2.2353                 2.7975                27.8927

                     43                     44                     45
                      A                      A                      A
 Frequencies --   3090.3790              3093.8867              3100.2404
 Red. masses --      1.0878                 1.1003                 1.0988
 Frc consts  --      6.1209                 6.2055                 6.2224
 IR Inten    --     20.6810                28.9303                 9.6631

                     46                     47                     48
                      A                      A                      A
 Frequencies --   3115.7563              3131.7571              3172.5263
 Red. masses --      1.0536                 1.0895                 1.0877
 Frc consts  --      6.0265                 6.2961                 6.4503
 IR Inten    --     13.5246                24.7026                15.5120

                     49                     50                     51
                      A                      A                      A
 Frequencies --   3188.1477              3201.8260              3794.7093
 Red. masses --      1.1016                 1.1161                 1.0656
 Frc consts  --      6.5970                 6.7415                 9.0403
 IR Inten    --     21.7635                 9.1704                12.9638

 - Thermochemistry -
 -------------------
 Temperature   298.150 Kelvin.  Pressure   1.00000 Atm.
 Atom     1 has atomic number  6 and mass  12.00000

 Molecular mass:   126.06808 amu.
 Principal axes and moments of inertia in atomic units:
                           1         2         3
     Eigenvalues --   750.567001218.871291490.75810
           X            0.99941  -0.02070  -0.02727
           Y            0.02041   0.99973  -0.01096
           Z            0.02749   0.01039   0.99957
 This molecule is an asymmetric top.
 Rotational symmetry number  1.
 Warning -- assumption of classical behavior for rotation
           may cause significant error
 Rotational temperatures (Kelvin)      0.11540     0.07106     0.05810
 Rotational constants (GHZ):           2.40450     1.48067     1.21062
 Zero-point vibrational energy     414293.0 (Joules/Mol)
                                   99.01840 (Kcal/Mol)
 Warning -- explicit consideration of  12 degrees of freedom as
           vibrations may cause significant error
 Vibrational temperatures:    132.94   210.66   283.50   322.88   346.59
          (Kelvin)            440.03   520.93   561.28   598.54   747.57
                              806.18   846.37  1137.08  1201.66  1218.79
                             1248.43  1274.01  1302.31  1352.07  1387.37
                             1419.35  1474.64  1512.12  1524.82  1578.02
                             1606.10  1621.84  1700.18  1723.23  1741.75
                             1770.92  1790.20  1849.48  1907.90  1974.84
                             2031.19  2044.25  2060.54  2142.52  2150.51
                             2167.86  4359.33  4446.36  4451.41  4460.55
                             4482.87  4505.89  4564.55  4587.03  4606.71
                             5459.73

 Zero-point correction=                           0.157796 (Hartree/Particle)
 Thermal correction to Energy=                    0.166373
 Thermal correction to Enthalpy=                  0.167317
 Thermal correction to Gibbs Free Energy=         0.124827
 Sum of electronic and zero-point Energies=           -422.964278
 Sum of electronic and thermal Energies=              -422.955700
 Sum of electronic and thermal Enthalpies=            -422.954756
 Sum of electronic and thermal Free Energies=         -422.997247

                     E (Thermal)             CV                S
                      KCal/Mol        Cal/Mol-Kelvin    Cal/Mol-Kelvin
 Total                  104.401             33.137             89.430
 Electronic               0.000              0.000              0.000
 Translational            0.889              2.981             40.409
 Rotational               0.889              2.981             28.702
 Vibrational            102.623             27.175             20.319
 Vibration     1          0.602              1.955              3.609
 Vibration     2          0.617              1.907              2.718
 Vibration     3          0.636              1.844              2.161
 Vibration     4          0.649              1.804              1.923
 Vibration     5          0.658              1.778              1.796
 Vibration     6          0.696              1.663              1.385
 Vibration     7          0.736              1.550              1.113
 Vibration     8          0.758              1.491              1.000
 Vibration     9          0.779              1.435              0.906
 Vibration    10          0.875              1.207              0.611
 Vibration    11          0.916              1.117              0.523
 Vibration    12          0.945              1.057              0.470

 Normal termination of Gaussian 09 at Tue Jan 28 02:42:57 2020.
