 Gaussian 09, Revision D.01,
 Gaussian 09:  ES64L-G09RevD.01 24-Apr-2013

 -----------------------------
 # b3lyp 6-31G(2df,p) opt Freq
 -----------------------------

 -----
 titel
 -----
 Symbolic Z-matrix:
 Charge =  0 Multiplicity = 1

 SCF Done:  E(RB3LYP) =  -423.186073709     A.U. after   14 cycles
 SCF Done:  E(RB3LYP) =  -423.186073582     A.U. after    8 cycles
 SCF Done:  E(RB3LYP) =  -423.186073798     A.U. after    8 cycles
 Optimization completed.
    -- Stationary point found.
 Normal termination of Gaussian 09 at Tue Jan 28 12:14:25 2020.

 ----------------------------------------------------------------------
 #N Geom=AllCheck Guess=TCheck SCRF=Check GenChk RB3LYP/6-31G(2df,p) Fr
 eq
 ----------------------------------------------------------------------

 Structure from the checkpoint file:  "/scratch/puck/g09_91e462d3-d4f8-42fc-a1d7-b91be9b8f3f1/Gau-1509.chk"
 -----
 titel
 -----
 Charge =  0 Multiplicity = 1

                         Standard orientation:
 ---------------------------------------------------------------------
 Center     Atomic      Atomic             Coordinates (Angstroms)
 Number     Number       Type             X           Y           Z
 ---------------------------------------------------------------------
      1          6           0       -4.686714    0.381257    0.172209
      2          6           0       -3.189310    0.358982    0.483408
      3          6           0       -2.386228   -0.436961   -0.565743
      4          6           0       -0.954772   -0.477590   -0.293863
      5          6           0        0.224015   -0.492695   -0.050352
      6          6           0        1.639793   -0.551807    0.256394
      7          8           0        2.313993    0.551191   -0.405611
      8          6           0        3.634260    0.607631   -0.194699
      9          8           0        4.275836   -0.155341    0.474734
     10          1           0       -5.237779    0.948984    0.927641
     11          1           0       -4.883901    0.843712   -0.801399
     12          1           0       -5.103113   -0.632017    0.147546
     13          1           0       -2.796696    1.380800    0.527943
     14          1           0       -3.015016   -0.081964    1.471188
     15          1           0       -2.774016   -1.463157   -0.620942
     16          1           0       -2.552178   -0.001260   -1.560263
     17          1           0        1.825978   -0.478378    1.333198
     18          1           0        2.090286   -1.490532   -0.083528
     19          1           0        4.041529    1.474118   -0.738494
 ---------------------------------------------------------------------

 SCF Done:  E(RB3LYP) =  -423.186073798     A.U. after    1 cycles

 The electronic state is 1-A.
 Alpha  occ. eigenvalues --  -19.19293 -19.13617 -10.30998 -10.26562 -10.21067
 Alpha  occ. eigenvalues --  -10.19219 -10.18519 -10.18147 -10.17823  -1.10895
 Alpha  occ. eigenvalues --   -1.02349  -0.81297  -0.78304  -0.73296  -0.68149
 Alpha  occ. eigenvalues --   -0.61003  -0.60009  -0.53945  -0.49400  -0.49283
 Alpha  occ. eigenvalues --   -0.47481  -0.47250  -0.44872  -0.42249  -0.40690
 Alpha  occ. eigenvalues --   -0.40445  -0.37257  -0.36795  -0.35410  -0.34243
 Alpha  occ. eigenvalues --   -0.31341  -0.28922  -0.26274  -0.25762
 Alpha virt. eigenvalues --    0.00669   0.02916   0.04932   0.09135   0.11455
 Alpha virt. eigenvalues --    0.13075   0.13419   0.13771   0.14466   0.16740
 Alpha virt. eigenvalues --    0.17262   0.18117   0.18413   0.21626   0.22278

 Mulliken charges:
               1
     1  C   -0.382327
     2  C   -0.156300
     3  C   -0.339540
     4  C    0.099479
     5  C    0.056395
     6  C   -0.227951
     7  O   -0.200505
     8  C    0.193654
     9  O   -0.299429
    10  H    0.117205
    11  H    0.117372
    12  H    0.116948
    13  H    0.112113
    14  H    0.110237
    15  H    0.130117
    16  H    0.132132
    17  H    0.151714
    18  H    0.152125
    19  H    0.116561
 Sum of Mulliken charges =   0.00000

 Dipole moment (field-independent basis, Debye):
    X=             -2.5698    Y=              0.3948    Z=             -0.5259  Tot=              2.6526
 Quadrupole moment (field-independent basis, Debye-Ang):
   XX=            -57.4729   YY=            -51.6283   ZZ=            -52.8007
   XY=              3.7894   XZ=             -3.3451   YZ=              0.0545

  Exact polarizability: 127.862   0.766  63.293   5.028  -2.943  60.911
 Approx polarizability: 161.163  -2.460  94.272  15.284  -7.347  92.569

                      1                      2                      3
                      A                      A                      A
 Frequencies --     14.0225                27.7502                63.9061
 Red. masses --      2.7791                 8.3654                 2.2703
 Frc consts  --      0.0003                 0.0038                 0.0055
 IR Inten    --      0.2379                 1.0690                 0.0554

                      4                      5                      6
                      A                      A                      A
 Frequencies --     98.4571               117.7241               224.5654
 Red. masses --      3.1975                 3.5276                 7.0954
 Frc consts  --      0.0183                 0.0288                 0.2108
 IR Inten    --      1.0928                 0.3072                 9.2133

                      7                      8                      9
                      A                      A                      A
 Frequencies --    241.4260               271.3202               306.7957
 Red. masses --      1.0803                 3.1617                 3.4652
 Frc consts  --      0.0371                 0.1371                 0.1922
 IR Inten    --      0.0273                 3.7821                 3.6957

                     10                     11                     12
                      A                      A                      A
 Frequencies --    340.9121               359.8958               473.8017
 Red. masses --      2.2676                 3.5643                 5.6819
 Frc consts  --      0.1553                 0.2720                 0.7515
 IR Inten    --     22.0826                 1.9105                 0.7106

                     13                     14                     15
                      A                      A                      A
 Frequencies --    531.0707               739.0684               742.0238
 Red. masses --      7.3033                 5.7630                 1.1093
 Frc consts  --      1.2136                 1.8547                 0.3599
 IR Inten    --      1.1613                 4.9989                 2.5834

                     16                     17                     18
                      A                      A                      A
 Frequencies --    854.5717               870.7711               903.3507
 Red. masses --      3.2413                 1.2373                 2.2330
 Frc consts  --      1.3946                 0.5527                 1.0736
 IR Inten    --      6.5626                 0.2591                 5.8789

                     19                     20                     21
                      A                      A                      A
 Frequencies --    941.6685              1010.5592              1042.4135
 Red. masses --      8.5261                 1.6736                 2.8663
 Frc consts  --      4.4545                 1.0070                 1.8351
 IR Inten    --     51.2760                 2.0121                 3.1566

                     22                     23                     24
                      A                      A                      A
 Frequencies --   1043.2275              1108.8365              1122.0502
 Red. masses --      1.6537                 2.0619                 1.4582
 Frc consts  --      1.0604                 1.4937                 1.0816
 IR Inten    --      0.1762                 2.3004                 0.1498

                     25                     26                     27
                      A                      A                      A
 Frequencies --   1178.7991              1205.0175              1248.9882
 Red. masses --      2.8055                 8.1157                 1.0725
 Frc consts  --      2.2969                 6.9432                 0.9857
 IR Inten    --      0.0740               504.1586                 2.4668

                     28                     29                     30
                      A                      A                      A
 Frequencies --   1260.0286              1306.8947              1323.1147
 Red. masses --      1.2935                 1.4084                 1.0799
 Frc consts  --      1.2100                 1.4172                 1.1138
 IR Inten    --      0.0809                15.1429                 0.0349

                     31                     32                     33
                      A                      A                      A
 Frequencies --   1381.7180              1392.9733              1403.0242
 Red. masses --      1.4802                 1.4800                 1.1631
 Frc consts  --      1.6650                 1.6920                 1.3489
 IR Inten    --      1.6301                46.2526                13.8630

                     34                     35                     36
                      A                      A                      A
 Frequencies --   1413.3160              1467.8204              1486.3092
 Red. masses --      1.2356                 1.0834                 1.0733
 Frc consts  --      1.4542                 1.3752                 1.3969
 IR Inten    --      1.0608                 1.5231                 6.1236

                     37                     38                     39
                      A                      A                      A
 Frequencies --   1491.6154              1499.1266              1509.1189
 Red. masses --      1.0529                 1.0399                 1.0798
 Frc consts  --      1.3803                 1.3769                 1.4489
 IR Inten    --      0.4662                 5.6327                 3.4826

                     40                     41                     42
                      A                      A                      A
 Frequencies --   1819.2052              2374.7481              3012.4415
 Red. masses --      9.5079                11.8816                 1.0581
 Frc consts  --     18.5396                39.4786                 5.6572
 IR Inten    --    327.0120                22.8256                14.3679

                     43                     44                     45
                      A                      A                      A
 Frequencies --   3030.3959              3030.6683              3039.9667
 Red. masses --      1.0797                 1.0469                 1.0995
 Frc consts  --      5.8420                 5.6653                 5.9869
 IR Inten    --     69.1050                20.7670                 5.1845

                     46                     47                     48
                      A                      A                      A
 Frequencies --   3042.9043              3044.8407              3074.9645
 Red. masses --      1.0595                 1.0567                 1.1026
 Frc consts  --      5.7802                 5.7719                 6.1426
 IR Inten    --     26.7088                 9.9598                 2.6639

                     49                     50                     51
                      A                      A                      A
 Frequencies --   3079.2658              3101.3686              3107.7490
 Red. masses --      1.1054                 1.1034                 1.1004
 Frc consts  --      6.1756                 6.2532                 6.2618
 IR Inten    --      8.8628                55.2332                30.6055

 - Thermochemistry -
 -------------------
 Temperature   298.150 Kelvin.  Pressure   1.00000 Atm.
 Atom     1 has atomic number  6 and mass  12.00000

 Molecular mass:   126.06808 amu.
 Principal axes and moments of inertia in atomic units:
                           1         2         3
     Eigenvalues --   214.440604249.512064287.34903
           X            0.99999  -0.00308  -0.00237
           Y            0.00309   0.99999   0.00347
           Z            0.00236  -0.00348   0.99999
 This molecule is an asymmetric top.
 Rotational symmetry number  1.
 Rotational temperatures (Kelvin)      0.40391     0.02038     0.02020
 Rotational constants (GHZ):           8.41604     0.42469     0.42095
 Zero-point vibrational energy     411375.3 (Joules/Mol)
                                   98.32105 (Kcal/Mol)
 Warning -- explicit consideration of  13 degrees of freedom as
           vibrations may cause significant error
 Vibrational temperatures:     20.18    39.93    91.95   141.66   169.38
          (Kelvin)            323.10   347.36   390.37   441.41   490.50
                              517.81   681.69   764.09  1063.35  1067.61
                             1229.54  1252.84  1299.72  1354.85  1453.97
                             1499.80  1500.97  1595.37  1614.38  1696.03
                             1733.75  1797.01  1812.90  1880.33  1903.66
                             1987.98  2004.18  2018.64  2033.44  2111.86
                             2138.46  2146.10  2156.91  2171.28  2617.43
                             3416.73  4334.23  4360.06  4360.45  4373.83
                             4378.06  4380.84  4424.18  4430.37  4462.17
                             4471.35

 Zero-point correction=                           0.156685 (Hartree/Particle)
 Thermal correction to Energy=                    0.167319
 Thermal correction to Enthalpy=                  0.168263
 Thermal correction to Gibbs Free Energy=         0.117630
 Sum of electronic and zero-point Energies=           -423.029389
 Sum of electronic and thermal Energies=              -423.018755
 Sum of electronic and thermal Enthalpies=            -423.017811
 Sum of electronic and thermal Free Energies=         -423.068443

                     E (Thermal)             CV                S
                      KCal/Mol        Cal/Mol-Kelvin    Cal/Mol-Kelvin
 Total                  104.994             35.402            106.566
 Electronic               0.000              0.000              0.000
 Translational            0.889              2.981             40.409
 Rotational               0.889              2.981             29.748
 Vibrational            103.217             29.441             36.410
 Vibration     1          0.593              1.986              7.339
 Vibration     2          0.593              1.984              5.984
 Vibration     3          0.597              1.972              4.333
 Vibration     4          0.604              1.950              3.485
 Vibration     5          0.608              1.935              3.137
 Vibration     6          0.649              1.804              1.922
 Vibration     7          0.658              1.777              1.792
 Vibration     8          0.675              1.726              1.588
 Vibration     9          0.697              1.661              1.380
 Vibration    10          0.720              1.594              1.208
 Vibration    11          0.734              1.555              1.123
 Vibration    12          0.831              1.308              0.727
 Vibration    13          0.886              1.181              0.585

 Normal termination of Gaussian 09 at Tue Jan 28 12:47:33 2020.
