 Gaussian 09, Revision D.01,
 Gaussian 09:  ES64L-G09RevD.01 24-Apr-2013

 -----------------------------
 # b3lyp 6-31G(2df,p) opt Freq
 -----------------------------

 -----
 titel
 -----
 Symbolic Z-matrix:
 Charge =  0 Multiplicity = 1

 SCF Done:  E(RB3LYP) =  -423.186306143     A.U. after   14 cycles
 Optimization completed.
    -- Stationary point found.
 Normal termination of Gaussian 09 at Tue Jan 28 00:02:52 2020.

 ----------------------------------------------------------------------
 #N Geom=AllCheck Guess=TCheck SCRF=Check GenChk RB3LYP/6-31G(2df,p) Fr
 eq
 ----------------------------------------------------------------------

 Structure from the checkpoint file:  "/scratch/puck/g09_184eeda1-bf5a-4f69-b02e-91ba38b0e8c6/Gau-184670.chk"
 -----
 titel
 -----
 Charge =  0 Multiplicity = 1

                         Standard orientation:
 ---------------------------------------------------------------------
 Center     Atomic      Atomic             Coordinates (Angstroms)
 Number     Number       Type             X           Y           Z
 ---------------------------------------------------------------------
      1          6           0        2.635102   -0.053522   -0.077931
      2          6           0        1.161004    0.017271    0.140396
      3          6           0        0.458838    0.026668    1.286549
      4          6           0       -1.017176   -0.067962    0.934520
      5          6           0       -1.214137   -1.469406    0.297038
      6          8           0       -0.454193   -1.403497   -0.922935
      7          6           0        0.116048   -0.070265   -0.969448
      8          6           0       -1.033983    0.776607   -0.377823
      9          8           0       -0.818816    2.153687   -0.240365
     10          1           0        2.905300   -0.989889   -0.582020
     11          1           0        2.986331    0.760934   -0.723472
     12          1           0        3.186658   -0.005239    0.865352
     13          1           0        0.859977   -0.021924    2.292351
     14          1           0       -1.738028    0.195883    1.707352
     15          1           0       -0.838023   -2.281759    0.929493
     16          1           0       -2.267464   -1.663717    0.058617
     17          1           0        0.438050    0.129029   -1.990857
     18          1           0       -1.955750    0.660555   -0.953418
     19          1           0       -0.027157    2.258259    0.303212
 ---------------------------------------------------------------------

 SCF Done:  E(RB3LYP) =  -423.186306143     A.U. after    1 cycles

 The electronic state is 1-A.
 Alpha  occ. eigenvalues --  -19.13591 -19.13543 -10.23185 -10.22875 -10.22702
 Alpha  occ. eigenvalues --  -10.19455 -10.19314 -10.18932 -10.18566  -1.03822
 Alpha  occ. eigenvalues --   -1.01633  -0.83729  -0.76379  -0.72152  -0.68332
 Alpha  occ. eigenvalues --   -0.60623  -0.58821  -0.53879  -0.50915  -0.48878
 Alpha  occ. eigenvalues --   -0.47321  -0.43156  -0.41679  -0.41482  -0.40613
 Alpha  occ. eigenvalues --   -0.39972  -0.37673  -0.37213  -0.35101  -0.33089
 Alpha  occ. eigenvalues --   -0.31799  -0.27384  -0.25080  -0.23155
 Alpha virt. eigenvalues --    0.00400   0.09181   0.10269   0.11182   0.12911
 Alpha virt. eigenvalues --    0.13442   0.15045   0.15254   0.16592   0.16872
 Alpha virt. eigenvalues --    0.17552   0.17590   0.19359   0.21088   0.21834

 Mulliken charges:
               1
     1  C   -0.518237
     2  C    0.331872
     3  C   -0.217357
     4  C   -0.132562
     5  C   -0.074010
     6  O   -0.277174
     7  C   -0.025915
     8  C    0.156004
     9  O   -0.449336
    10  H    0.142187
    11  H    0.128930
    12  H    0.125189
    13  H    0.096124
    14  H    0.073577
    15  H    0.099132
    16  H    0.101859
    17  H    0.073497
    18  H    0.093139
    19  H    0.273080
 Sum of Mulliken charges =   0.00000

 Dipole moment (field-independent basis, Debye):
    X=              1.1121    Y=             -0.1834    Z=              1.4909  Tot=              1.8690
 Quadrupole moment (field-independent basis, Debye-Ang):
   XX=            -49.8800   YY=            -58.7239   ZZ=            -51.8591
   XY=              3.3601   XZ=             -1.1904   YZ=             -0.9501

  Exact polarizability:  85.808   3.601  68.231  -3.504  -1.424  73.476
 Approx polarizability: 118.766   4.542 103.003  -9.651   0.621 121.541

                      1                      2                      3
                      A                      A                      A
 Frequencies --    142.2895               183.3607               256.2791
 Red. masses --      3.2203                 1.0365                 3.8269
 Frc consts  --      0.0384                 0.0205                 0.1481
 IR Inten    --      0.4262                 0.2403                 6.9686

                      4                      5                      6
                      A                      A                      A
 Frequencies --    265.6016               314.7833               339.4955
 Red. masses --      2.6654                 3.7228                 2.2275
 Frc consts  --      0.1108                 0.2173                 0.1513
 IR Inten    --      2.4044                 1.1840                 4.5651

                      7                      8                      9
                      A                      A                      A
 Frequencies --    430.5925               450.9536               531.6493
 Red. masses --      2.3586                 1.4455                 4.0495
 Frc consts  --      0.2577                 0.1732                 0.6744
 IR Inten    --     10.0633                46.8139                 3.7040

                     10                     11                     12
                      A                      A                      A
 Frequencies --    579.8176               613.8005               720.6034
 Red. masses --      4.3530                 3.8314                 4.2791
 Frc consts  --      0.8622                 0.8505                 1.3092
 IR Inten    --      1.7812                 1.4124                 6.1751

                     13                     14                     15
                      A                      A                      A
 Frequencies --    802.8544               841.2440               879.9606
 Red. masses --      3.5205                 1.6134                 2.1715
 Frc consts  --      1.3370                 0.6727                 0.9907
 IR Inten    --      8.9221                16.5717                 2.3411

                     16                     17                     18
                      A                      A                      A
 Frequencies --    897.8178               910.7333               918.8782
 Red. masses --      2.6358                 2.8559                 5.5636
 Frc consts  --      1.2518                 1.3956                 2.7677
 IR Inten    --     22.7068                15.0799                 8.4388

                     19                     20                     21
                      A                      A                      A
 Frequencies --    951.2599               979.2973              1004.9545
 Red. masses --      1.9466                 2.7653                 2.7908
 Frc consts  --      1.0378                 1.5625                 1.6606
 IR Inten    --      6.1324                12.2677                32.8344

                     22                     23                     24
                      A                      A                      A
 Frequencies --   1020.7059              1063.2371              1065.7782
 Red. masses --      1.5524                 1.4898                 1.6279
 Frc consts  --      0.9529                 0.9923                 1.0895
 IR Inten    --     17.3263                 6.4759                 4.7261

                     25                     26                     27
                      A                      A                      A
 Frequencies --   1131.5679              1150.4664              1198.7664
 Red. masses --      2.7311                 1.8640                 1.2383
 Frc consts  --      2.0604                 1.4536                 1.0484
 IR Inten    --    115.3246                 0.2276                14.8121

                     28                     29                     30
                      A                      A                      A
 Frequencies --   1214.8449              1244.2621              1257.2192
 Red. masses --      1.7925                 1.6838                 1.5497
 Frc consts  --      1.5586                 1.5359                 1.4432
 IR Inten    --     24.4113                 0.3994                 7.4012

                     31                     32                     33
                      A                      A                      A
 Frequencies --   1268.8716              1283.8853              1310.7007
 Red. masses --      1.3428                 1.5238                 1.5384
 Frc consts  --      1.2738                 1.4799                 1.5571
 IR Inten    --      1.0373                 0.6647                13.0028

                     34                     35                     36
                      A                      A                      A
 Frequencies --   1346.7726              1363.7118              1412.3516
 Red. masses --      1.9274                 1.3591                 1.2798
 Frc consts  --      2.0597                 1.4892                 1.5041
 IR Inten    --      7.4293                 5.6060                 0.3736

                     37                     38                     39
                      A                      A                      A
 Frequencies --   1442.1323              1478.9952              1487.4022
 Red. masses --      1.2591                 1.0458                 1.0641
 Frc consts  --      1.5428                 1.3479                 1.3871
 IR Inten    --     84.1475                 5.8845                 8.4653

                     40                     41                     42
                      A                      A                      A
 Frequencies --   1521.6493              1677.1011              3015.7943
 Red. masses --      1.0897                 6.4500                 1.0564
 Frc consts  --      1.4866                10.6888                 5.6607
 IR Inten    --      0.7419                 4.4278                70.0116

                     43                     44                     45
                      A                      A                      A
 Frequencies --   3019.8088              3057.3558              3068.8726
 Red. masses --      1.0371                 1.1095                 1.0987
 Frc consts  --      5.5720                 6.1102                 6.0963
 IR Inten    --     23.3340                32.9863                13.9031

                     46                     47                     48
                      A                      A                      A
 Frequencies --   3091.5777              3107.8476              3127.6564
 Red. masses --      1.0866                 1.1000                 1.0881
 Frc consts  --      6.1190                 6.2601                 6.2712
 IR Inten    --     30.1934                17.8115                39.1956

                     49                     50                     51
                      A                      A                      A
 Frequencies --   3133.1724              3196.7595              3763.5468
 Red. masses --      1.0913                 1.0951                 1.0642
 Frc consts  --      6.3117                 6.5938                 8.8808
 IR Inten    --     17.6143                10.8366                16.9334

 - Thermochemistry -
 -------------------
 Temperature   298.150 Kelvin.  Pressure   1.00000 Atm.
 Atom     1 has atomic number  6 and mass  12.00000

 Molecular mass:   126.06808 amu.
 Principal axes and moments of inertia in atomic units:
                           1         2         3
     Eigenvalues --   817.53117 984.330121267.14412
           X            0.99736   0.07073  -0.01621
           Y           -0.07115   0.99709  -0.02724
           Z            0.01423   0.02832   0.99950
 This molecule is an asymmetric top.
 Rotational symmetry number  1.
 Warning -- assumption of classical behavior for rotation
           may cause significant error
 Rotational temperatures (Kelvin)      0.10595     0.08799     0.06835
 Rotational constants (GHZ):           2.20755     1.83347     1.42426
 Zero-point vibrational energy     421917.2 (Joules/Mol)
                                  100.84062 (Kcal/Mol)
 Warning -- explicit consideration of  11 degrees of freedom as
           vibrations may cause significant error
 Vibrational temperatures:    204.72   263.81   368.73   382.14   452.90
          (Kelvin)            488.46   619.53   648.82   764.92   834.23
                              883.12  1036.79  1155.13  1210.36  1266.07
                             1291.76  1310.34  1322.06  1368.65  1408.99
                             1445.90  1468.57  1529.76  1533.42  1628.07
                             1655.26  1724.76  1747.89  1790.21  1808.86
                             1825.62  1847.22  1885.80  1937.70  1962.07
                             2032.06  2074.90  2127.94  2140.04  2189.31
                             2412.97  4339.05  4344.83  4398.85  4415.42
                             4448.09  4471.49  4499.99  4507.93  4599.42
                             5414.90

 Zero-point correction=                           0.160700 (Hartree/Particle)
 Thermal correction to Energy=                    0.168426
 Thermal correction to Enthalpy=                  0.169370
 Thermal correction to Gibbs Free Energy=         0.128932
 Sum of electronic and zero-point Energies=           -423.025606
 Sum of electronic and thermal Energies=              -423.017880
 Sum of electronic and thermal Enthalpies=            -423.016936
 Sum of electronic and thermal Free Energies=         -423.057374

                     E (Thermal)             CV                S
                      KCal/Mol        Cal/Mol-Kelvin    Cal/Mol-Kelvin
 Total                  105.689             31.097             85.110
 Electronic               0.000              0.000              0.000
 Translational            0.889              2.981             40.409
 Rotational               0.889              2.981             28.413
 Vibrational            103.912             25.136             16.288
 Vibration     1          0.616              1.911              2.773
 Vibration     2          0.631              1.862              2.294
 Vibration     3          0.666              1.752              1.687
 Vibration     4          0.671              1.736              1.625
 Vibration     5          0.702              1.645              1.337
 Vibration     6          0.719              1.597              1.215
 Vibration     7          0.792              1.404              0.857
 Vibration     8          0.810              1.359              0.793
 Vibration     9          0.887              1.180              0.584
 Vibration    10          0.936              1.075              0.486
 Vibration    11          0.973              1.003              0.427

 Normal termination of Gaussian 09 at Tue Jan 28 00:51:47 2020.
