 Gaussian 09, Revision D.01,
 Gaussian 09:  ES64L-G09RevD.01 24-Apr-2013

 -----------------------------
 # b3lyp 6-31G(2df,p) opt Freq
 -----------------------------

 -----
 titel
 -----
 Symbolic Z-matrix:
 Charge =  0 Multiplicity = 1

 SCF Done:  E(RB3LYP) =  -423.186352374     A.U. after   14 cycles
 Optimization completed.
    -- Stationary point found.
 Normal termination of Gaussian 09 at Tue Jan 28 08:09:42 2020.

 ----------------------------------------------------------------------
 #N Geom=AllCheck Guess=TCheck SCRF=Check GenChk RB3LYP/6-31G(2df,p) Fr
 eq
 ----------------------------------------------------------------------

 Structure from the checkpoint file:  "/scratch/puck/g09_fbcec69f-6ed8-4789-829d-f70dc4a7dd4d/Gau-140954.chk"
 -----
 titel
 -----
 Charge =  0 Multiplicity = 1

                         Standard orientation:
 ---------------------------------------------------------------------
 Center     Atomic      Atomic             Coordinates (Angstroms)
 Number     Number       Type             X           Y           Z
 ---------------------------------------------------------------------
      1          6           0       -2.590686   -1.183951    0.197166
      2          6           0       -1.408098   -0.558662   -0.553240
      3          6           0       -1.525408    0.983674   -0.672572
      4          8           0       -0.810099    1.544473    0.436408
      5          6           0        0.153327    0.619228    0.831791
      6          6           0        1.105970    0.072292   -0.246315
      7          6           0        2.440176   -0.372463    0.197273
      8          8           0        3.460426   -0.239100   -0.434110
      9          6           0       -0.117319   -0.714957    0.245393
     10          1           0       -2.444003   -2.258590    0.344714
     11          1           0       -2.715686   -0.720773    1.181568
     12          1           0       -3.521795   -1.046841   -0.361512
     13          1           0       -1.329370   -1.004594   -1.550226
     14          1           0       -1.088932    1.341475   -1.613710
     15          1           0       -2.556648    1.342428   -0.617179
     16          1           0        0.521452    0.798922    1.834633
     17          1           0        1.082177    0.525288   -1.231404
     18          1           0        2.449330   -0.855822    1.204645
     19          1           0        0.053091   -1.635448    0.793107
 ---------------------------------------------------------------------

 SCF Done:  E(RB3LYP) =  -423.186352374     A.U. after    1 cycles

 The electronic state is 1-A.
 Alpha  occ. eigenvalues --  -19.15876 -19.12938 -10.26777 -10.25555 -10.23995
 Alpha  occ. eigenvalues --  -10.21141 -10.21076 -10.20365 -10.18907  -1.06146
 Alpha  occ. eigenvalues --   -1.03718  -0.87141  -0.79784  -0.70321  -0.67534
 Alpha  occ. eigenvalues --   -0.60049  -0.59182  -0.58105  -0.51865  -0.49458
 Alpha  occ. eigenvalues --   -0.47454  -0.44539  -0.43054  -0.42889  -0.40690
 Alpha  occ. eigenvalues --   -0.40400  -0.39639  -0.38172  -0.35874  -0.34087
 Alpha  occ. eigenvalues --   -0.33618  -0.29707  -0.25783  -0.23869
 Alpha virt. eigenvalues --   -0.01841   0.08241   0.08505   0.11092   0.11264
 Alpha virt. eigenvalues --    0.12158   0.13282   0.13844   0.14547   0.16511
 Alpha virt. eigenvalues --    0.16689   0.17712   0.18291   0.19621   0.22105

 Mulliken charges:
               1
     1  C   -0.401694
     2  C   -0.018866
     3  C   -0.107910
     4  O   -0.253314
     5  C    0.113969
     6  C   -0.188664
     7  C    0.157219
     8  O   -0.271770
     9  C   -0.098684
    10  H    0.119584
    11  H    0.130451
    12  H    0.119327
    13  H    0.089009
    14  H    0.108909
    15  H    0.115309
    16  H    0.116994
    17  H    0.109984
    18  H    0.060059
    19  H    0.100089
 Sum of Mulliken charges =   0.00000

 Dipole moment (field-independent basis, Debye):
    X=             -3.4234    Y=             -1.2366    Z=              0.4521  Tot=              3.6679
 Quadrupole moment (field-independent basis, Debye-Ang):
   XX=            -64.6935   YY=            -54.8851   ZZ=            -50.9792
   XY=              1.2735   XZ=              5.5145   YZ=             -1.8659

  Exact polarizability: 100.123  -1.072  65.882  -0.146  -3.459  67.400
 Approx polarizability: 135.729  -3.628 100.421  -8.114  -1.936 106.464

                      1                      2                      3
                      A                      A                      A
 Frequencies --     89.9267               139.0519               149.1300
 Red. masses --      4.8308                 3.6781                 3.2688
 Frc consts  --      0.0230                 0.0419                 0.0428
 IR Inten    --      3.2831                 3.3119                 3.5417

                      4                      5                      6
                      A                      A                      A
 Frequencies --    225.5325               232.8737               305.5480
 Red. masses --      1.2471                 1.7021                 3.0056
 Frc consts  --      0.0374                 0.0544                 0.1653
 IR Inten    --      1.0320                 3.1247                 6.4464

                      7                      8                      9
                      A                      A                      A
 Frequencies --    324.6613               386.5768               405.8300
 Red. masses --      2.8958                 3.5378                 2.7729
 Frc consts  --      0.1798                 0.3115                 0.2691
 IR Inten    --      0.3789                 0.8524                 0.0611

                     10                     11                     12
                      A                      A                      A
 Frequencies --    542.3716               712.8288               723.2977
 Red. masses --      4.2763                 5.2223                 2.9857
 Frc consts  --      0.7412                 1.5634                 0.9203
 IR Inten    --     39.4907                 5.0426                 2.4134

                     13                     14                     15
                      A                      A                      A
 Frequencies --    803.7637               843.7517               871.7263
 Red. masses --      3.9984                 2.9584                 1.7640
 Frc consts  --      1.5219                 1.2409                 0.7898
 IR Inten    --     14.2911                14.5243                36.0455

                     16                     17                     18
                      A                      A                      A
 Frequencies --    929.9092               952.5588               964.7405
 Red. masses --      2.0378                 1.6266                 2.9895
 Frc consts  --      1.0382                 0.8696                 1.6393
 IR Inten    --     28.6096                 6.9551                34.4137

                     19                     20                     21
                      A                      A                      A
 Frequencies --    988.4636              1015.1054              1043.3220
 Red. masses --      2.0420                 1.4747                 1.8235
 Frc consts  --      1.1755                 0.8953                 1.1695
 IR Inten    --      4.0883                32.9079                 2.1010

                     22                     23                     24
                      A                      A                      A
 Frequencies --   1047.8251              1080.6100              1118.4704
 Red. masses --      1.7499                 1.3757                 2.1700
 Frc consts  --      1.1320                 0.9465                 1.5994
 IR Inten    --     11.7334                27.3294                 6.3160

                     25                     26                     27
                      A                      A                      A
 Frequencies --   1143.8159              1156.9350              1162.5882
 Red. masses --      2.0480                 1.8272                 2.3168
 Frc consts  --      1.5786                 1.4410                 1.8450
 IR Inten    --     58.2195                 4.3460                97.8494

                     28                     29                     30
                      A                      A                      A
 Frequencies --   1206.9605              1236.8335              1253.9952
 Red. masses --      1.9796                 1.3068                 1.2878
 Frc consts  --      1.6991                 1.1778                 1.1931
 IR Inten    --      6.6505                 0.6868                 5.4897

                     31                     32                     33
                      A                      A                      A
 Frequencies --   1285.5223              1306.2565              1357.7767
 Red. masses --      1.6928                 1.3042                 1.3305
 Frc consts  --      1.6483                 1.3112                 1.4452
 IR Inten    --      5.3234                 0.4435                10.2374

                     34                     35                     36
                      A                      A                      A
 Frequencies --   1382.2457              1408.9589              1417.4914
 Red. masses --      1.6807                 1.4187                 1.4612
 Frc consts  --      1.8920                 1.6593                 1.7298
 IR Inten    --      1.4822                13.9228                 8.9690

                     37                     38                     39
                      A                      A                      A
 Frequencies --   1448.2894              1495.8851              1499.6046
 Red. masses --      1.3830                 1.0468                 1.0487
 Frc consts  --      1.7091                 1.3800                 1.3895
 IR Inten    --     17.3806                 4.7040                 3.0351

                     40                     41                     42
                      A                      A                      A
 Frequencies --   1523.2421              1814.3304              2831.5388
 Red. masses --      1.0885                 9.9679                 1.0804
 Frc consts  --      1.4881                19.3324                 5.1035
 IR Inten    --      1.4372               302.9588               104.6212

                     43                     44                     45
                      A                      A                      A
 Frequencies --   3018.8359              3034.1124              3053.6877
 Red. masses --      1.0684                 1.0349                 1.0839
 Frc consts  --      5.7365                 5.6131                 5.9553
 IR Inten    --     37.3968                19.2406                24.6204

                     46                     47                     48
                      A                      A                      A
 Frequencies --   3092.1551              3105.9692              3108.0404
 Red. masses --      1.0986                 1.1016                 1.1018
 Frc consts  --      6.1891                 6.2614                 6.2708
 IR Inten    --     22.5830                28.4586                27.9473

                     49                     50                     51
                      A                      A                      A
 Frequencies --   3168.8289              3180.1432              3191.8616
 Red. masses --      1.0900                 1.0892                 1.0927
 Frc consts  --      6.4485                 6.4902                 6.5592
 IR Inten    --      7.4234                 3.1638                 9.4710

 - Thermochemistry -
 -------------------
 Temperature   298.150 Kelvin.  Pressure   1.00000 Atm.
 Atom     1 has atomic number  6 and mass  12.00000

 Molecular mass:   126.06808 amu.
 Principal axes and moments of inertia in atomic units:
                           1         2         3
     Eigenvalues --   496.923501796.136132010.14711
           X            0.99976   0.01910   0.01115
           Y           -0.01830   0.99750  -0.06819
           Z           -0.01242   0.06797   0.99761
 This molecule is an asymmetric top.
 Rotational symmetry number  1.
 Warning -- assumption of classical behavior for rotation
           may cause significant error
 Rotational temperatures (Kelvin)      0.17430     0.04822     0.04309
 Rotational constants (GHZ):           3.63183     1.00479     0.89782
 Zero-point vibrational energy     417399.7 (Joules/Mol)
                                   99.76092 (Kcal/Mol)
 Warning -- explicit consideration of  10 degrees of freedom as
           vibrations may cause significant error
 Vibrational temperatures:    129.38   200.06   214.56   324.49   335.05
          (Kelvin)            439.61   467.11   556.20   583.90   780.35
                             1025.60  1040.66  1156.44  1213.97  1254.22
                             1337.93  1370.52  1388.04  1422.18  1460.51
                             1501.11  1507.58  1554.75  1609.23  1645.69
                             1664.57  1672.70  1736.54  1779.53  1804.22
                             1849.58  1879.41  1953.54  1988.74  2027.18
                             2039.45  2083.76  2152.24  2157.59  2191.60
                             2610.41  4073.95  4343.43  4365.41  4393.57
                             4448.92  4468.79  4471.77  4559.23  4575.51
                             4592.37

 Zero-point correction=                           0.158979 (Hartree/Particle)
 Thermal correction to Energy=                    0.167446
 Thermal correction to Enthalpy=                  0.168390
 Thermal correction to Gibbs Free Energy=         0.125693
 Sum of electronic and zero-point Energies=           -423.027373
 Sum of electronic and thermal Energies=              -423.018907
 Sum of electronic and thermal Enthalpies=            -423.017963
 Sum of electronic and thermal Free Energies=         -423.060659

                     E (Thermal)             CV                S
                      KCal/Mol        Cal/Mol-Kelvin    Cal/Mol-Kelvin
 Total                  105.074             31.706             89.862
 Electronic               0.000              0.000              0.000
 Translational            0.889              2.981             40.409
 Rotational               0.889              2.981             28.974
 Vibrational            103.296             25.744             20.480
 Vibration     1          0.602              1.956              3.662
 Vibration     2          0.615              1.914              2.817
 Vibration     3          0.618              1.904              2.683
 Vibration     4          0.650              1.802              1.914
 Vibration     5          0.654              1.791              1.857
 Vibration     6          0.696              1.663              1.386
 Vibration     7          0.709              1.626              1.287
 Vibration     8          0.755              1.499              1.013
 Vibration     9          0.771              1.458              0.941
 Vibration    10          0.897              1.156              0.560

 Normal termination of Gaussian 09 at Tue Jan 28 08:50:44 2020.
