 Gaussian 09, Revision D.01,
 Gaussian 09:  ES64L-G09RevD.01 24-Apr-2013

 -----------------------------
 # b3lyp 6-31G(2df,p) opt Freq
 -----------------------------

 -----
 titel
 -----
 Symbolic Z-matrix:
 Charge =  0 Multiplicity = 1

 SCF Done:  E(RB3LYP) =  -423.161180413     A.U. after   13 cycles
 Optimization completed.
    -- Stationary point found.
 Normal termination of Gaussian 09 at Tue Jan 28 02:53:00 2020.

 ----------------------------------------------------------------------
 #N Geom=AllCheck Guess=TCheck SCRF=Check GenChk RB3LYP/6-31G(2df,p) Fr
 eq
 ----------------------------------------------------------------------

 Structure from the checkpoint file:  "/scratch/puck/g09_ebb0d8d2-5eed-4f4d-9aa2-1bf31252f86f/Gau-196315.chk"
 -----
 titel
 -----
 Charge =  0 Multiplicity = 1

                         Standard orientation:
 ---------------------------------------------------------------------
 Center     Atomic      Atomic             Coordinates (Angstroms)
 Number     Number       Type             X           Y           Z
 ---------------------------------------------------------------------
      1          8           0       -2.662084    0.381500    0.708182
      2          6           0       -1.792379    0.008800   -0.323873
      3          6           0       -0.974486   -1.344953   -0.252890
      4          6           0        0.243849   -0.596243   -0.883425
      5          6           0        1.649541   -0.460557   -0.228122
      6          8           0        1.742893   -1.074493    1.046047
      7          6           0        1.814902    1.092735   -0.121255
      8          6           0        0.378293    1.584960    0.048961
      9          6           0       -0.445589    0.679820   -0.476449
     10          1           0       -2.138963    0.467245    1.512922
     11          1           0       -2.386100    0.039242   -1.243544
     12          1           0       -0.775101   -1.631167    0.783465
     13          1           0       -1.387424   -2.199437   -0.792786
     14          1           0        0.317765   -0.761876   -1.963290
     15          1           0        2.439127   -0.924999   -0.824765
     16          1           0        1.173914   -0.580282    1.647292
     17          1           0        2.468058    1.349175    0.720078
     18          1           0        2.286105    1.503743   -1.024546
     19          1           0        0.111357    2.494930    0.573662
 ---------------------------------------------------------------------

 SCF Done:  E(RB3LYP) =  -423.161180413     A.U. after    1 cycles

 The electronic state is 1-A.
 Alpha  occ. eigenvalues --  -19.14375 -19.13875 -10.24419 -10.23581 -10.18924
 Alpha  occ. eigenvalues --  -10.18808 -10.18598 -10.18507 -10.18383  -1.02846
 Alpha  occ. eigenvalues --   -1.02182  -0.86638  -0.77891  -0.70398  -0.65681
 Alpha  occ. eigenvalues --   -0.62966  -0.58050  -0.54869  -0.51462  -0.47537
 Alpha  occ. eigenvalues --   -0.46430  -0.45419  -0.43057  -0.41413  -0.39972
 Alpha  occ. eigenvalues --   -0.37618  -0.36884  -0.35968  -0.33413  -0.32737
 Alpha  occ. eigenvalues --   -0.30245  -0.27153  -0.26500  -0.23929
 Alpha virt. eigenvalues --    0.00562   0.06176   0.09264   0.10959   0.11357
 Alpha virt. eigenvalues --    0.12596   0.13976   0.15351   0.15577   0.17120
 Alpha virt. eigenvalues --    0.18483   0.19101   0.19525   0.21046   0.21750

 Mulliken charges:
               1
     1  O   -0.421295
     2  C    0.064436
     3  C   -0.299346
     4  C   -0.060848
     5  C    0.094136
     6  O   -0.423242
     7  C   -0.270458
     8  C   -0.279177
     9  C    0.250549
    10  H    0.274706
    11  H    0.106089
    12  H    0.102107
    13  H    0.106576
    14  H    0.078398
    15  H    0.084453
    16  H    0.274849
    17  H    0.107200
    18  H    0.111788
    19  H    0.099079
 Sum of Mulliken charges =   0.00000

 Dipole moment (field-independent basis, Debye):
    X=              0.5408    Y=              0.6953    Z=              0.0057  Tot=              0.8809
 Quadrupole moment (field-independent basis, Debye-Ang):
   XX=            -61.0589   YY=            -55.1273   ZZ=            -48.4616
   XY=              4.0735   XZ=             -1.3387   YZ=              3.2062

  Exact polarizability:  88.195   7.981  77.334   0.726   6.579  67.499
 Approx polarizability: 124.640  12.633 117.931   4.414  12.145 108.823

                      1                      2                      3
                      A                      A                      A
 Frequencies --     87.9629               138.2010               246.2358
 Red. masses --      4.3711                 3.3093                 3.2205
 Frc consts  --      0.0199                 0.0372                 0.1150
 IR Inten    --      3.2752                 0.5535                 2.6869

                      4                      5                      6
                      A                      A                      A
 Frequencies --    252.9023               332.3397               366.8078
 Red. masses --      3.5294                 1.1805                 1.1336
 Frc consts  --      0.1330                 0.0768                 0.0899
 IR Inten    --      3.0284                24.9397               123.5721

                      7                      8                      9
                      A                      A                      A
 Frequencies --    389.1205               400.8505               487.7613
 Red. masses --      2.6121                 2.3306                 3.6858
 Frc consts  --      0.2330                 0.2206                 0.5167
 IR Inten    --      6.8112                 4.4983                10.0865

                     10                     11                     12
                      A                      A                      A
 Frequencies --    544.9082               649.9139               660.6001
 Red. masses --      3.4366                 3.8778                 2.0970
 Frc consts  --      0.6012                 0.9651                 0.5392
 IR Inten    --     16.7997                 8.2701                11.1029

                     13                     14                     15
                      A                      A                      A
 Frequencies --    738.5620               807.9862               817.0409
 Red. masses --      3.4334                 2.4056                 1.6903
 Frc consts  --      1.1034                 0.9253                 0.6648
 IR Inten    --      3.1181                 1.5330                 5.6162

                     16                     17                     18
                      A                      A                      A
 Frequencies --    848.9494               870.6616               925.3961
 Red. masses --      3.6186                 2.2030                 2.5782
 Frc consts  --      1.5366                 0.9839                 1.3008
 IR Inten    --     11.9827                11.4085                20.2659

                     19                     20                     21
                      A                      A                      A
 Frequencies --    942.3128               968.0542               982.2999
 Red. masses --      2.1963                 2.0235                 2.4208
 Frc consts  --      1.1490                 1.1172                 1.3763
 IR Inten    --      0.9694                11.5005                 6.2842

                     22                     23                     24
                      A                      A                      A
 Frequencies --   1037.2011              1039.7230              1090.2897
 Red. masses --      3.2680                 1.8621                 1.6195
 Frc consts  --      2.0714                 1.1860                 1.1343
 IR Inten    --     19.6307                 6.1127                 7.1797

                     25                     26                     27
                      A                      A                      A
 Frequencies --   1101.6135              1145.4531              1153.0802
 Red. masses --      2.1372                 2.4735                 1.2313
 Frc consts  --      1.5281                 1.9121                 0.9646
 IR Inten    --     33.9622                91.0258                72.5511

                     28                     29                     30
                      A                      A                      A
 Frequencies --   1172.9864              1213.6711              1224.6536
 Red. masses --      1.2078                 1.4499                 1.5644
 Frc consts  --      0.9791                 1.2583                 1.3824
 IR Inten    --     53.7304                 3.6335                 0.2765

                     31                     32                     33
                      A                      A                      A
 Frequencies --   1248.6187              1274.2914              1285.4451
 Red. masses --      1.3661                 1.5261                 1.5087
 Frc consts  --      1.2549                 1.4601                 1.4688
 IR Inten    --     10.1707                 4.7365                 2.4448

                     34                     35                     36
                      A                      A                      A
 Frequencies --   1299.0597              1321.1145              1341.9263
 Red. masses --      1.4739                 1.6982                 1.5918
 Frc consts  --      1.4654                 1.7463                 1.6888
 IR Inten    --      3.3709                 1.1138                 1.7023

                     37                     38                     39
                      A                      A                      A
 Frequencies --   1428.1693              1431.5564              1477.3447
 Red. masses --      1.2432                 1.2073                 1.1060
 Frc consts  --      1.4941                 1.4577                 1.4223
 IR Inten    --     82.4325                61.0725                 3.1155

                     40                     41                     42
                      A                      A                      A
 Frequencies --   1479.3809              1715.6254              3015.6774
 Red. masses --      1.0908                 8.4178                 1.0663
 Frc consts  --      1.4066                14.5980                 5.7137
 IR Inten    --      1.4722                 4.9632                34.5659

                     43                     44                     45
                      A                      A                      A
 Frequencies --   3048.3001              3058.7888              3063.1895
 Red. masses --      1.0840                 1.0841                 1.0581
 Frc consts  --      5.9344                 5.9763                 5.8494
 IR Inten    --     11.6894                31.1579                30.5093

                     46                     47                     48
                      A                      A                      A
 Frequencies --   3069.7189              3083.0676              3126.3073
 Red. masses --      1.0959                 1.0876                 1.1086
 Frc consts  --      6.0842                 6.0910                 6.3838
 IR Inten    --     17.2751                53.5573                31.1648

                     49                     50                     51
                      A                      A                      A
 Frequencies --   3198.2036              3790.6703              3799.9318
 Red. masses --      1.0943                 1.0655                 1.0656
 Frc consts  --      6.5947                 9.0209                 9.0658
 IR Inten    --      9.4910                 5.1513                 9.4660

 - Thermochemistry -
 -------------------
 Temperature   298.150 Kelvin.  Pressure   1.00000 Atm.
 Atom     1 has atomic number  8 and mass  15.99491

 Molecular mass:   126.06808 amu.
 Principal axes and moments of inertia in atomic units:
                           1         2         3
     Eigenvalues --   620.783781341.025311571.60112
           X            0.99938   0.03500  -0.00236
           Y           -0.03484   0.99814   0.05010
           Z            0.00411  -0.04999   0.99874
 This molecule is an asymmetric top.
 Rotational symmetry number  1.
 Warning -- assumption of classical behavior for rotation
           may cause significant error
 Rotational temperatures (Kelvin)      0.13952     0.06459     0.05511
 Rotational constants (GHZ):           2.90720     1.34579     1.14835
 Zero-point vibrational energy     419852.9 (Joules/Mol)
                                  100.34726 (Kcal/Mol)
 Warning -- explicit consideration of  10 degrees of freedom as
           vibrations may cause significant error
 Vibrational temperatures:    126.56   198.84   354.28   363.87   478.16
          (Kelvin)            527.75   559.86   576.73   701.78   784.00
                              935.08   950.45  1062.62  1162.51  1175.54
                             1221.45  1252.69  1331.44  1355.78  1392.81
                             1413.31  1492.30  1495.93  1568.68  1584.97
                             1648.05  1659.02  1687.66  1746.20  1762.00
                             1796.48  1833.42  1849.47  1869.05  1900.79
                             1930.73  2054.81  2059.69  2125.57  2128.50
                             2468.40  4338.88  4385.82  4400.91  4407.24
                             4416.64  4435.84  4498.05  4601.50  5453.92
                             5467.25

 Zero-point correction=                           0.159914 (Hartree/Particle)
 Thermal correction to Energy=                    0.168035
 Thermal correction to Enthalpy=                  0.168979
 Thermal correction to Gibbs Free Energy=         0.127393
 Sum of electronic and zero-point Energies=           -423.001267
 Sum of electronic and thermal Energies=              -422.993145
 Sum of electronic and thermal Enthalpies=            -422.992201
 Sum of electronic and thermal Free Energies=         -423.033788

                     E (Thermal)             CV                S
                      KCal/Mol        Cal/Mol-Kelvin    Cal/Mol-Kelvin
 Total                  105.444             32.217             87.527
 Electronic               0.000              0.000              0.000
 Translational            0.889              2.981             40.409
 Rotational               0.889              2.981             28.661
 Vibrational            103.666             26.256             18.457
 Vibration     1          0.601              1.958              3.705
 Vibration     2          0.614              1.915              2.829
 Vibration     3          0.661              1.769              1.757
 Vibration     4          0.664              1.758              1.710
 Vibration     5          0.714              1.611              1.249
 Vibration     6          0.740              1.541              1.093
 Vibration     7          0.757              1.493              1.004
 Vibration     8          0.767              1.468              0.960
 Vibration     9          0.844              1.277              0.689
 Vibration    10          0.900              1.151              0.555

 Normal termination of Gaussian 09 at Tue Jan 28 03:40:34 2020.
