 Gaussian 09, Revision D.01,
 Gaussian 09:  ES64L-G09RevD.01 24-Apr-2013

 -----------------------------
 # b3lyp 6-31G(2df,p) opt Freq
 -----------------------------

 -----
 titel
 -----
 Symbolic Z-matrix:
 Charge =  0 Multiplicity = 1

 SCF Done:  E(RB3LYP) =  -423.173716549     A.U. after   13 cycles
 SCF Done:  E(RB3LYP) =  -423.173717218     A.U. after    6 cycles
 Optimization completed.
    -- Stationary point found.
 Normal termination of Gaussian 09 at Mon Jan 27 18:32:21 2020.

 ----------------------------------------------------------------------
 #N Geom=AllCheck Guess=TCheck SCRF=Check GenChk RB3LYP/6-31G(2df,p) Fr
 eq
 ----------------------------------------------------------------------

 Structure from the checkpoint file:  "/scratch/puck/g09_12541d7c-45ee-4790-8c70-713336c4f1f5/Gau-35455.chk"
 -----
 titel
 -----
 Charge =  0 Multiplicity = 1

                         Standard orientation:
 ---------------------------------------------------------------------
 Center     Atomic      Atomic             Coordinates (Angstroms)
 Number     Number       Type             X           Y           Z
 ---------------------------------------------------------------------
      1          8           0        1.636747   -1.584114    0.066421
      2          6           0        0.699914   -0.542604    0.008929
      3          6           0        1.301392    0.695733   -0.695752
      4          8           0        0.443617    1.779382   -0.299361
      5          6           0       -0.565250    1.194511    0.558328
      6          6           0        0.243916    0.141779    1.322461
      7          6           0       -1.485337    0.380463   -0.353757
      8          6           0       -1.902172   -1.013653    0.040328
      9          6           0       -0.618676   -0.814688   -0.727311
     10          1           0        1.189157   -2.368295    0.400521
     11          1           0        2.326918    0.879420   -0.352070
     12          1           0        1.305544    0.593308   -1.787098
     13          1           0       -1.027634    2.003032    1.124692
     14          1           0        1.080072    0.586424    1.864783
     15          1           0       -0.325938   -0.496075    1.998519
     16          1           0       -2.058634    0.920506   -1.097872
     17          1           0       -1.905134   -1.328127    1.077766
     18          1           0       -2.721527   -1.431833   -0.535116
     19          1           0       -0.548459   -1.169738   -1.749963
 ---------------------------------------------------------------------

 SCF Done:  E(RB3LYP) =  -423.173717218     A.U. after    1 cycles

 The electronic state is 1-A.
 Alpha  occ. eigenvalues --  -19.14359 -19.12878 -10.24280 -10.23410 -10.21805
 Alpha  occ. eigenvalues --  -10.19435 -10.19234 -10.19184 -10.17930  -1.03806
 Alpha  occ. eigenvalues --   -1.01899  -0.87831  -0.76174  -0.73375  -0.63976
 Alpha  occ. eigenvalues --   -0.61667  -0.57242  -0.54355  -0.53335  -0.50056
 Alpha  occ. eigenvalues --   -0.48424  -0.44051  -0.42859  -0.41023  -0.39814
 Alpha  occ. eigenvalues --   -0.37879  -0.37282  -0.35410  -0.34903  -0.32749
 Alpha  occ. eigenvalues --   -0.29516  -0.28131  -0.25733  -0.23972
 Alpha virt. eigenvalues --    0.07145   0.09115   0.10572   0.11471   0.12955
 Alpha virt. eigenvalues --    0.14365   0.15010   0.15619   0.16739   0.17215
 Alpha virt. eigenvalues --    0.18075   0.19815   0.21112   0.21990   0.23558

 Mulliken charges:
               1
     1  O   -0.498132
     2  C    0.373702
     3  C   -0.084911
     4  O   -0.280646
     5  C    0.087828
     6  C   -0.317470
     7  C   -0.022519
     8  C   -0.342942
     9  C   -0.094387
    10  H    0.279551
    11  H    0.102941
    12  H    0.097039
    13  H    0.075852
    14  H    0.110787
    15  H    0.097223
    16  H    0.096081
    17  H    0.112077
    18  H    0.116110
    19  H    0.091815
 Sum of Mulliken charges =   0.00000

 Dipole moment (field-independent basis, Debye):
    X=             -1.5744    Y=             -1.6815    Z=              0.6669  Tot=              2.3982
 Quadrupole moment (field-independent basis, Debye-Ang):
   XX=            -54.7626   YY=            -54.0354   ZZ=            -50.7701
   XY=              0.8802   XZ=              0.7142   YZ=              0.0083

  Exact polarizability:  78.800   2.699  72.010  -1.152   0.464  67.957
 Approx polarizability: 112.525   0.951 110.282  -4.290  -0.491 102.275

                      1                      2                      3
                      A                      A                      A
 Frequencies --    223.3769               284.0273               300.6878
 Red. masses --      2.7677                 1.2358                 2.4717
 Frc consts  --      0.0814                 0.0587                 0.1317
 IR Inten    --      1.7250                57.8000                25.8471

                      4                      5                      6
                      A                      A                      A
 Frequencies --    335.9904               392.7314               404.3490
 Red. masses --      3.3362                 3.5470                 3.3486
 Frc consts  --      0.2219                 0.3223                 0.3226
 IR Inten    --      3.8419                13.6766                 3.4670

                      7                      8                      9
                      A                      A                      A
 Frequencies --    503.6021               534.5005               568.3067
 Red. masses --      2.8068                 2.1468                 4.0447
 Frc consts  --      0.4194                 0.3614                 0.7697
 IR Inten    --      1.4906                 0.4513                 1.8763

                     10                     11                     12
                      A                      A                      A
 Frequencies --    618.3457               736.1927               763.4065
 Red. masses --      5.4609                 2.8179                 3.6291
 Frc consts  --      1.2302                 0.8998                 1.2461
 IR Inten    --      1.6501                 8.6779                 3.2975

                     13                     14                     15
                      A                      A                      A
 Frequencies --    820.6407               852.5172               894.6538
 Red. masses --      1.5523                 2.3041                 4.1742
 Frc consts  --      0.6159                 0.9866                 1.9685
 IR Inten    --      9.5963                 0.9028                31.9055

                     16                     17                     18
                      A                      A                      A
 Frequencies --    922.5366               926.4122               936.8415
 Red. masses --      2.1759                 1.9651                 1.9250
 Frc consts  --      1.0911                 0.9937                 0.9954
 IR Inten    --      0.1930                20.0997                 7.2123

                     19                     20                     21
                      A                      A                      A
 Frequencies --    984.0040               990.6113              1020.9752
 Red. masses --      1.8357                 2.2558                 2.7121
 Frc consts  --      1.0473                 1.3042                 1.6657
 IR Inten    --      6.0711                 3.4620                55.3228

                     22                     23                     24
                      A                      A                      A
 Frequencies --   1023.4492              1061.0366              1078.9095
 Red. masses --      1.9487                 1.3674                 1.4405
 Frc consts  --      1.2026                 0.9070                 0.9879
 IR Inten    --     35.2570                 7.8117                 1.8963

                     25                     26                     27
                      A                      A                      A
 Frequencies --   1090.9139              1115.2041              1128.8042
 Red. masses --      1.7843                 1.2956                 1.3287
 Frc consts  --      1.2512                 0.9494                 0.9975
 IR Inten    --     12.4651                 3.2257                41.0914

                     28                     29                     30
                      A                      A                      A
 Frequencies --   1164.0841              1186.2015              1203.8709
 Red. masses --      1.4340                 2.0277                 2.6510
 Frc consts  --      1.1449                 1.6810                 2.2637
 IR Inten    --      0.3207                26.9951                19.9369

                     31                     32                     33
                      A                      A                      A
 Frequencies --   1233.0356              1251.3800              1292.0535
 Red. masses --      1.8038                 1.7416                 1.3029
 Frc consts  --      1.6158                 1.6069                 1.2815
 IR Inten    --     10.8375                62.4993                 2.0184

                     34                     35                     36
                      A                      A                      A
 Frequencies --   1304.0615              1340.6519              1351.9869
 Red. masses --      1.7123                 1.6210                 1.5582
 Frc consts  --      1.7156                 1.7166                 1.6781
 IR Inten    --      7.0950                19.6248                16.6865

                     37                     38                     39
                      A                      A                      A
 Frequencies --   1380.6149              1393.2795              1480.8546
 Red. masses --      1.8868                 1.7904                 1.2356
 Frc consts  --      2.1189                 2.0478                 1.5964
 IR Inten    --     42.8451                 2.5065                 3.1988

                     40                     41                     42
                      A                      A                      A
 Frequencies --   1515.9509              1528.7120              3019.4462
 Red. masses --      1.1106                 1.1007                 1.0560
 Frc consts  --      1.5038                 1.5155                 5.6723
 IR Inten    --      5.1156                 2.1834                61.8269

                     43                     44                     45
                      A                      A                      A
 Frequencies --   3062.7854              3087.3551              3117.0014
 Red. masses --      1.1098                 1.0591                 1.0892
 Frc consts  --      6.1340                 5.9480                 6.2352
 IR Inten    --     33.8628                15.3709                38.9042

                     46                     47                     48
                      A                      A                      A
 Frequencies --   3131.7942              3141.0485              3166.4139
 Red. masses --      1.0669                 1.0948                 1.0898
 Frc consts  --      6.1655                 6.3641                 6.4376
 IR Inten    --      4.6743                32.9907                11.8530

                     49                     50                     51
                      A                      A                      A
 Frequencies --   3183.5138              3211.3888              3815.2683
 Red. masses --      1.0939                 1.1131                 1.0660
 Frc consts  --      6.5317                 6.7634                 9.1427
 IR Inten    --      9.3924                13.4058                21.0566

 - Thermochemistry -
 -------------------
 Temperature   298.150 Kelvin.  Pressure   1.00000 Atm.
 Atom     1 has atomic number  8 and mass  15.99491

 Molecular mass:   126.06808 amu.
 Principal axes and moments of inertia in atomic units:
                           1         2         3
     Eigenvalues --   765.12535 844.575191195.65564
           X            0.98390   0.17873   0.00124
           Y           -0.17873   0.98389   0.00397
           Z           -0.00051  -0.00412   0.99999
 This molecule is an asymmetric top.
 Rotational symmetry number  1.
 Warning -- assumption of classical behavior for rotation
           may cause significant error
 Rotational temperatures (Kelvin)      0.11320     0.10255     0.07244
 Rotational constants (GHZ):           2.35875     2.13686     1.50942
 Zero-point vibrational energy     425127.6 (Joules/Mol)
                                  101.60793 (Kcal/Mol)
 Warning -- explicit consideration of  10 degrees of freedom as
           vibrations may cause significant error
 Vibrational temperatures:    321.39   408.65   432.62   483.41   565.05
          (Kelvin)            581.77   724.57   769.03   817.67   889.66
                             1059.22  1098.37  1180.72  1226.58  1287.21
                             1327.32  1332.90  1347.90  1415.76  1425.27
                             1468.95  1472.51  1526.59  1552.31  1569.58
                             1604.53  1624.10  1674.86  1706.68  1732.10
                             1774.06  1800.45  1858.97  1876.25  1928.90
                             1945.21  1986.39  2004.62  2130.62  2181.11
                             2199.47  4344.30  4406.66  4442.01  4484.66
                             4505.95  4519.26  4555.76  4580.36  4620.47
                             5489.31

 Zero-point correction=                           0.161923 (Hartree/Particle)
 Thermal correction to Energy=                    0.168840
 Thermal correction to Enthalpy=                  0.169784
 Thermal correction to Gibbs Free Energy=         0.131221
 Sum of electronic and zero-point Energies=           -423.011795
 Sum of electronic and thermal Energies=              -423.004877
 Sum of electronic and thermal Enthalpies=            -423.003933
 Sum of electronic and thermal Free Energies=         -423.042496

                     E (Thermal)             CV                S
                      KCal/Mol        Cal/Mol-Kelvin    Cal/Mol-Kelvin
 Total                  105.949             29.667             81.164
 Electronic               0.000              0.000              0.000
 Translational            0.889              2.981             40.409
 Rotational               0.889              2.981             28.137
 Vibrational            104.171             23.705             12.618
 Vibration     1          0.649              1.805              1.932
 Vibration     2          0.682              1.703              1.509
 Vibration     3          0.693              1.672              1.413
 Vibration     4          0.717              1.604              1.231
 Vibration     5          0.760              1.486              0.990
 Vibration     6          0.770              1.461              0.947
 Vibration     7          0.859              1.242              0.649
 Vibration     8          0.889              1.174              0.577
 Vibration     9          0.924              1.100              0.508
 Vibration    10          0.978              0.993              0.419

 Normal termination of Gaussian 09 at Mon Jan 27 19:22:29 2020.
