 Gaussian 09, Revision D.01,
 Gaussian 09:  ES64L-G09RevD.01 24-Apr-2013

 -----------------------------
 # b3lyp 6-31G(2df,p) opt Freq
 -----------------------------

 -----
 titel
 -----
 Symbolic Z-matrix:
 Charge =  0 Multiplicity = 1

 SCF Done:  E(RB3LYP) =  -423.183010969     A.U. after   14 cycles
 Optimization completed.
    -- Stationary point found.
 Normal termination of Gaussian 09 at Mon Jan 27 16:14:45 2020.

 ----------------------------------------------------------------------
 #N Geom=AllCheck Guess=TCheck SCRF=Check GenChk RB3LYP/6-31G(2df,p) Fr
 eq
 ----------------------------------------------------------------------

 Structure from the checkpoint file:  "/scratch/puck/g09_9a5074a4-6a49-449f-888f-b4650108030c/Gau-10825.chk"
 -----
 titel
 -----
 Charge =  0 Multiplicity = 1

                         Standard orientation:
 ---------------------------------------------------------------------
 Center     Atomic      Atomic             Coordinates (Angstroms)
 Number     Number       Type             X           Y           Z
 ---------------------------------------------------------------------
      1          6           0        0.924912    1.755135    0.373070
      2          6           0        0.955096    0.276253   -0.003027
      3          6           0        2.359924   -0.150426   -0.431068
      4          6           0        0.272366   -0.794321    0.914328
      5          6           0       -1.144711   -0.273490    1.201450
      6          6           0       -1.450665    0.146717   -0.257421
      7          8           0       -2.421789    0.676509   -0.718574
      8          6           0       -0.151346   -0.308888   -0.942992
      9          8           0        0.017040   -1.604750   -0.283420
     10          1           0        1.296542    2.362247   -0.459206
     11          1           0       -0.072655    2.123895    0.623184
     12          1           0        1.579489    1.943946    1.231119
     13          1           0        3.069520    0.005789    0.389530
     14          1           0        2.384257   -1.204058   -0.713619
     15          1           0        2.703898    0.448002   -1.281370
     16          1           0        0.815546   -1.322007    1.698960
     17          1           0       -1.805905   -1.078138    1.532210
     18          1           0       -1.225536    0.562915    1.899574
     19          1           0       -0.100620   -0.322542   -2.030478
 ---------------------------------------------------------------------

 SCF Done:  E(RB3LYP) =  -423.183010969     A.U. after    1 cycles

 The electronic state is 1-A.
 Alpha  occ. eigenvalues --  -19.15092 -19.13834 -10.27264 -10.24984 -10.24384
 Alpha  occ. eigenvalues --  -10.21757 -10.19587 -10.18914 -10.18337  -1.06802
 Alpha  occ. eigenvalues --   -1.04296  -0.81846  -0.76826  -0.70971  -0.69617
 Alpha  occ. eigenvalues --   -0.64849  -0.55272  -0.54668  -0.48774  -0.47867
 Alpha  occ. eigenvalues --   -0.46686  -0.45579  -0.42102  -0.41422  -0.40687
 Alpha  occ. eigenvalues --   -0.40068  -0.39249  -0.38025  -0.36637  -0.35510
 Alpha  occ. eigenvalues --   -0.32738  -0.31435  -0.28364  -0.23090
 Alpha virt. eigenvalues --   -0.01791   0.07718   0.08916   0.11537   0.11818
 Alpha virt. eigenvalues --    0.12223   0.13919   0.14609   0.15655   0.16349
 Alpha virt. eigenvalues --    0.16623   0.18119   0.19374   0.20041   0.21560

 Mulliken charges:
               1
     1  C   -0.480963
     2  C    0.314273
     3  C   -0.453711
     4  C    0.038056
     5  C   -0.352957
     6  C    0.444731
     7  O   -0.328218
     8  C   -0.077257
     9  O   -0.304366
    10  H    0.128380
    11  H    0.131567
    12  H    0.123136
    13  H    0.115255
    14  H    0.141019
    15  H    0.117159
    16  H    0.085817
    17  H    0.138644
    18  H    0.126176
    19  H    0.093258
 Sum of Mulliken charges =   0.00000

 Dipole moment (field-independent basis, Debye):
    X=              2.5964    Y=              0.5647    Z=              1.5435  Tot=              3.0729
 Quadrupole moment (field-independent basis, Debye-Ang):
   XX=            -59.1412   YY=            -56.1574   ZZ=            -50.3202
   XY=              3.1592   XZ=             -2.8591   YZ=             -0.5118

  Exact polarizability:  83.615  -1.410  68.552  -0.402  -2.061  71.999
 Approx polarizability: 116.910  -6.892 107.024   5.051  -3.876 111.232

                      1                      2                      3
                      A                      A                      A
 Frequencies --    122.2713               179.8742               202.1457
 Red. masses --      5.6252                 1.0950                 2.6460
 Frc consts  --      0.0495                 0.0209                 0.0637
 IR Inten    --      4.0145                 0.0067                 0.1599

                      4                      5                      6
                      A                      A                      A
 Frequencies --    243.6371               286.9566               351.5102
 Red. masses --      1.0871                 2.6581                 2.6910
 Frc consts  --      0.0380                 0.1290                 0.1959
 IR Inten    --      0.0210                 2.9549                 1.1091

                      7                      8                      9
                      A                      A                      A
 Frequencies --    371.0364               436.2685               457.0253
 Red. masses --      2.3555                 2.6154                 3.3770
 Frc consts  --      0.1911                 0.2933                 0.4156
 IR Inten    --      0.5393                 4.4007                 1.5161

                     10                     11                     12
                      A                      A                      A
 Frequencies --    552.5244               606.4867               636.4412
 Red. masses --      5.6659                 3.0908                 4.0790
 Frc consts  --      1.0191                 0.6698                 0.9735
 IR Inten    --     11.5596                 0.9726                 1.6710

                     13                     14                     15
                      A                      A                      A
 Frequencies --    665.7402               788.1296               821.8370
 Red. masses --      3.3258                 2.8396                 3.7010
 Frc consts  --      0.8685                 1.0392                 1.4728
 IR Inten    --      7.2489                 2.4899                 2.8356

                     16                     17                     18
                      A                      A                      A
 Frequencies --    851.2215               914.8356               926.9345
 Red. masses --      3.7108                 2.9559                 3.2984
 Frc consts  --      1.5842                 1.4576                 1.6697
 IR Inten    --     30.8367                17.5890                 4.2992

                     19                     20                     21
                      A                      A                      A
 Frequencies --    955.8807               957.6782               965.8601
 Red. masses --      1.5364                 2.1016                 1.6092
 Frc consts  --      0.8271                 1.1356                 0.8845
 IR Inten    --      1.0105                18.2181                 5.8546

                     22                     23                     24
                      A                      A                      A
 Frequencies --   1001.4094              1021.9129              1085.8166
 Red. masses --      2.7833                 1.3395                 1.3629
 Frc consts  --      1.6445                 0.8242                 0.9467
 IR Inten    --      9.0004                 0.1577                 0.6945

                     25                     26                     27
                      A                      A                      A
 Frequencies --   1127.3663              1155.6126              1193.3612
 Red. masses --      2.7118                 1.6618                 2.0415
 Frc consts  --      2.0307                 1.3075                 1.7130
 IR Inten    --     17.7799                 2.7091                 3.6137

                     28                     29                     30
                      A                      A                      A
 Frequencies --   1204.4629              1237.0014              1239.3333
 Red. masses --      1.3738                 1.9611                 1.8314
 Frc consts  --      1.1743                 1.7680                 1.6573
 IR Inten    --      3.2514                 5.9294                13.7941

                     31                     32                     33
                      A                      A                      A
 Frequencies --   1265.7554              1300.5315              1327.4481
 Red. masses --      2.9125                 1.5025                 2.2188
 Frc consts  --      2.7493                 1.4973                 2.3036
 IR Inten    --      7.6715                 6.5580                 4.5757

                     34                     35                     36
                      A                      A                      A
 Frequencies --   1401.0117              1424.2168              1454.0368
 Red. masses --      1.2591                 1.2231                 1.0977
 Frc consts  --      1.4561                 1.4617                 1.3673
 IR Inten    --      6.3770                 5.5247                 9.1562

                     37                     38                     39
                      A                      A                      A
 Frequencies --   1485.1581              1490.0424              1505.6370
 Red. masses --      1.0489                 1.0490                 1.0660
 Frc consts  --      1.3631                 1.3723                 1.4238
 IR Inten    --      4.2677                 1.6774                 0.5821

                     40                     41                     42
                      A                      A                      A
 Frequencies --   1513.5352              1880.7593              3031.9737
 Red. masses --      1.0505                12.5510                 1.0382
 Frc consts  --      1.4178                26.1575                 5.6229
 IR Inten    --      7.3444               251.6527                17.6144

                     43                     44                     45
                      A                      A                      A
 Frequencies --   3038.2557              3074.6961              3090.6324
 Red. masses --      1.0379                 1.0591                 1.1007
 Frc consts  --      5.6449                 5.8991                 6.1949
 IR Inten    --     26.9190                 6.9895                 6.8816

                     46                     47                     48
                      A                      A                      A
 Frequencies --   3098.1004              3115.4121              3119.7176
 Red. masses --      1.1002                 1.0911                 1.1007
 Frc consts  --      6.2216                 6.2395                 6.3115
 IR Inten    --     26.6115                35.3737                20.8946

                     49                     50                     51
                      A                      A                      A
 Frequencies --   3126.7617              3138.3917              3145.0139
 Red. masses --      1.1034                 1.0985                 1.0920
 Frc consts  --      6.3561                 6.3749                 6.3639
 IR Inten    --      8.6633                10.3998                18.5988

 - Thermochemistry -
 -------------------
 Temperature   298.150 Kelvin.  Pressure   1.00000 Atm.
 Atom     1 has atomic number  6 and mass  12.00000

 Molecular mass:   126.06808 amu.
 Principal axes and moments of inertia in atomic units:
                           1         2         3
     Eigenvalues --   659.957271162.656281326.09399
           X            0.99892   0.03431  -0.03141
           Y           -0.03387   0.99932   0.01458
           Z            0.03189  -0.01350   0.99940
 This molecule is an asymmetric top.
 Rotational symmetry number  1.
 Warning -- assumption of classical behavior for rotation
           may cause significant error
 Rotational temperatures (Kelvin)      0.13124     0.07450     0.06531
 Rotational constants (GHZ):           2.73463     1.55226     1.36095
 Zero-point vibrational energy     416226.6 (Joules/Mol)
                                   99.48055 (Kcal/Mol)
 Warning -- explicit consideration of  11 degrees of freedom as
           vibrations may cause significant error
 Vibrational temperatures:    175.92   258.80   290.84   350.54   412.87
          (Kelvin)            505.74   533.84   627.69   657.56   794.96
                              872.60   915.70   957.85  1133.94  1182.44
                             1224.72  1316.24  1333.65  1375.30  1377.88
                             1389.66  1440.80  1470.30  1562.25  1622.03
                             1662.67  1716.98  1732.95  1779.77  1783.12
                             1821.14  1871.17  1909.90  2015.74  2049.13
                             2092.03  2136.81  2143.84  2166.27  2177.64
                             2705.99  4362.33  4371.37  4423.80  4446.73
                             4457.47  4482.38  4488.57  4498.71  4515.44
                             4524.97

 Zero-point correction=                           0.158532 (Hartree/Particle)
 Thermal correction to Energy=                    0.166709
 Thermal correction to Enthalpy=                  0.167654
 Thermal correction to Gibbs Free Energy=         0.126312
 Sum of electronic and zero-point Energies=           -423.024479
 Sum of electronic and thermal Energies=              -423.016302
 Sum of electronic and thermal Enthalpies=            -423.015357
 Sum of electronic and thermal Free Energies=         -423.056699

                     E (Thermal)             CV                S
                      KCal/Mol        Cal/Mol-Kelvin    Cal/Mol-Kelvin
 Total                  104.612             32.332             87.010
 Electronic               0.000              0.000              0.000
 Translational            0.889              2.981             40.409
 Rotational               0.889              2.981             28.411
 Vibrational            102.834             26.370             18.191
 Vibration     1          0.610              1.931              3.064
 Vibration     2          0.629              1.867              2.330
 Vibration     3          0.639              1.837              2.113
 Vibration     4          0.659              1.773              1.776
 Vibration     5          0.684              1.698              1.492
 Vibration     6          0.728              1.572              1.159
 Vibration     7          0.743              1.532              1.076
 Vibration     8          0.797              1.391              0.838
 Vibration     9          0.815              1.345              0.775
 Vibration    10          0.908              1.134              0.539
 Vibration    11          0.965              1.018              0.439

 Optimization completed.
    -- Stationary point found.
 Normal termination of Gaussian 09 at Mon Jan 27 18:28:35 2020.
