 Gaussian 09, Revision D.01,
 Gaussian 09:  ES64L-G09RevD.01 24-Apr-2013

 -----------------------------
 # b3lyp 6-31G(2df,p) opt Freq
 -----------------------------

 -----
 titel
 -----
 Symbolic Z-matrix:
 Charge =  0 Multiplicity = 1

 SCF Done:  E(RB3LYP) =  -423.168726786     A.U. after   14 cycles
 Optimization completed.
    -- Stationary point found.
 Normal termination of Gaussian 09 at Mon Jan 27 14:08:59 2020.

 ----------------------------------------------------------------------
 #N Geom=AllCheck Guess=TCheck SCRF=Check GenChk RB3LYP/6-31G(2df,p) Fr
 eq
 ----------------------------------------------------------------------

 Structure from the checkpoint file:  "/scratch/puck/g09_fee50f48-dd0a-45e8-a022-840fa33063e7/Gau-171930.chk"
 -----
 titel
 -----
 Charge =  0 Multiplicity = 1

                         Standard orientation:
 ---------------------------------------------------------------------
 Center     Atomic      Atomic             Coordinates (Angstroms)
 Number     Number       Type             X           Y           Z
 ---------------------------------------------------------------------
      1          6           0        2.364222   -1.307330    0.126809
      2          6           0        1.866051    0.116712    0.031919
      3          8           0        2.459607    1.066286    0.488980
      4          6           0        0.550721    0.328704   -0.713735
      5          6           0       -0.465821    1.294970   -0.073696
      6          6           0       -1.361500    0.062074   -0.018342
      7          6           0       -2.275016   -0.432197    1.050991
      8          6           0       -2.808168   -0.096336   -0.338854
      9          8           0       -0.366142   -0.787817   -0.608784
     10          1           0        1.623249   -1.921653    0.646536
     11          1           0        2.468404   -1.737849   -0.875992
     12          1           0        3.322171   -1.332603    0.646916
     13          1           0        0.793367    0.542693   -1.765033
     14          1           0       -0.146109    1.704297    0.885693
     15          1           0       -0.815224    2.102124   -0.718849
     16          1           0       -2.205154   -1.482210    1.314478
     17          1           0       -2.513686    0.230331    1.876756
     18          1           0       -3.083748   -0.928009   -0.978394
     19          1           0       -3.413924    0.795546   -0.464225
 ---------------------------------------------------------------------

 SCF Done:  E(RB3LYP) =  -423.168726786     A.U. after    1 cycles

 The electronic state is 1-A.
 Alpha  occ. eigenvalues --  -19.14541 -19.13245 -10.27086 -10.24707 -10.24502
 Alpha  occ. eigenvalues --  -10.19583 -10.18841 -10.18815 -10.18608  -1.05541
 Alpha  occ. eigenvalues --   -1.03900  -0.85220  -0.76072  -0.74371  -0.66508
 Alpha  occ. eigenvalues --   -0.61064  -0.55082  -0.52583  -0.50380  -0.49703
 Alpha  occ. eigenvalues --   -0.48305  -0.44754  -0.43526  -0.42482  -0.40836
 Alpha  occ. eigenvalues --   -0.38533  -0.37716  -0.37200  -0.35737  -0.34369
 Alpha  occ. eigenvalues --   -0.31975  -0.29262  -0.26079  -0.22787
 Alpha virt. eigenvalues --   -0.01691   0.07299   0.09620   0.10388   0.11014
 Alpha virt. eigenvalues --    0.12876   0.13982   0.14936   0.15223   0.16555
 Alpha virt. eigenvalues --    0.17114   0.17824   0.19250   0.22142   0.22750

 Mulliken charges:
               1
     1  C   -0.474778
     2  C    0.347269
     3  O   -0.297245
     4  C    0.036912
     5  C   -0.371801
     6  C    0.463450
     7  C   -0.330167
     8  C   -0.333465
     9  O   -0.319112
    10  H    0.157240
    11  H    0.142553
    12  H    0.137901
    13  H    0.105832
    14  H    0.130834
    15  H    0.117027
    16  H    0.124966
    17  H    0.118909
    18  H    0.126512
    19  H    0.117163
 Sum of Mulliken charges =   0.00000

 Dipole moment (field-independent basis, Debye):
    X=             -1.4903    Y=             -0.5801    Z=             -0.5366  Tot=              1.6868
 Quadrupole moment (field-independent basis, Debye-Ang):
   XX=            -55.5985   YY=            -53.7670   ZZ=            -51.8248
   XY=             -6.3847   XZ=             -2.9083   YZ=             -2.1077

  Exact polarizability:  89.862  -0.078  72.916   0.829  -0.200  66.021
 Approx polarizability: 112.316   5.370 110.934   2.858   4.010 100.864

                      1                      2                      3
                      A                      A                      A
 Frequencies --     24.5881                45.7634               117.7279
 Red. masses --      3.4842                 4.3445                 1.1021
 Frc consts  --      0.0012                 0.0054                 0.0090
 IR Inten    --      5.9559                 0.0584                 0.0793

                      4                      5                      6
                      A                      A                      A
 Frequencies --    167.8738               258.0868               287.6235
 Red. masses --      2.8825                 4.0297                 2.0975
 Frc consts  --      0.0479                 0.1581                 0.1022
 IR Inten    --      5.8050                 2.1728                 0.3933

                      7                      8                      9
                      A                      A                      A
 Frequencies --    303.2216               416.9672               443.8906
 Red. masses --      2.6948                 3.0479                 2.7446
 Frc consts  --      0.1460                 0.3122                 0.3186
 IR Inten    --      5.1660                 4.4770                 3.0169

                     10                     11                     12
                      A                      A                      A
 Frequencies --    478.8699               569.8156               618.4638
 Red. masses --      4.0103                 4.2339                 2.7637
 Frc consts  --      0.5418                 0.8099                 0.6228
 IR Inten    --      0.0462                 6.5016                 5.9518

                     13                     14                     15
                      A                      A                      A
 Frequencies --    723.3873               754.7002               836.0464
 Red. masses --      2.5344                 1.0406                 1.5770
 Frc consts  --      0.7814                 0.3492                 0.6495
 IR Inten    --      8.0896                 1.6267                 4.5302

                     16                     17                     18
                      A                      A                      A
 Frequencies --    876.4456               890.1227               915.1339
 Red. masses --      4.7871                 1.9501                 1.6260
 Frc consts  --      2.1666                 0.9103                 0.8023
 IR Inten    --     25.9308                 8.3181                 8.0887

                     19                     20                     21
                      A                      A                      A
 Frequencies --    941.1396               961.1430               985.7572
 Red. masses --      2.3684                 1.4402                 2.3835
 Frc consts  --      1.2360                 0.7839                 1.3646
 IR Inten    --      9.7338                12.2475                14.2173

                     22                     23                     24
                      A                      A                      A
 Frequencies --   1035.0839              1039.4435              1048.5847
 Red. masses --      4.1660                 2.3804                 1.6002
 Frc consts  --      2.6298                 1.5153                 1.0366
 IR Inten    --     65.6004                28.9703                42.0985

                     25                     26                     27
                      A                      A                      A
 Frequencies --   1068.7440              1094.6686              1150.3170
 Red. masses --      1.4872                 2.6239                 1.4350
 Frc consts  --      1.0008                 1.8525                 1.1188
 IR Inten    --      0.0040                 7.8580                 3.5557

                     28                     29                     30
                      A                      A                      A
 Frequencies --   1185.9211              1201.2184              1222.3897
 Red. masses --      1.2688                 1.7812                 2.2707
 Frc consts  --      1.0514                 1.5143                 1.9991
 IR Inten    --      0.1463                 7.9658                87.6460

                     31                     32                     33
                      A                      A                      A
 Frequencies --   1244.1572              1289.6459              1339.6826
 Red. masses --      1.4394                 1.9002                 1.6976
 Frc consts  --      1.3128                 1.8621                 1.7951
 IR Inten    --      0.2594                 6.6474                 8.9148

                     34                     35                     36
                      A                      A                      A
 Frequencies --   1379.5314              1390.4349              1446.9749
 Red. masses --      1.3605                 1.9466                 1.0903
 Frc consts  --      1.5255                 2.2173                 1.3450
 IR Inten    --     28.4865                30.1596                 1.8173

                     37                     38                     39
                      A                      A                      A
 Frequencies --   1457.8102              1466.5301              1492.0848
 Red. masses --      1.0531                 1.0520                 1.1936
 Frc consts  --      1.3186                 1.3330                 1.5657
 IR Inten    --     15.9712                 9.0803                12.4483

                     40                     41                     42
                      A                      A                      A
 Frequencies --   1506.5768              1811.8269              2999.2545
 Red. masses --      1.6777                11.2759                 1.0832
 Frc consts  --      2.2436                21.8089                 5.7411
 IR Inten    --     16.9642               136.9414                36.2376

                     43                     44                     45
                      A                      A                      A
 Frequencies --   3043.0667              3084.1405              3107.9709
 Red. masses --      1.0377                 1.0590                 1.0942
 Frc consts  --      5.6617                 5.9348                 6.2272
 IR Inten    --      1.8465                17.9597                 4.0793

                     46                     47                     48
                      A                      A                      A
 Frequencies --   3127.2087              3129.8151              3138.8186
 Red. masses --      1.0505                 1.0580                 1.1090
 Frc consts  --      6.0530                 6.1062                 6.4375
 IR Inten    --     13.9177                 3.6005                 8.8725

                     49                     50                     51
                      A                      A                      A
 Frequencies --   3159.3421              3210.7075              3224.7729
 Red. masses --      1.1043                 1.1182                 1.1152
 Frc consts  --      6.4945                 6.7914                 6.8331
 IR Inten    --      9.6758                 0.1761                 9.2593

 - Thermochemistry -
 -------------------
 Temperature   298.150 Kelvin.  Pressure   1.00000 Atm.
 Atom     1 has atomic number  6 and mass  12.00000

 Molecular mass:   126.06808 amu.
 Principal axes and moments of inertia in atomic units:
                           1         2         3
     Eigenvalues --   484.108421750.574791926.35906
           X            0.99954  -0.02963  -0.00593
           Y            0.02930   0.99835  -0.04936
           Z            0.00738   0.04916   0.99876
 This molecule is an asymmetric top.
 Rotational symmetry number  1.
 Warning -- assumption of classical behavior for rotation
           may cause significant error
 Rotational temperatures (Kelvin)      0.17891     0.04948     0.04496
 Rotational constants (GHZ):           3.72797     1.03094     0.93687
 Zero-point vibrational energy     410998.0 (Joules/Mol)
                                   98.23087 (Kcal/Mol)
 Warning -- explicit consideration of  12 degrees of freedom as
           vibrations may cause significant error
 Vibrational temperatures:     35.38    65.84   169.38   241.53   371.33
          (Kelvin)            413.83   436.27   599.92   638.66   688.99
                              819.84   889.83  1040.79  1085.84  1202.88
                             1261.01  1280.69  1316.67  1354.09  1382.87
                             1418.28  1489.25  1495.53  1508.68  1537.68
                             1574.98  1655.05  1706.27  1728.28  1758.74
                             1790.06  1855.51  1927.50  1984.84  2000.52
                             2081.87  2097.46  2110.01  2146.77  2167.63
                             2606.81  4315.25  4378.29  4437.38  4471.67
                             4499.35  4503.10  4516.05  4545.58  4619.49
                             4639.72

 Zero-point correction=                           0.156541 (Hartree/Particle)
 Thermal correction to Energy=                    0.165734
 Thermal correction to Enthalpy=                  0.166678
 Thermal correction to Gibbs Free Energy=         0.120961
 Sum of electronic and zero-point Energies=           -423.012186
 Sum of electronic and thermal Energies=              -423.002992
 Sum of electronic and thermal Enthalpies=            -423.002048
 Sum of electronic and thermal Free Energies=         -423.047766

                     E (Thermal)             CV                S
                      KCal/Mol        Cal/Mol-Kelvin    Cal/Mol-Kelvin
 Total                  104.000             33.508             96.221
 Electronic               0.000              0.000              0.000
 Translational            0.889              2.981             40.409
 Rotational               0.889              2.981             28.881
 Vibrational            102.222             27.547             26.932
 Vibration     1          0.593              1.985              6.224
 Vibration     2          0.595              1.979              4.993
 Vibration     3          0.608              1.935              3.137
 Vibration     4          0.625              1.882              2.459
 Vibration     5          0.667              1.749              1.675
 Vibration     6          0.685              1.697              1.488
 Vibration     7          0.695              1.668              1.399
 Vibration     8          0.780              1.433              0.902
 Vibration     9          0.803              1.374              0.814
 Vibration    10          0.835              1.297              0.713
 Vibration    11          0.926              1.097              0.505
 Vibration    12          0.978              0.993              0.419

 Normal termination of Gaussian 09 at Mon Jan 27 14:48:55 2020.
