 Gaussian 09, Revision D.01,
 Gaussian 09:  ES64L-G09RevD.01 24-Apr-2013

 -----------------------------
 # b3lyp 6-31G(2df,p) opt Freq
 -----------------------------

 -----
 titel
 -----
 Symbolic Z-matrix:
 Charge =  0 Multiplicity = 1

 SCF Done:  E(RB3LYP) =  -423.226642488     A.U. after   14 cycles
 Optimization completed.
    -- Stationary point found.
 Normal termination of Gaussian 09 at Tue Jan 28 00:03:38 2020.

 ----------------------------------------------------------------------
 #N Geom=AllCheck Guess=TCheck SCRF=Check GenChk RB3LYP/6-31G(2df,p) Fr
 eq
 ----------------------------------------------------------------------

 Structure from the checkpoint file:  "/scratch/puck/g09_bb36917b-214b-4ef8-9b65-dc39b3c83243/Gau-116679.chk"
 -----
 titel
 -----
 Charge =  0 Multiplicity = 1

                         Standard orientation:
 ---------------------------------------------------------------------
 Center     Atomic      Atomic             Coordinates (Angstroms)
 Number     Number       Type             X           Y           Z
 ---------------------------------------------------------------------
      1          6           0        2.218441   -0.390152   -0.707633
      2          6           0        1.216951   -0.039286    0.405689
      3          6           0        0.979567    1.452594    0.492046
      4          6           0       -0.252260    1.833354    0.124179
      5          6           0       -1.025530    0.640103   -0.255846
      6          8           0       -2.084345    0.562234   -0.841450
      7          6           0       -0.214443   -0.601833    0.174560
      8          6           0       -0.817055   -1.168244    1.470685
      9          8           0       -0.263282   -1.573633   -0.851147
     10          1           0        2.363571   -1.470958   -0.761151
     11          1           0        1.854764   -0.053503   -1.681445
     12          1           0        3.185929    0.084572   -0.514488
     13          1           0        1.626167   -0.403301    1.356875
     14          1           0        1.773698    2.130286    0.791223
     15          1           0       -0.633693    2.843641    0.051762
     16          1           0       -0.282679   -2.081158    1.748641
     17          1           0       -0.747806   -0.452152    2.296177
     18          1           0       -1.871360   -1.414875    1.313415
     19          1           0       -1.121609   -1.450570   -1.282316
 ---------------------------------------------------------------------

 SCF Done:  E(RB3LYP) =  -423.226642488     A.U. after    1 cycles

 The electronic state is 1-A.
 Alpha  occ. eigenvalues --  -19.13521 -19.13445 -10.26419 -10.24030 -10.22003
 Alpha  occ. eigenvalues --  -10.20469 -10.19952 -10.18176 -10.17996  -1.04914
 Alpha  occ. eigenvalues --   -1.01436  -0.85933  -0.75521  -0.74204  -0.65281
 Alpha  occ. eigenvalues --   -0.64451  -0.56047  -0.55579  -0.49577  -0.48049
 Alpha  occ. eigenvalues --   -0.44897  -0.43813  -0.42911  -0.41377  -0.41029
 Alpha  occ. eigenvalues --   -0.39978  -0.37201  -0.37158  -0.35798  -0.34780
 Alpha  occ. eigenvalues --   -0.33695  -0.28116  -0.27479  -0.24336
 Alpha virt. eigenvalues --   -0.05449   0.04710   0.09030   0.10623   0.12735
 Alpha virt. eigenvalues --    0.13549   0.15089   0.15578   0.16377   0.17061
 Alpha virt. eigenvalues --    0.17472   0.17889   0.20054   0.20686   0.20798

 Mulliken charges:
               1
     1  C   -0.384023
     2  C   -0.100445
     3  C   -0.044162
     4  C   -0.189148
     5  C    0.336169
     6  O   -0.361435
     7  C    0.289364
     8  C   -0.426733
     9  O   -0.471611
    10  H    0.137477
    11  H    0.127685
    12  H    0.107346
    13  H    0.084367
    14  H    0.117654
    15  H    0.120892
    16  H    0.125860
    17  H    0.115460
    18  H    0.127133
    19  H    0.288146
 Sum of Mulliken charges =   0.00000

 Dipole moment (field-independent basis, Debye):
    X=              2.1444    Y=              1.0804    Z=              1.6739  Tot=              2.9271
 Quadrupole moment (field-independent basis, Debye-Ang):
   XX=            -55.6649   YY=            -52.0832   ZZ=            -53.4593
   XY=              3.2583   XZ=             -0.6835   YZ=              0.3526

  Exact polarizability:  90.143  -0.078  77.931   6.524   0.795  64.008
 Approx polarizability: 147.770  -2.308 110.711  22.983   3.207  99.574

                      1                      2                      3
                      A                      A                      A
 Frequencies --     61.2492               189.1887               215.4583
 Red. masses --      4.3667                 3.3409                 1.1078
 Frc consts  --      0.0097                 0.0705                 0.0303
 IR Inten    --      1.0353                 3.1666                 0.1267

                      4                      5                      6
                      A                      A                      A
 Frequencies --    237.3471               251.4022               270.1870
 Red. masses --      2.5022                 1.3840                 1.9168
 Frc consts  --      0.0831                 0.0515                 0.0824
 IR Inten    --      0.1982                 3.2846                 1.0006

                      7                      8                      9
                      A                      A                      A
 Frequencies --    303.5469               325.7010               398.5531
 Red. masses --      3.8845                 3.2722                 2.9870
 Frc consts  --      0.2109                 0.2045                 0.2795
 IR Inten    --     16.9392                 2.4510                26.8762

                     10                     11                     12
                      A                      A                      A
 Frequencies --    421.8566               509.9970               545.2201
 Red. masses --      1.1837                 3.4111                 3.4544
 Frc consts  --      0.1241                 0.5227                 0.6050
 IR Inten    --     45.4975                 2.4325                 8.4153

                     13                     14                     15
                      A                      A                      A
 Frequencies --    625.9519               692.4268               726.8749
 Red. masses --      3.8433                 4.9094                 2.7395
 Frc consts  --      0.8872                 1.3869                 0.8528
 IR Inten    --      5.0854                 2.4902                 5.8758

                     16                     17                     18
                      A                      A                      A
 Frequencies --    754.6583               834.7300               863.1677
 Red. masses --      3.5851                 1.9611                 1.8423
 Frc consts  --      1.2030                 0.8051                 0.8087
 IR Inten    --      9.3736                14.8100                20.4266

                     19                     20                     21
                      A                      A                      A
 Frequencies --    918.9700               962.8873              1002.2603
 Red. masses --      2.2463                 1.9284                 1.2765
 Frc consts  --      1.1177                 1.0534                 0.7555
 IR Inten    --      4.1783                 9.3709                 1.8060

                     22                     23                     24
                      A                      A                      A
 Frequencies --   1023.1282              1053.4035              1091.7172
 Red. masses --      1.4328                 2.6414                 1.5431
 Frc consts  --      0.8837                 1.7269                 1.0836
 IR Inten    --     11.5423                14.0906                11.6264

                     25                     26                     27
                      A                      A                      A
 Frequencies --   1099.6117              1132.9131              1140.9020
 Red. masses --      1.8449                 2.3087                 1.7142
 Frc consts  --      1.3143                 1.7458                 1.3146
 IR Inten    --      1.3344                 5.3271                33.9649

                     28                     29                     30
                      A                      A                      A
 Frequencies --   1180.7967              1240.7003              1321.2172
 Red. masses --      2.5461                 2.7284                 1.6015
 Frc consts  --      2.0916                 2.4745                 1.6471
 IR Inten    --    100.5041                11.8419                 2.2344

                     31                     32                     33
                      A                      A                      A
 Frequencies --   1339.8890              1363.6770              1392.7874
 Red. masses --      1.5688                 1.7319                 1.4257
 Frc consts  --      1.6594                 1.8976                 1.6295
 IR Inten    --      4.8426                 4.4331                43.1313

                     34                     35                     36
                      A                      A                      A
 Frequencies --   1396.6185              1412.7593              1484.7752
 Red. masses --      1.2439                 1.2695                 1.0618
 Frc consts  --      1.4295                 1.4928                 1.3792
 IR Inten    --      9.7145                11.1257                12.2149

                     37                     38                     39
                      A                      A                      A
 Frequencies --   1490.0883              1492.9144              1494.6670
 Red. masses --      1.0488                 1.0588                 1.0609
 Frc consts  --      1.3721                 1.3904                 1.3964
 IR Inten    --      5.1388                 1.6481                 1.4340

                     40                     41                     42
                      A                      A                      A
 Frequencies --   1635.8983              1805.7618              3020.5423
 Red. masses --      6.2914                12.1660                 1.0822
 Frc consts  --      9.9200                23.3733                 5.8173
 IR Inten    --     23.4615               239.8797                14.2654

                     43                     44                     45
                      A                      A                      A
 Frequencies --   3034.8608              3044.7822              3111.0552
 Red. masses --      1.0344                 1.0366                 1.1016
 Frc consts  --      5.6135                 5.6622                 6.2820
 IR Inten    --     18.8871                25.8240                16.4372

                     46                     47                     48
                      A                      A                      A
 Frequencies --   3117.2547              3118.6791              3136.7473
 Red. masses --      1.0998                 1.1030                 1.1021
 Frc consts  --      6.2966                 6.3204                 6.3891
 IR Inten    --     19.4534                15.0973                14.3074

                     49                     50                     51
                      A                      A                      A
 Frequencies --   3180.7222              3225.6289              3729.3341
 Red. masses --      1.0895                 1.1008                 1.0654
 Frc consts  --      6.4943                 6.7485                 8.7302
 IR Inten    --      8.4272                 5.7147                36.6712

 - Thermochemistry -
 -------------------
 Temperature   298.150 Kelvin.  Pressure   1.00000 Atm.
 Atom     1 has atomic number  6 and mass  12.00000

 Molecular mass:   126.06808 amu.
 Principal axes and moments of inertia in atomic units:
                           1         2         3
     Eigenvalues --   857.391951038.099971333.77784
           X            0.99730   0.05745  -0.04568
           Y           -0.05881   0.99785  -0.02893
           Z            0.04392   0.03154   0.99854
 This molecule is an asymmetric top.
 Rotational symmetry number  1.
 Warning -- assumption of classical behavior for rotation
           may cause significant error
 Rotational temperatures (Kelvin)      0.10102     0.08343     0.06494
 Rotational constants (GHZ):           2.10492     1.73850     1.35310
 Zero-point vibrational energy     415256.5 (Joules/Mol)
                                   99.24869 (Kcal/Mol)
 Warning -- explicit consideration of  12 degrees of freedom as
           vibrations may cause significant error
 Vibrational temperatures:     88.12   272.20   310.00   341.49   361.71
          (Kelvin)            388.74   436.74   468.61   573.43   606.96
                              733.77   784.45   900.60   996.25  1045.81
                             1085.78  1200.99  1241.90  1322.19  1385.38
                             1442.03  1472.05  1515.61  1570.74  1582.09
                             1630.01  1641.50  1698.90  1785.09  1900.93
                             1927.80  1962.02  2003.91  2009.42  2032.64
                             2136.26  2143.90  2147.97  2150.49  2353.69
                             2598.09  4345.88  4366.48  4380.76  4476.11
                             4485.03  4487.08  4513.07  4576.34  4640.95
                             5365.67

 Zero-point correction=                           0.158163 (Hartree/Particle)
 Thermal correction to Energy=                    0.167165
 Thermal correction to Enthalpy=                  0.168110
 Thermal correction to Gibbs Free Energy=         0.124846
 Sum of electronic and zero-point Energies=           -423.068480
 Sum of electronic and thermal Energies=              -423.059477
 Sum of electronic and thermal Enthalpies=            -423.058533
 Sum of electronic and thermal Free Energies=         -423.101796

                     E (Thermal)             CV                S
                      KCal/Mol        Cal/Mol-Kelvin    Cal/Mol-Kelvin
 Total                  104.898             34.414             91.055
 Electronic               0.000              0.000              0.000
 Translational            0.889              2.981             40.409
 Rotational               0.889              2.981             28.564
 Vibrational            103.120             28.452             22.083
 Vibration     1          0.597              1.973              4.417
 Vibration     2          0.633              1.855              2.236
 Vibration     3          0.645              1.817              1.997
 Vibration     4          0.656              1.784              1.823
 Vibration     5          0.663              1.760              1.721
 Vibration     6          0.674              1.728              1.595
 Vibration     7          0.695              1.667              1.397
 Vibration     8          0.710              1.624              1.281
 Vibration     9          0.765              1.473              0.968
 Vibration    10          0.784              1.423              0.886
 Vibration    11          0.865              1.228              0.634
 Vibration    12          0.900              1.150              0.554

 Optimization completed.
    -- Stationary point found.
 Normal termination of Gaussian 09 at Tue Jan 28 00:59:40 2020.
