 Gaussian 09, Revision D.01,
 Gaussian 09:  ES64L-G09RevD.01 24-Apr-2013

 -----------------------------
 # b3lyp 6-31G(2df,p) opt Freq
 -----------------------------

 -----
 titel
 -----
 Symbolic Z-matrix:
 Charge =  0 Multiplicity = 1

 SCF Done:  E(RB3LYP) =  -423.116103316     A.U. after   12 cycles
 Optimization completed.
    -- Stationary point found.
 Normal termination of Gaussian 09 at Mon Jan 27 16:15:26 2020.

 ----------------------------------------------------------------------
 #N Geom=AllCheck Guess=TCheck SCRF=Check GenChk RB3LYP/6-31G(2df,p) Fr
 eq
 ----------------------------------------------------------------------

 Structure from the checkpoint file:  "/scratch/puck/g09_51a4d323-c59e-45c4-930d-fa6762b08abf/Gau-36383.chk"
 -----
 titel
 -----
 Charge =  0 Multiplicity = 1

                         Standard orientation:
 ---------------------------------------------------------------------
 Center     Atomic      Atomic             Coordinates (Angstroms)
 Number     Number       Type             X           Y           Z
 ---------------------------------------------------------------------
      1          6           0        1.440467    1.528350    0.262267
      2          6           0        1.344868    0.066775   -0.095488
      3          8           0        2.502218   -0.484546   -0.676010
      4          6           0        0.561953   -0.940045    0.708115
      5          8           0       -0.621487   -0.367328    1.278970
      6          6           0       -1.130784   -0.115629   -0.046959
      7          6           0       -2.063040    1.011145   -0.339282
      8          6           0       -2.544892   -0.434770   -0.395715
      9          6           0        0.129314   -0.603925   -0.709291
     10          1           0        1.597834    2.137893   -0.632935
     11          1           0        0.536997    1.866240    0.771862
     12          1           0        2.288132    1.695591    0.938865
     13          1           0        3.205627   -0.447236   -0.017815
     14          1           0        0.970408   -1.839785    1.154262
     15          1           0       -2.393957    1.608178    0.503778
     16          1           0       -1.943761    1.560415   -1.267123
     17          1           0       -3.183296   -0.779895    0.410151
     18          1           0       -2.750453   -0.877334   -1.365039
     19          1           0        0.199304   -1.180481   -1.621577
 ---------------------------------------------------------------------

 SCF Done:  E(RB3LYP) =  -423.116103316     A.U. after    1 cycles

 The electronic state is 1-A.
 Alpha  occ. eigenvalues --  -19.14612 -19.14146 -10.24505 -10.24248 -10.23414
 Alpha  occ. eigenvalues --  -10.19214 -10.18552 -10.18525 -10.17502  -1.05904
 Alpha  occ. eigenvalues --   -1.02788  -0.84898  -0.82324  -0.71755  -0.63681
 Alpha  occ. eigenvalues --   -0.60754  -0.58164  -0.53510  -0.52142  -0.49603
 Alpha  occ. eigenvalues --   -0.47062  -0.45053  -0.43641  -0.41576  -0.40572
 Alpha  occ. eigenvalues --   -0.37489  -0.36751  -0.36647  -0.33992  -0.31930
 Alpha  occ. eigenvalues --   -0.29550  -0.28995  -0.25381  -0.21837
 Alpha virt. eigenvalues --    0.06843   0.07827   0.10249   0.11704   0.12266
 Alpha virt. eigenvalues --    0.12914   0.14790   0.15272   0.16163   0.17490
 Alpha virt. eigenvalues --    0.17856   0.18962   0.21567   0.21704   0.22613

 Mulliken charges:
               1
     1  C   -0.461456
     2  C    0.360259
     3  O   -0.464407
     4  C    0.003929
     5  O   -0.314157
     6  C    0.463922
     7  C   -0.334990
     8  C   -0.345098
     9  C   -0.266174
    10  H    0.122482
    11  H    0.144751
    12  H    0.103897
    13  H    0.283758
    14  H    0.105051
    15  H    0.125708
    16  H    0.119988
    17  H    0.126742
    18  H    0.117338
    19  H    0.108458
 Sum of Mulliken charges =   0.00000

 Dipole moment (field-independent basis, Debye):
    X=              0.4960    Y=              0.2121    Z=             -0.1135  Tot=              0.5512
 Quadrupole moment (field-independent basis, Debye-Ang):
   XX=            -48.7531   YY=            -52.0246   ZZ=            -55.0272
   XY=             -0.1888   XZ=              5.2627   YZ=             -0.3966

  Exact polarizability:  91.486   0.318  71.443   3.855  -0.575  65.202
 Approx polarizability: 118.964  -1.033 102.368   3.797  -1.889 106.177

                      1                      2                      3
                      A                      A                      A
 Frequencies --    121.1708               172.3828               203.2443
 Red. masses --      3.3651                 2.1891                 1.2309
 Frc consts  --      0.0291                 0.0383                 0.0300
 IR Inten    --      0.8070                 0.6581                 0.3713

                      4                      5                      6
                      A                      A                      A
 Frequencies --    224.0607               289.7560               303.5639
 Red. masses --      2.5546                 2.8205                 1.1935
 Frc consts  --      0.0756                 0.1395                 0.0648
 IR Inten    --      6.2327                 0.2783                70.0992

                      7                      8                      9
                      A                      A                      A
 Frequencies --    352.2840               391.6777               416.8840
 Red. masses --      2.3448                 4.3336                 2.8975
 Frc consts  --      0.1714                 0.3917                 0.2967
 IR Inten    --     20.1843                16.9923                 9.0541

                     10                     11                     12
                      A                      A                      A
 Frequencies --    487.3529               530.1395               607.2801
 Red. masses --      3.8295                 3.7582                 4.1117
 Frc consts  --      0.5359                 0.6223                 0.8934
 IR Inten    --      2.3396                 0.5311                 2.2567

                     13                     14                     15
                      A                      A                      A
 Frequencies --    697.6943               754.7095               816.8633
 Red. masses --      3.3054                 1.0582                 1.4310
 Frc consts  --      0.9480                 0.3551                 0.5626
 IR Inten    --      0.3321                 3.1453                12.4468

                     16                     17                     18
                      A                      A                      A
 Frequencies --    849.6129               877.6502               905.3383
 Red. masses --      2.3247                 1.3701                 1.8274
 Frc consts  --      0.9887                 0.6218                 0.8825
 IR Inten    --     25.3892                 4.1480                 2.8110

                     19                     20                     21
                      A                      A                      A
 Frequencies --    919.7686               963.6334               966.0048
 Red. masses --      3.5183                 2.5308                 2.7809
 Frc consts  --      1.7537                 1.3846                 1.5290
 IR Inten    --      1.5756                 7.1863                13.6504

                     22                     23                     24
                      A                      A                      A
 Frequencies --    983.8064              1014.8829              1044.2420
 Red. masses --      2.3986                 2.4467                 1.7760
 Frc consts  --      1.3678                 1.4848                 1.1410
 IR Inten    --     17.8213                27.9414                11.0775

                     25                     26                     27
                      A                      A                      A
 Frequencies --   1048.1698              1065.3845              1069.1369
 Red. masses --      1.4890                 2.7920                 1.6764
 Frc consts  --      0.9638                 1.8672                 1.1290
 IR Inten    --     21.9368                35.2861                 4.1300

                     28                     29                     30
                      A                      A                      A
 Frequencies --   1100.0997              1156.0327              1180.5193
 Red. masses --      1.6786                 1.8946                 1.5324
 Frc consts  --      1.1969                 1.4918                 1.2582
 IR Inten    --     85.0515                40.1868                26.5692

                     31                     32                     33
                      A                      A                      A
 Frequencies --   1186.4365              1258.3853              1276.0336
 Red. masses --      1.2747                 2.9013                 2.3409
 Frc consts  --      1.0572                 2.7068                 2.2457
 IR Inten    --      0.5264                21.2188                13.7315

                     34                     35                     36
                      A                      A                      A
 Frequencies --   1305.0629              1397.0970              1409.8962
 Red. masses --      1.5859                 1.8706                 1.3563
 Frc consts  --      1.5914                 2.1512                 1.5885
 IR Inten    --     21.6569                16.1164                 5.4846

                     37                     38                     39
                      A                      A                      A
 Frequencies --   1427.4839              1447.2930              1488.8154
 Red. masses --      2.7525                 1.0935                 1.0600
 Frc consts  --      3.3047                 1.3495                 1.3843
 IR Inten    --     17.0214                 1.3931                 2.0435

                     40                     41                     42
                      A                      A                      A
 Frequencies --   1496.3059              1504.3638              3026.8783
 Red. masses --      1.1318                 1.9100                 1.0430
 Frc consts  --      1.4930                 2.5468                 5.6301
 IR Inten    --      4.9864                25.9897                35.6340

                     43                     44                     45
                      A                      A                      A
 Frequencies --   3090.7893              3129.2188              3132.2412
 Red. masses --      1.0954                 1.0512                 1.0573
 Frc consts  --      6.1653                 6.0647                 6.1115
 IR Inten    --     20.2034                12.7066                 4.2511

                     46                     47                     48
                      A                      A                      A
 Frequencies --   3144.2133              3176.2347              3209.0535
 Red. masses --      1.0976                 1.0920                 1.0961
 Frc consts  --      6.3934                 6.4908                 6.6504
 IR Inten    --      9.1983                22.6478                 4.7986

                     49                     50                     51
                      A                      A                      A
 Frequencies --   3213.0222              3226.9793              3789.7460
 Red. masses --      1.1182                 1.1154                 1.0660
 Frc consts  --      6.8015                 6.8433                 9.0203
 IR Inten    --      0.2819                 8.1118                16.5281

 - Thermochemistry -
 -------------------
 Temperature   298.150 Kelvin.  Pressure   1.00000 Atm.
 Atom     1 has atomic number  6 and mass  12.00000

 Molecular mass:   126.06808 amu.
 Principal axes and moments of inertia in atomic units:
                           1         2         3
     Eigenvalues --   519.382881455.078971550.43622
           X            0.99973   0.00960   0.02103
           Y           -0.01054   0.99893   0.04509
           Z           -0.02057  -0.04530   0.99876
 This molecule is an asymmetric top.
 Rotational symmetry number  1.
 Warning -- assumption of classical behavior for rotation
           may cause significant error
 Rotational temperatures (Kelvin)      0.16676     0.05953     0.05586
 Rotational constants (GHZ):           3.47478     1.24030     1.16402
 Zero-point vibrational energy     411807.8 (Joules/Mol)
                                   98.42444 (Kcal/Mol)
 Warning -- explicit consideration of  12 degrees of freedom as
           vibrations may cause significant error
 Vibrational temperatures:    174.34   248.02   292.42   322.37   416.89
          (Kelvin)            436.76   506.86   563.54   599.80   701.19
                              762.75   873.74  1003.83  1085.86  1175.28
                             1222.40  1262.74  1302.58  1323.34  1386.45
                             1389.86  1415.48  1460.19  1502.43  1508.08
                             1532.85  1538.25  1582.80  1663.27  1698.50
                             1707.02  1810.53  1835.93  1877.69  2010.11
                             2028.52  2053.83  2082.33  2142.07  2152.85
                             2164.44  4355.00  4446.95  4502.24  4506.59
                             4523.82  4569.89  4617.11  4622.82  4642.90
                             5452.59

 Zero-point correction=                           0.156849 (Hartree/Particle)
 Thermal correction to Energy=                    0.165416
 Thermal correction to Enthalpy=                  0.166360
 Thermal correction to Gibbs Free Energy=         0.124286
 Sum of electronic and zero-point Energies=           -422.959254
 Sum of electronic and thermal Energies=              -422.950688
 Sum of electronic and thermal Enthalpies=            -422.949743
 Sum of electronic and thermal Free Energies=         -422.991817

                     E (Thermal)             CV                S
                      KCal/Mol        Cal/Mol-Kelvin    Cal/Mol-Kelvin
 Total                  103.800             33.909             88.552
 Electronic               0.000              0.000              0.000
 Translational            0.889              2.981             40.409
 Rotational               0.889              2.981             28.551
 Vibrational            102.022             27.948             19.592
 Vibration     1          0.609              1.932              3.082
 Vibration     2          0.626              1.876              2.409
 Vibration     3          0.639              1.835              2.104
 Vibration     4          0.649              1.804              1.926
 Vibration     5          0.686              1.693              1.475
 Vibration     6          0.695              1.667              1.397
 Vibration     7          0.729              1.571              1.156
 Vibration     8          0.759              1.488              0.994
 Vibration     9          0.780              1.434              0.903
 Vibration    10          0.843              1.278              0.691
 Vibration    11          0.885              1.183              0.587
 Vibration    12          0.966              1.016              0.437

 Normal termination of Gaussian 09 at Mon Jan 27 17:11:48 2020.
