 Gaussian 09, Revision D.01,
 Gaussian 09:  ES64L-G09RevD.01 24-Apr-2013

 -----------------------------
 # b3lyp 6-31G(2df,p) opt Freq
 -----------------------------

 -----
 titel
 -----
 Symbolic Z-matrix:
 Charge =  0 Multiplicity = 1

 SCF Done:  E(RB3LYP) =  -423.156769759     A.U. after   13 cycles
 Optimization completed.
    -- Stationary point found.
 Normal termination of Gaussian 09 at Tue Jan 28 02:52:48 2020.

 ----------------------------------------------------------------------
 #N Geom=AllCheck Guess=TCheck SCRF=Check GenChk RB3LYP/6-31G(2df,p) Fr
 eq
 ----------------------------------------------------------------------

 Structure from the checkpoint file:  "/scratch/puck/g09_82ebf5ef-cf74-4fa2-bfe6-88e765cb0b8d/Gau-193504.chk"
 -----
 titel
 -----
 Charge =  0 Multiplicity = 1

                         Standard orientation:
 ---------------------------------------------------------------------
 Center     Atomic      Atomic             Coordinates (Angstroms)
 Number     Number       Type             X           Y           Z
 ---------------------------------------------------------------------
      1          6           0        2.733787   -0.127236    0.351014
      2          6           0        1.486080    0.232365   -0.447758
      3          8           0        0.778183   -0.962213   -0.846516
      4          6           0       -0.342037   -1.084245    0.001992
      5          6           0       -0.358622   -0.070931    1.100847
      6          6           0        0.435554    1.027651    0.338342
      7          6           0       -0.823549    1.290362   -0.554093
      8          6           0       -1.412826   -0.006567   -0.003499
      9          8           0       -2.759554   -0.287173    0.130814
     10          1           0        3.362845   -0.813917   -0.222053
     11          1           0        3.320737    0.768648    0.581003
     12          1           0        2.465339   -0.616512    1.293026
     13          1           0        1.767622    0.755828   -1.369525
     14          1           0       -0.656821   -2.106339    0.178113
     15          1           0       -0.424717   -0.256385    2.164054
     16          1           0        0.826530    1.875724    0.898337
     17          1           0       -1.391983    2.153648   -0.199484
     18          1           0       -0.663764    1.369084   -1.635628
     19          1           0       -3.065131   -0.703084   -0.683295
 ---------------------------------------------------------------------

 SCF Done:  E(RB3LYP) =  -423.156769759     A.U. after    1 cycles

 The electronic state is 1-A.
 Alpha  occ. eigenvalues --  -19.14878 -19.13402 -10.23701 -10.22899 -10.22871
 Alpha  occ. eigenvalues --  -10.19566 -10.18612 -10.18238 -10.17225  -1.04365
 Alpha  occ. eigenvalues --   -1.02712  -0.87620  -0.77409  -0.71241  -0.65509
 Alpha  occ. eigenvalues --   -0.60506  -0.57604  -0.55008  -0.53075  -0.47951
 Alpha  occ. eigenvalues --   -0.45321  -0.44257  -0.43615  -0.41113  -0.39255
 Alpha  occ. eigenvalues --   -0.38150  -0.36974  -0.35541  -0.33437  -0.33099
 Alpha  occ. eigenvalues --   -0.31379  -0.28479  -0.25669  -0.21922
 Alpha virt. eigenvalues --    0.08008   0.08938   0.10987   0.12408   0.13288
 Alpha virt. eigenvalues --    0.13924   0.14476   0.15750   0.16075   0.17480
 Alpha virt. eigenvalues --    0.17767   0.18708   0.19968   0.20921   0.22416

 Mulliken charges:
               1
     1  C   -0.403691
     2  C    0.135599
     3  O   -0.281879
     4  C    0.028004
     5  C   -0.178186
     6  C   -0.067676
     7  C   -0.310457
     8  C    0.341471
     9  O   -0.460814
    10  H    0.124692
    11  H    0.109707
    12  H    0.121064
    13  H    0.080480
    14  H    0.102395
    15  H    0.095349
    16  H    0.077147
    17  H    0.107153
    18  H    0.092604
    19  H    0.287037
 Sum of Mulliken charges =   0.00000

 Dipole moment (field-independent basis, Debye):
    X=              0.2463    Y=              0.5552    Z=             -0.0575  Tot=              0.6101
 Quadrupole moment (field-independent basis, Debye-Ang):
   XX=            -53.3074   YY=            -51.8008   ZZ=            -52.6481
   XY=              3.7376   XZ=              4.5683   YZ=             -0.6448

  Exact polarizability:  86.297   1.999  70.009   1.998  -1.374  65.912
 Approx polarizability: 113.694   3.268 105.315   1.447   1.473 105.149

                      1                      2                      3
                      A                      A                      A
 Frequencies --    128.4210               211.1412               231.6708
 Red. masses --      3.5683                 2.0938                 1.0493
 Frc consts  --      0.0347                 0.0550                 0.0332
 IR Inten    --      0.1991                30.1637                 0.1952

                      4                      5                      6
                      A                      A                      A
 Frequencies --    272.9287               293.3971               335.7482
 Red. masses --      1.8659                 1.9051                 3.3843
 Frc consts  --      0.0819                 0.0966                 0.2248
 IR Inten    --     16.6623                55.3186                 1.8184

                      7                      8                      9
                      A                      A                      A
 Frequencies --    398.2050               440.4153               512.3585
 Red. masses --      3.1805                 3.6761                 2.6045
 Frc consts  --      0.2971                 0.4201                 0.4028
 IR Inten    --      6.6285                 4.9447                 4.5206

                     10                     11                     12
                      A                      A                      A
 Frequencies --    610.2986               711.9602               729.0616
 Red. masses --      3.6761                 3.0109                 3.6989
 Frc consts  --      0.8067                 0.8992                 1.1584
 IR Inten    --      0.6560                 0.9829                 9.1232

                     13                     14                     15
                      A                      A                      A
 Frequencies --    766.4014               807.1410               854.9875
 Red. masses --      4.2434                 2.1383                 3.0096
 Frc consts  --      1.4685                 0.8207                 1.2962
 IR Inten    --      6.5923                 0.6559                18.1292

                     16                     17                     18
                      A                      A                      A
 Frequencies --    868.4128               908.2985               911.8090
 Red. masses --      2.3219                 1.5981                 2.0159
 Frc consts  --      1.0317                 0.7768                 0.9875
 IR Inten    --     13.7324                 7.3911                 2.2247

                     19                     20                     21
                      A                      A                      A
 Frequencies --    965.6781               992.5811               999.7222
 Red. masses --      2.1992                 2.1241                 1.4693
 Frc consts  --      1.2083                 1.2330                 0.8652
 IR Inten    --     14.6137                 0.7356                22.1202

                     22                     23                     24
                      A                      A                      A
 Frequencies --   1027.0252              1055.3392              1077.9611
 Red. masses --      1.8421                 2.2193                 2.0868
 Frc consts  --      1.1448                 1.4563                 1.4287
 IR Inten    --      1.2894                40.7693                70.7029

                     25                     26                     27
                      A                      A                      A
 Frequencies --   1097.9673              1127.9749              1149.4946
 Red. masses --      2.3749                 1.9811                 1.6697
 Frc consts  --      1.6868                 1.4851                 1.2999
 IR Inten    --     14.8128                10.2876                33.0193

                     28                     29                     30
                      A                      A                      A
 Frequencies --   1176.7423              1191.4966              1231.3880
 Red. masses --      1.7792                 1.6650                 1.9428
 Frc consts  --      1.4516                 1.3927                 1.7357
 IR Inten    --      7.8534                17.3635                60.0097

                     31                     32                     33
                      A                      A                      A
 Frequencies --   1257.1427              1280.0251              1295.0763
 Red. masses --      1.2983                 2.0108                 1.8562
 Frc consts  --      1.2089                 1.9411                 1.8343
 IR Inten    --      7.1423                38.1660                 8.5778

                     34                     35                     36
                      A                      A                      A
 Frequencies --   1311.3542              1345.2451              1378.4147
 Red. masses --      1.4195                 1.8022                 1.3747
 Frc consts  --      1.4382                 1.9216                 1.5390
 IR Inten    --     31.1983                29.3348                 5.9712

                     37                     38                     39
                      A                      A                      A
 Frequencies --   1404.0967              1437.2026              1486.0863
 Red. masses --      1.3005                 2.3167                 1.0588
 Frc consts  --      1.5106                 2.8194                 1.3776
 IR Inten    --     12.3240                20.8198                 2.9772

                     40                     41                     42
                      A                      A                      A
 Frequencies --   1494.2731              1496.9170              3031.9985
 Red. masses --      1.0964                 1.1795                 1.0727
 Frc consts  --      1.4424                 1.5572                 5.8101
 IR Inten    --      5.0828                 3.1421                 4.2276

                     43                     44                     45
                      A                      A                      A
 Frequencies --   3033.9650              3036.9851              3103.5993
 Red. masses --      1.0362                 1.0728                 1.1023
 Frc consts  --      5.6195                 5.8296                 6.2560
 IR Inten    --     21.7639                69.2206                14.6248

                     46                     47                     48
                      A                      A                      A
 Frequencies --   3105.1590              3117.1960              3127.3405
 Red. masses --      1.1018                 1.1015                 1.0898
 Frc consts  --      6.2593                 6.3060                 6.2796
 IR Inten    --     27.9688                20.4629                29.3649

                     49                     50                     51
                      A                      A                      A
 Frequencies --   3187.7495              3208.7747              3790.8219
 Red. masses --      1.0904                 1.0965                 1.0661
 Frc consts  --      6.5281                 6.6519                 9.0260
 IR Inten    --     12.3665                 7.9858                25.4909

 - Thermochemistry -
 -------------------
 Temperature   298.150 Kelvin.  Pressure   1.00000 Atm.
 Atom     1 has atomic number  6 and mass  12.00000

 Molecular mass:   126.06808 amu.
 Principal axes and moments of inertia in atomic units:
                           1         2         3
     Eigenvalues --   460.542871347.940931468.10004
           X            0.99983   0.00567   0.01779
           Y           -0.00429   0.99704  -0.07678
           Z           -0.01817   0.07669   0.99689
 This molecule is an asymmetric top.
 Rotational symmetry number  1.
 Warning -- assumption of classical behavior for rotation
           may cause significant error
 Rotational temperatures (Kelvin)      0.18807     0.06426     0.05900
 Rotational constants (GHZ):           3.91873     1.33889     1.22930
 Zero-point vibrational energy     418785.4 (Joules/Mol)
                                  100.09211 (Kcal/Mol)
 Warning -- explicit consideration of  10 degrees of freedom as
           vibrations may cause significant error
 Vibrational temperatures:    184.77   303.78   333.32   392.68   422.13
          (Kelvin)            483.07   572.93   633.66   737.17   878.08
                             1024.35  1048.96  1102.68  1161.29  1230.13
                             1249.45  1306.84  1311.89  1389.39  1428.10
                             1438.38  1477.66  1518.40  1550.94  1579.73
                             1622.90  1653.86  1693.07  1714.30  1771.69
                             1808.75  1841.67  1863.32  1886.74  1935.51
                             1983.23  2020.18  2067.81  2138.14  2149.92
                             2153.73  4362.36  4365.19  4369.54  4465.38
                             4467.63  4484.94  4499.54  4586.45  4616.71
                             5454.14

 Zero-point correction=                           0.159507 (Hartree/Particle)
 Thermal correction to Energy=                    0.167313
 Thermal correction to Enthalpy=                  0.168258
 Thermal correction to Gibbs Free Energy=         0.127709
 Sum of electronic and zero-point Energies=           -422.997263
 Sum of electronic and thermal Energies=              -422.989456
 Sum of electronic and thermal Enthalpies=            -422.988512
 Sum of electronic and thermal Free Energies=         -423.029061

                     E (Thermal)             CV                S
                      KCal/Mol        Cal/Mol-Kelvin    Cal/Mol-Kelvin
 Total                  104.991             31.450             85.342
 Electronic               0.000              0.000              0.000
 Translational            0.889              2.981             40.409
 Rotational               0.889              2.981             28.301
 Vibrational            103.213             25.488             16.632
 Vibration     1          0.611              1.925              2.970
 Vibration     2          0.643              1.824              2.034
 Vibration     3          0.653              1.793              1.866
 Vibration     4          0.676              1.723              1.578
 Vibration     5          0.688              1.686              1.454
 Vibration     6          0.717              1.604              1.232
 Vibration     7          0.764              1.474              0.969
 Vibration     8          0.800              1.382              0.825
 Vibration     9          0.867              1.223              0.628
 Vibration    10          0.969              1.010              0.432

 Optimization completed.
    -- Stationary point found.
 Normal termination of Gaussian 09 at Tue Jan 28 03:41:18 2020.
