 Gaussian 09, Revision D.01,
 Gaussian 09:  ES64L-G09RevD.01 24-Apr-2013

 -----------------------------
 # b3lyp 6-31G(2df,p) opt Freq
 -----------------------------

 -----
 titel
 -----
 Symbolic Z-matrix:
 Charge =  0 Multiplicity = 1

 SCF Done:  E(RB3LYP) =  -423.158646604     A.U. after   14 cycles
 Optimization completed.
    -- Stationary point found.
 Normal termination of Gaussian 09 at Tue Jan 28 08:18:20 2020.

 ----------------------------------------------------------------------
 #N Geom=AllCheck Guess=TCheck SCRF=Check GenChk RB3LYP/6-31G(2df,p) Fr
 eq
 ----------------------------------------------------------------------

 Structure from the checkpoint file:  "/scratch/puck/g09_551f07f3-a651-433d-b1a2-4c763dbbad7b/Gau-60088.chk"
 -----
 titel
 -----
 Charge =  0 Multiplicity = 1

                         Standard orientation:
 ---------------------------------------------------------------------
 Center     Atomic      Atomic             Coordinates (Angstroms)
 Number     Number       Type             X           Y           Z
 ---------------------------------------------------------------------
      1          6           0       -0.238196    2.660620    0.268208
      2          8           0       -0.872042    1.508533   -0.247725
      3          6           0       -0.494759    0.319514    0.395400
      4          6           0        0.910378   -0.049048    0.177425
      5          6           0        2.057663   -0.351140   -0.033888
      6          6           0        3.443783   -0.713908   -0.289786
      7          6           0       -1.414255   -0.821153   -0.124873
      8          6           0       -1.349192   -2.110982    0.668841
      9          8           0       -2.130292   -0.662380   -1.075812
     10          1           0       -0.631340    3.511717   -0.291710
     11          1           0       -0.463061    2.801716    1.337348
     12          1           0        0.852228    2.618072    0.144050
     13          1           0       -0.669811    0.401575    1.485459
     14          1           0        3.548504   -1.794818   -0.433434
     15          1           0        3.816068   -0.223130   -1.195400
     16          1           0        4.095276   -0.422470    0.541134
     17          1           0       -1.864246   -2.902709    0.123860
     18          1           0       -0.313841   -2.397302    0.871961
     19          1           0       -1.843641   -1.965277    1.637068
 ---------------------------------------------------------------------

 SCF Done:  E(RB3LYP) =  -423.158646604     A.U. after    1 cycles

 The electronic state is 1-A.
 Alpha  occ. eigenvalues --  -19.14590 -19.13087 -10.27246 -10.26112 -10.22401
 Alpha  occ. eigenvalues --  -10.21271 -10.18948 -10.18943 -10.17957  -1.05403
 Alpha  occ. eigenvalues --   -1.03090  -0.79830  -0.77060  -0.73061  -0.69898
 Alpha  occ. eigenvalues --   -0.64965  -0.55040  -0.51616  -0.49875  -0.47642
 Alpha  occ. eigenvalues --   -0.46366  -0.44062  -0.43518  -0.43372  -0.42668
 Alpha  occ. eigenvalues --   -0.41864  -0.40877  -0.38277  -0.35490  -0.32933
 Alpha  occ. eigenvalues --   -0.28082  -0.26711  -0.26380  -0.23674
 Alpha virt. eigenvalues --   -0.01410   0.03373   0.05504   0.09326   0.10319
 Alpha virt. eigenvalues --    0.12324   0.13621   0.15027   0.15994   0.16891
 Alpha virt. eigenvalues --    0.17408   0.17701   0.17860   0.18796   0.20429

 Mulliken charges:
               1
     1  C   -0.234709
     2  O   -0.210642
     3  C   -0.122809
     4  C    0.109096
     5  C    0.001849
     6  C   -0.499253
     7  C    0.367743
     8  C   -0.485551
     9  O   -0.271554
    10  H    0.133050
    11  H    0.101783
    12  H    0.117056
    13  H    0.094120
    14  H    0.153734
    15  H    0.157604
    16  H    0.151211
    17  H    0.145741
    18  H    0.148298
    19  H    0.143233
 Sum of Mulliken charges =   0.00000

 Dipole moment (field-independent basis, Debye):
    X=              2.9507    Y=             -0.5134    Z=              2.5719  Tot=              3.9478
 Quadrupole moment (field-independent basis, Debye-Ang):
   XX=            -51.0793   YY=            -47.7629   ZZ=            -54.6611
   XY=             -0.4903   XZ=             -6.4049   YZ=             -0.1399

  Exact polarizability: 101.492  -4.314  80.867  -1.726  -0.867  63.305
 Approx polarizability: 148.961 -12.052 102.021   1.684  -1.279 101.133

                      1                      2                      3
                      A                      A                      A
 Frequencies --     29.6973                35.9646                78.4200
 Red. masses --      1.0227                 2.8523                 3.1879
 Frc consts  --      0.0005                 0.0022                 0.0116
 IR Inten    --      0.0763                 2.6278                 0.2203

                      4                      5                      6
                      A                      A                      A
 Frequencies --     93.4281               104.6746               133.5487
 Red. masses --      1.2515                 2.7468                 2.4700
 Frc consts  --      0.0064                 0.0177                 0.0260
 IR Inten    --      0.8202                 2.2047                 2.4218

                      7                      8                      9
                      A                      A                      A
 Frequencies --    184.9388               213.6939               267.0326
 Red. masses --      3.1245                 1.4339                 3.8577
 Frc consts  --      0.0630                 0.0386                 0.1621
 IR Inten    --      2.8150                 1.6551                 7.1779

                     10                     11                     12
                      A                      A                      A
 Frequencies --    320.5313               360.1671               391.7841
 Red. masses --      3.7791                 4.3125                 3.7202
 Frc consts  --      0.2288                 0.3296                 0.3364
 IR Inten    --      7.5731                 3.0074                 0.4997

                     13                     14                     15
                      A                      A                      A
 Frequencies --    423.2327               532.4528               573.6181
 Red. masses --      5.4279                 3.6000                 4.6974
 Frc consts  --      0.5729                 0.6013                 0.9107
 IR Inten    --      1.2486                 3.2393                 9.6042

                     16                     17                     18
                      A                      A                      A
 Frequencies --    605.9787               782.7900               866.7459
 Red. masses --      4.0910                 3.2238                 2.7945
 Frc consts  --      0.8851                 1.1639                 1.2369
 IR Inten    --     17.1046                 9.6848                 2.5442

                     19                     20                     21
                      A                      A                      A
 Frequencies --    930.2082              1028.9113              1040.9318
 Red. masses --      2.9742                 2.9759                 1.9106
 Frc consts  --      1.5163                 1.8562                 1.2197
 IR Inten    --     22.7196                19.9318                 3.6188

                     22                     23                     24
                      A                      A                      A
 Frequencies --   1052.3917              1054.9184              1147.6256
 Red. masses --      1.4503                 1.4157                 5.3781
 Frc consts  --      0.9464                 0.9282                 4.1733
 IR Inten    --      0.4896                 0.8798                97.0080

                     25                     26                     27
                      A                      A                      A
 Frequencies --   1158.9898              1178.5643              1184.9581
 Red. masses --      3.6731                 2.0558                 1.3265
 Frc consts  --      2.9070                 1.6825                 1.0974
 IR Inten    --    118.6657                39.4312                 2.1982

                     28                     29                     30
                      A                      A                      A
 Frequencies --   1222.3561              1286.2111              1351.7858
 Red. masses --      1.7994                 1.5691                 1.2532
 Frc consts  --      1.5840                 1.5294                 1.3493
 IR Inten    --     28.4899                15.4672                28.0930

                     31                     32                     33
                      A                      A                      A
 Frequencies --   1379.5017              1414.0058              1464.6882
 Red. masses --      1.3166                 1.2422                 1.0493
 Frc consts  --      1.4762                 1.4633                 1.3263
 IR Inten    --     32.9052                 3.3352                 7.3431

                     34                     35                     36
                      A                      A                      A
 Frequencies --   1474.7511              1475.8391              1477.7836
 Red. masses --      1.0509                 1.0398                 1.0417
 Frc consts  --      1.3466                 1.3343                 1.3403
 IR Inten    --      6.1444                 7.7126                 6.4094

                     37                     38                     39
                      A                      A                      A
 Frequencies --   1478.5913              1484.5809              1509.4266
 Red. masses --      1.1490                 1.0468                 1.0552
 Frc consts  --      1.4801                 1.3594                 1.4164
 IR Inten    --      0.3234                 3.7227                 8.4577

                     40                     41                     42
                      A                      A                      A
 Frequencies --   1846.0884              2357.5782              2916.9920
 Red. masses --     11.4101                11.8475                 1.0783
 Frc consts  --     22.9110                38.7980                 5.4058
 IR Inten    --    169.7138                15.9904                40.1560

                     43                     44                     45
                      A                      A                      A
 Frequencies --   2979.0032              3030.2730              3039.2505
 Red. masses --      1.0426                 1.0347                 1.0400
 Frc consts  --      5.4512                 5.5981                 5.6598
 IR Inten    --     60.2344                25.1302                 3.3073

                     46                     47                     48
                      A                      A                      A
 Frequencies --   3042.2605              3091.8758              3094.4584
 Red. masses --      1.0954                 1.1004                 1.1001
 Frc consts  --      5.9732                 6.1979                 6.2065
 IR Inten    --     40.3673                 8.3844                 6.9748

                     49                     50                     51
                      A                      A                      A
 Frequencies --   3109.4368              3124.4162              3157.2201
 Red. masses --      1.0931                 1.0977                 1.1034
 Frc consts  --      6.2268                 6.3135                 6.4802
 IR Inten    --      6.8415                24.9554                 8.3178

 - Thermochemistry -
 -------------------
 Temperature   298.150 Kelvin.  Pressure   1.00000 Atm.
 Atom     1 has atomic number  6 and mass  12.00000

 Molecular mass:   126.06808 amu.
 Principal axes and moments of inertia in atomic units:
                           1         2         3
     Eigenvalues --  1022.128841530.693252278.69662
           X            0.99970  -0.00544  -0.02392
           Y            0.00531   0.99997  -0.00544
           Z            0.02395   0.00531   0.99970
 This molecule is an asymmetric top.
 Rotational symmetry number  1.
 Warning -- assumption of classical behavior for rotation
           may cause significant error
 Rotational temperatures (Kelvin)      0.08474     0.05658     0.03801
 Rotational constants (GHZ):           1.76567     1.17904     0.79201
 Zero-point vibrational energy     404245.5 (Joules/Mol)
                                   96.61700 (Kcal/Mol)
 Warning -- explicit consideration of  16 degrees of freedom as
           vibrations may cause significant error
 Vibrational temperatures:     42.73    51.75   112.83   134.42   150.60
          (Kelvin)            192.15   266.09   307.46   384.20   461.17
                              518.20   563.69   608.94   766.08   825.31
                              871.87  1126.26  1247.05  1338.36  1480.37
                             1497.67  1514.16  1517.79  1651.18  1667.53
                             1695.69  1704.89  1758.70  1850.57  1944.92
                             1984.79  2034.44  2107.36  2121.84  2123.40
                             2126.20  2127.36  2135.98  2171.73  2656.11
                             3392.02  4196.90  4286.12  4359.88  4372.80
                             4377.13  4448.51  4452.23  4473.78  4495.33
                             4542.53

 Zero-point correction=                           0.153969 (Hartree/Particle)
 Thermal correction to Energy=                    0.165420
 Thermal correction to Enthalpy=                  0.166365
 Thermal correction to Gibbs Free Energy=         0.114996
 Sum of electronic and zero-point Energies=           -423.004678
 Sum of electronic and thermal Energies=              -422.993226
 Sum of electronic and thermal Enthalpies=            -422.992282
 Sum of electronic and thermal Free Energies=         -423.043650

                     E (Thermal)             CV                S
                      KCal/Mol        Cal/Mol-Kelvin    Cal/Mol-Kelvin
 Total                  103.803             37.699            108.113
 Electronic               0.000              0.000              0.000
 Translational            0.889              2.981             40.409
 Rotational               0.889              2.981             29.657
 Vibrational            102.025             31.737             38.048
 Vibration     1          0.593              1.984              5.850
 Vibration     2          0.594              1.982              5.470
 Vibration     3          0.600              1.964              3.930
 Vibration     4          0.602              1.954              3.587
 Vibration     5          0.605              1.945              3.365
 Vibration     6          0.613              1.920              2.894
 Vibration     7          0.631              1.860              2.278
 Vibration     8          0.644              1.820              2.012
 Vibration     9          0.672              1.734              1.615
 Vibration    10          0.706              1.634              1.307
 Vibration    11          0.735              1.554              1.121
 Vibration    12          0.759              1.488              0.993
 Vibration    13          0.785              1.420              0.881
 Vibration    14          0.887              1.178              0.582
 Vibration    15          0.930              1.088              0.497
 Vibration    16          0.965              1.019              0.439

 Optimization completed on the basis of negligible forces.
    -- Stationary point found.
 Normal termination of Gaussian 09 at Tue Jan 28 09:50:03 2020.
