 Gaussian 09, Revision D.01,
 Gaussian 09:  ES64L-G09RevD.01 24-Apr-2013

 -----------------------------
 # b3lyp 6-31G(2df,p) opt Freq
 -----------------------------

 -----
 titel
 -----
 Symbolic Z-matrix:
 Charge =  0 Multiplicity = 1

 SCF Done:  E(RB3LYP) =  -423.173988142     A.U. after   14 cycles
 Optimization completed.
    -- Stationary point found.
 Normal termination of Gaussian 09 at Tue Jan 28 12:40:10 2020.

 ----------------------------------------------------------------------
 #N Geom=AllCheck Guess=TCheck SCRF=Check GenChk RB3LYP/6-31G(2df,p) Fr
 eq
 ----------------------------------------------------------------------

 Structure from the checkpoint file:  "/scratch/puck/g09_eababf31-0e9e-4296-956e-9e4cd2f84ef3/Gau-29110.chk"
 -----
 titel
 -----
 Charge =  0 Multiplicity = 1

                         Standard orientation:
 ---------------------------------------------------------------------
 Center     Atomic      Atomic             Coordinates (Angstroms)
 Number     Number       Type             X           Y           Z
 ---------------------------------------------------------------------
      1          8           0        3.211925   -0.299351    0.186440
      2          6           0        2.254709    0.402503   -0.605119
      3          6           0        0.857072    0.227868   -0.094127
      4          6           0        0.013929    1.203767    0.260699
      5          6           0       -1.322131    0.688821    0.713543
      6          6           0       -2.413143    0.603290   -0.381702
      7          8           0       -2.085377   -0.774908   -0.650365
      8          6           0       -1.200629   -0.845368    0.493732
      9          6           0        0.251064   -1.149499    0.107107
     10          1           0        3.155794    0.055054    1.080188
     11          1           0        2.500988    1.472189   -0.681682
     12          1           0        2.349479   -0.027895   -1.609532
     13          1           0        0.244617    2.263408    0.205936
     14          1           0       -1.647418    1.069691    1.684758
     15          1           0       -3.440029    0.712202   -0.006820
     16          1           0       -2.280132    1.240699   -1.263572
     17          1           0       -1.606588   -1.508665    1.265296
     18          1           0        0.787778   -1.714719    0.878378
     19          1           0        0.277903   -1.756176   -0.806341
 ---------------------------------------------------------------------

 SCF Done:  E(RB3LYP) =  -423.173988142     A.U. after    1 cycles

 The electronic state is 1-A.
 Alpha  occ. eigenvalues --  -19.13763 -19.12839 -10.23162 -10.23121 -10.22835
 Alpha  occ. eigenvalues --  -10.19423 -10.18952 -10.18457 -10.18192  -1.03470
 Alpha  occ. eigenvalues --   -1.01681  -0.83607  -0.74149  -0.72228  -0.66225
 Alpha  occ. eigenvalues --   -0.64457  -0.54759  -0.53513  -0.51515  -0.49044
 Alpha  occ. eigenvalues --   -0.46956  -0.45260  -0.43985  -0.43236  -0.39010
 Alpha  occ. eigenvalues --   -0.38940  -0.37321  -0.35366  -0.32888  -0.32680
 Alpha  occ. eigenvalues --   -0.29924  -0.27331  -0.24888  -0.24295
 Alpha virt. eigenvalues --    0.00841   0.08116   0.09055   0.10682   0.12020
 Alpha virt. eigenvalues --    0.13396   0.13850   0.14037   0.15292   0.17063
 Alpha virt. eigenvalues --    0.18084   0.18451   0.19660   0.21359   0.21877

 Mulliken charges:
               1
     1  O   -0.412137
     2  C   -0.172696
     3  C    0.299169
     4  C   -0.199119
     5  C   -0.112977
     6  C   -0.074299
     7  O   -0.292256
     8  C    0.117621
     9  C   -0.311879
    10  H    0.281981
    11  H    0.091754
    12  H    0.118294
    13  H    0.090569
    14  H    0.079853
    15  H    0.094835
    16  H    0.101609
    17  H    0.070502
    18  H    0.107584
    19  H    0.121592
 Sum of Mulliken charges =   0.00000

 Dipole moment (field-independent basis, Debye):
    X=             -0.2059    Y=              1.8988    Z=              1.6408  Tot=              2.5180
 Quadrupole moment (field-independent basis, Debye-Ang):
   XX=            -59.0389   YY=            -52.2176   ZZ=            -50.9825
   XY=             -0.1352   XZ=             -0.5379   YZ=             -1.1667

  Exact polarizability:  93.667  -7.452  75.910  -3.621  -0.749  63.395
 Approx polarizability: 123.121 -17.155 119.424  -4.941   3.748  98.809

                      1                      2                      3
                      A                      A                      A
 Frequencies --     72.1093               111.7613               150.8880
 Red. masses --      3.8274                 3.5728                 3.0886
 Frc consts  --      0.0117                 0.0263                 0.0414
 IR Inten    --      1.4462                 1.9008                 0.6608

                      4                      5                      6
                      A                      A                      A
 Frequencies --    222.0290               294.4211               369.8278
 Red. masses --      3.9584                 1.6649                 1.6138
 Frc consts  --      0.1150                 0.0850                 0.1300
 IR Inten    --      1.4144                33.7990                77.9783

                      7                      8                      9
                      A                      A                      A
 Frequencies --    386.4357               464.0419               499.3802
 Red. masses --      1.8745                 2.1443                 4.2723
 Frc consts  --      0.1649                 0.2720                 0.6277
 IR Inten    --     20.5913                 2.9932                 3.4607

                     10                     11                     12
                      A                      A                      A
 Frequencies --    656.1430               672.0012               814.8485
 Red. masses --      3.5727                 4.6488                 2.0867
 Frc consts  --      0.9062                 1.2369                 0.8163
 IR Inten    --      9.5823                 1.5313                 2.9347

                     13                     14                     15
                      A                      A                      A
 Frequencies --    855.9890               865.0122               866.7943
 Red. masses --      1.9657                 2.4182                 2.7040
 Frc consts  --      0.8486                 1.0661                 1.1970
 IR Inten    --      6.6125                 3.6773                 1.6962

                     16                     17                     18
                      A                      A                      A
 Frequencies --    890.7038               904.7360               965.4641
 Red. masses --      1.8481                 3.5861                 1.6610
 Frc consts  --      0.8639                 1.7295                 0.9122
 IR Inten    --     24.7144                12.8029                19.5997

                     19                     20                     21
                      A                      A                      A
 Frequencies --   1004.7581              1015.3213              1038.5372
 Red. masses --      3.3765                 1.9832                 3.3614
 Frc consts  --      2.0084                 1.2045                 2.1361
 IR Inten    --     10.3480                50.4806                40.8351

                     22                     23                     24
                      A                      A                      A
 Frequencies --   1049.8046              1066.4343              1079.9137
 Red. masses --      4.3304                 2.0375                 1.6828
 Frc consts  --      2.8118                 1.3653                 1.1563
 IR Inten    --     47.7577                 7.1259                 1.1672

                     25                     26                     27
                      A                      A                      A
 Frequencies --   1152.2964              1161.1045              1180.7447
 Red. masses --      1.5874                 1.1183                 1.4684
 Frc consts  --      1.2418                 0.8883                 1.2061
 IR Inten    --     29.5303                10.6707                 5.9004

                     28                     29                     30
                      A                      A                      A
 Frequencies --   1202.7274              1237.3061              1261.9395
 Red. masses --      1.1942                 1.6882                 1.7910
 Frc consts  --      1.0178                 1.5227                 1.6804
 IR Inten    --      9.2628                 2.0833                 0.3586

                     31                     32                     33
                      A                      A                      A
 Frequencies --   1283.0589              1315.8991              1325.1524
 Red. masses --      1.3581                 1.5964                 1.8871
 Frc consts  --      1.3172                 1.6287                 1.9524
 IR Inten    --      3.1106                 6.2216                 1.1643

                     34                     35                     36
                      A                      A                      A
 Frequencies --   1355.4992              1359.8706              1384.8955
 Red. masses --      1.5020                 1.3576                 1.4773
 Frc consts  --      1.6260                 1.4792                 1.6694
 IR Inten    --      0.4441                10.9981                 0.7043

                     37                     38                     39
                      A                      A                      A
 Frequencies --   1413.7292              1465.9951              1494.9426
 Red. masses --      1.2390                 1.0925                 1.0880
 Frc consts  --      1.4590                 1.3833                 1.4327
 IR Inten    --     71.5304                 2.5479                 0.9389

                     40                     41                     42
                      A                      A                      A
 Frequencies --   1521.8646              1703.8456              2991.3625
 Red. masses --      1.1015                 7.4255                 1.0657
 Frc consts  --      1.5031                12.7009                 5.6186
 IR Inten    --      0.6426                 1.3497                53.9485

                     43                     44                     45
                      A                      A                      A
 Frequencies --   3003.1163              3029.2386              3045.3862
 Red. masses --      1.0591                 1.0636                 1.0838
 Frc consts  --      5.6276                 5.7504                 5.9221
 IR Inten    --     94.9867                15.8393                58.6219

                     46                     47                     48
                      A                      A                      A
 Frequencies --   3053.6015              3057.9160              3066.8310
 Red. masses --      1.0961                 1.1047                 1.1015
 Frc consts  --      6.0215                 6.0859                 6.1039
 IR Inten    --     26.4049                23.3870                15.9685

                     49                     50                     51
                      A                      A                      A
 Frequencies --   3078.9899              3177.2361              3808.4989
 Red. masses --      1.0883                 1.0929                 1.0662
 Frc consts  --      6.0788                 6.5002                 9.1119
 IR Inten    --     60.3107                14.9312                15.4674

 - Thermochemistry -
 -------------------
 Temperature   298.150 Kelvin.  Pressure   1.00000 Atm.
 Atom     1 has atomic number  8 and mass  15.99491

 Molecular mass:   126.06808 amu.
 Principal axes and moments of inertia in atomic units:
                           1         2         3
     Eigenvalues --   427.537081763.234251939.04168
           X            0.99995  -0.00598  -0.00787
           Y            0.00563   0.99902  -0.04383
           Z            0.00812   0.04378   0.99901
 This molecule is an asymmetric top.
 Rotational symmetry number  1.
 Rotational temperatures (Kelvin)      0.20259     0.04912     0.04467
 Rotational constants (GHZ):           4.22125     1.02354     0.93074
 Zero-point vibrational energy     421387.0 (Joules/Mol)
                                  100.71391 (Kcal/Mol)
 Warning -- explicit consideration of   9 degrees of freedom as
           vibrations may cause significant error
 Vibrational temperatures:    103.75   160.80   217.09   319.45   423.61
          (Kelvin)            532.10   555.99   667.65   718.50   944.04
                              966.86  1172.38  1231.58  1244.56  1247.12
                             1281.52  1301.71  1389.09  1445.62  1460.82
                             1494.22  1510.43  1534.36  1553.75  1657.90
                             1670.57  1698.83  1730.45  1780.21  1815.65
                             1846.03  1893.28  1906.60  1950.26  1956.55
                             1992.55  2034.04  2109.24  2150.89  2189.62
                             2451.45  4303.90  4320.81  4358.39  4381.63
                             4393.45  4399.65  4412.48  4429.97  4571.33
                             5479.57

 Zero-point correction=                           0.160498 (Hartree/Particle)
 Thermal correction to Energy=                    0.168608
 Thermal correction to Enthalpy=                  0.169552
 Thermal correction to Gibbs Free Energy=         0.127373
 Sum of electronic and zero-point Energies=           -423.013490
 Sum of electronic and thermal Energies=              -423.005380
 Sum of electronic and thermal Enthalpies=            -423.004436
 Sum of electronic and thermal Free Energies=         -423.046615

                     E (Thermal)             CV                S
                      KCal/Mol        Cal/Mol-Kelvin    Cal/Mol-Kelvin
 Total                  105.803             30.786             88.775
 Electronic               0.000              0.000              0.000
 Translational            0.889              2.981             40.409
 Rotational               0.889              2.981             28.771
 Vibrational            104.026             24.824             19.595
 Vibration     1          0.598              1.967              4.095
 Vibration     2          0.607              1.940              3.238
 Vibration     3          0.618              1.902              2.661
 Vibration     4          0.648              1.808              1.942
 Vibration     5          0.689              1.684              1.448
 Vibration     6          0.742              1.534              1.081
 Vibration     7          0.755              1.499              1.014
 Vibration     8          0.822              1.330              0.754
 Vibration     9          0.855              1.251              0.660

 Optimization completed.
    -- Stationary point found.
 Normal termination of Gaussian 09 at Tue Jan 28 13:22:32 2020.
