 Gaussian 09, Revision D.01,
 Gaussian 09:  ES64L-G09RevD.01 24-Apr-2013

 -----------------------------
 # b3lyp 6-31G(2df,p) opt Freq
 -----------------------------

 -----
 titel
 -----
 Symbolic Z-matrix:
 Charge =  0 Multiplicity = 1

 SCF Done:  E(RB3LYP) =  -423.197880673     A.U. after   14 cycles
 Optimization completed.
    -- Stationary point found.
 Normal termination of Gaussian 09 at Mon Jan 27 13:01:06 2020.

 ----------------------------------------------------------------------
 #N Geom=AllCheck Guess=TCheck SCRF=Check GenChk RB3LYP/6-31G(2df,p) Fr
 eq
 ----------------------------------------------------------------------

 Structure from the checkpoint file:  "/scratch/puck/g09_d5b319ae-b72e-41b5-a788-51dfabe13c82/Gau-51073.chk"
 -----
 titel
 -----
 Charge =  0 Multiplicity = 1

                         Standard orientation:
 ---------------------------------------------------------------------
 Center     Atomic      Atomic             Coordinates (Angstroms)
 Number     Number       Type             X           Y           Z
 ---------------------------------------------------------------------
      1          8           0        3.114338   -0.897897   -0.035387
      2          6           0        2.046819   -0.343879   -0.018553
      3          6           0        1.808486    1.162601   -0.179926
      4          6           0        0.333731    1.372288    0.189064
      5          6           0       -0.354835    0.042412   -0.212297
      6          6           0        0.685234   -1.027340    0.164310
      7          6           0       -1.700663   -0.156035    0.434833
      8          6           0       -2.820150   -0.818881   -0.245083
      9          8           0       -2.788554    0.602412   -0.098156
     10          1           0        2.524906    1.737406    0.411492
     11          1           0        1.994247    1.409654   -1.233681
     12          1           0        0.234004    1.519350    1.272117
     13          1           0       -0.125227    2.234445   -0.298650
     14          1           0       -0.498993    0.039695   -1.300106
     15          1           0        0.596936   -1.297024    1.226908
     16          1           0        0.628223   -1.956870   -0.406317
     17          1           0       -1.681270   -0.190735    1.527565
     18          1           0       -2.688049   -1.185422   -1.262568
     19          1           0       -3.582778   -1.333609    0.337505
 ---------------------------------------------------------------------

 SCF Done:  E(RB3LYP) =  -423.197880673     A.U. after    1 cycles

 The electronic state is 1-A.
 Alpha  occ. eigenvalues --  -19.15525 -19.13015 -10.27016 -10.24443 -10.23896
 Alpha  occ. eigenvalues --  -10.20462 -10.19641 -10.19477 -10.19371  -1.07550
 Alpha  occ. eigenvalues --   -1.04160  -0.84896  -0.74385  -0.70824  -0.67003
 Alpha  occ. eigenvalues --   -0.62671  -0.58502  -0.53613  -0.50822  -0.49839
 Alpha  occ. eigenvalues --   -0.47502  -0.44547  -0.42865  -0.42655  -0.40834
 Alpha  occ. eigenvalues --   -0.39337  -0.38282  -0.36661  -0.36081  -0.34380
 Alpha  occ. eigenvalues --   -0.34111  -0.30214  -0.27425  -0.24037
 Alpha virt. eigenvalues --   -0.01799   0.08017   0.09562   0.09785   0.10732
 Alpha virt. eigenvalues --    0.11351   0.13487   0.14611   0.15371   0.16141
 Alpha virt. eigenvalues --    0.17188   0.17656   0.18617   0.19471   0.21451

 Mulliken charges:
               1
     1  O   -0.309874
     2  C    0.401820
     3  C   -0.324414
     4  C   -0.228815
     5  C   -0.004431
     6  C   -0.341739
     7  C    0.081510
     8  C   -0.183948
     9  O   -0.242041
    10  H    0.130218
    11  H    0.133904
    12  H    0.104887
    13  H    0.120395
    14  H    0.082481
    15  H    0.128895
    16  H    0.130494
    17  H    0.089841
    18  H    0.113436
    19  H    0.117380
 Sum of Mulliken charges =   0.00000

 Dipole moment (field-independent basis, Debye):
    X=             -1.5299    Y=             -0.1161    Z=              0.2061  Tot=              1.5481
 Quadrupole moment (field-independent basis, Debye-Ang):
   XX=            -67.4020   YY=            -53.1538   ZZ=            -50.1067
   XY=             10.1041   XZ=             -0.3337   YZ=              0.2492

  Exact polarizability:  91.979   4.207  72.585   0.816   0.610  62.695
 Approx polarizability: 120.535  -2.121 108.294   2.661   0.493  98.852

                      1                      2                      3
                      A                      A                      A
 Frequencies --     64.6060                83.8705               141.1384
 Red. masses --      4.8226                 3.4384                 2.1117
 Frc consts  --      0.0119                 0.0143                 0.0248
 IR Inten    --      9.3103                 2.0613                 0.5329

                      4                      5                      6
                      A                      A                      A
 Frequencies --    169.5798               302.1908               352.1294
 Red. masses --      3.3636                 2.7171                 3.9055
 Frc consts  --      0.0570                 0.1462                 0.2853
 IR Inten    --      3.7788                 0.6131                 0.4023

                      7                      8                      9
                      A                      A                      A
 Frequencies --    430.7917               462.3621               508.3048
 Red. masses --      4.3459                 1.9277                 3.3669
 Frc consts  --      0.4752                 0.2428                 0.5125
 IR Inten    --      4.5718                 0.1778                 7.8221

                     10                     11                     12
                      A                      A                      A
 Frequencies --    569.8195               595.4431               724.2689
 Red. masses --      2.9702                 2.6377                 2.0069
 Frc consts  --      0.5682                 0.5510                 0.6203
 IR Inten    --      8.5376                 6.1236                 0.8524

                     13                     14                     15
                      A                      A                      A
 Frequencies --    809.7034               840.4370               865.1572
 Red. masses --      2.8320                 2.7444                 3.6831
 Frc consts  --      1.0939                 1.1421                 1.6242
 IR Inten    --      1.0098                 2.8051                20.7182

                     16                     17                     18
                      A                      A                      A
 Frequencies --    894.5416               915.6461               949.2935
 Red. masses --      2.0535                 2.0663                 1.3658
 Frc consts  --      0.9681                 1.0207                 0.7252
 IR Inten    --     17.6807                 9.5119                 0.3265

                     19                     20                     21
                      A                      A                      A
 Frequencies --    980.0712               991.9046              1067.1913
 Red. masses --      1.6297                 1.9452                 1.9561
 Frc consts  --      0.9223                 1.1276                 1.3126
 IR Inten    --     12.7054                 4.9173                 4.2560

                     22                     23                     24
                      A                      A                      A
 Frequencies --   1093.6583              1110.3814              1153.0114
 Red. masses --      2.2610                 1.6510                 2.1114
 Frc consts  --      1.5933                 1.1994                 1.6538
 IR Inten    --     27.2485                14.3340                33.9506

                     25                     26                     27
                      A                      A                      A
 Frequencies --   1162.1713              1162.9843              1173.3130
 Red. masses --      1.6349                 1.4903                 1.4312
 Frc consts  --      1.3010                 1.1876                 1.1609
 IR Inten    --     14.7443                 0.5536                 6.2782

                     28                     29                     30
                      A                      A                      A
 Frequencies --   1209.9028              1238.1995              1255.7099
 Red. masses --      1.8111                 1.4860                 1.4826
 Frc consts  --      1.5620                 1.3423                 1.3773
 IR Inten    --      1.6020                 0.4101                 3.4683

                     31                     32                     33
                      A                      A                      A
 Frequencies --   1291.8866              1292.7816              1306.1519
 Red. masses --      1.5688                 1.3411                 1.4116
 Frc consts  --      1.5426                 1.3206                 1.4189
 IR Inten    --      9.7564                 1.1010                 9.2044

                     34                     35                     36
                      A                      A                      A
 Frequencies --   1327.0417              1356.4461              1446.6592
 Red. masses --      1.3218                 1.4315                 1.1607
 Frc consts  --      1.3714                 1.5519                 1.4312
 IR Inten    --      3.3008                 3.8368                 6.9740

                     37                     38                     39
                      A                      A                      A
 Frequencies --   1450.0077              1458.8566              1500.4824
 Red. masses --      1.1175                 1.4978                 1.0963
 Frc consts  --      1.3844                 1.8782                 1.4542
 IR Inten    --      9.5794                 7.9519                 2.7584

                     40                     41                     42
                      A                      A                      A
 Frequencies --   1531.2736              1849.0347              3016.9155
 Red. masses --      1.3917                12.7026                 1.0711
 Frc consts  --      1.9227                25.5879                 5.7441
 IR Inten    --      3.8313               234.2408                 3.6051

                     43                     44                     45
                      A                      A                      A
 Frequencies --   3025.8686              3032.7936              3038.7934
 Red. masses --      1.0756                 1.0724                 1.0692
 Frc consts  --      5.8023                 5.8117                 5.8170
 IR Inten    --      5.7383                 6.4875                30.6962

                     46                     47                     48
                      A                      A                      A
 Frequencies --   3074.2175              3082.5492              3106.9806
 Red. masses --      1.0826                 1.0548                 1.0925
 Frc consts  --      6.0282                 5.9052                 6.2135
 IR Inten    --     37.0948                21.2594                12.8508

                     49                     50                     51
                      A                      A                      A
 Frequencies --   3109.7868              3112.9777              3168.4845
 Red. masses --      1.0927                 1.0980                 1.1195
 Frc consts  --      6.2262                 6.2692                 6.6217
 IR Inten    --      7.2915                20.4008                27.0324

 - Thermochemistry -
 -------------------
 Temperature   298.150 Kelvin.  Pressure   1.00000 Atm.
 Atom     1 has atomic number  8 and mass  15.99491

 Molecular mass:   126.06808 amu.
 Principal axes and moments of inertia in atomic units:
                           1         2         3
     Eigenvalues --   415.988681993.833472297.44358
           X            0.99954   0.03031  -0.00062
           Y           -0.03031   0.99954   0.00165
           Z            0.00066  -0.00163   1.00000
 This molecule is an asymmetric top.
 Rotational symmetry number  1.
 Rotational temperatures (Kelvin)      0.20821     0.04344     0.03770
 Rotational constants (GHZ):           4.33844     0.90516     0.78554
 Zero-point vibrational energy     417842.3 (Joules/Mol)
                                   99.86670 (Kcal/Mol)
 Warning -- explicit consideration of  11 degrees of freedom as
           vibrations may cause significant error
 Vibrational temperatures:     92.95   120.67   203.07   243.99   434.78
          (Kelvin)            506.64   619.81   665.24   731.34   819.84
                              856.71  1042.06  1164.98  1209.20  1244.77
                             1287.04  1317.41  1365.82  1410.10  1427.13
                             1535.45  1573.53  1597.59  1658.92  1672.10
                             1673.27  1688.13  1740.78  1781.49  1806.68
                             1858.73  1860.02  1879.26  1909.31  1951.62
                             2081.42  2086.23  2098.97  2158.86  2203.16
                             2660.35  4340.66  4353.54  4363.51  4372.14
                             4423.11  4435.10  4470.25  4474.28  4478.88
                             4558.74

 Zero-point correction=                           0.159148 (Hartree/Particle)
 Thermal correction to Energy=                    0.167505
 Thermal correction to Enthalpy=                  0.168450
 Thermal correction to Gibbs Free Energy=         0.125378
 Sum of electronic and zero-point Energies=           -423.038733
 Sum of electronic and thermal Energies=              -423.030375
 Sum of electronic and thermal Enthalpies=            -423.029431
 Sum of electronic and thermal Free Energies=         -423.072503

                     E (Thermal)             CV                S
                      KCal/Mol        Cal/Mol-Kelvin    Cal/Mol-Kelvin
 Total                  105.111             31.270             90.652
 Electronic               0.000              0.000              0.000
 Translational            0.889              2.981             40.409
 Rotational               0.889              2.981             29.034
 Vibrational            103.334             25.309             21.209
 Vibration     1          0.597              1.971              4.311
 Vibration     2          0.601              1.960              3.798
 Vibration     3          0.615              1.912              2.788
 Vibration     4          0.625              1.880              2.440
 Vibration     5          0.694              1.670              1.405
 Vibration     6          0.729              1.571              1.157
 Vibration     7          0.792              1.403              0.856
 Vibration     8          0.820              1.334              0.759
 Vibration     9          0.863              1.232              0.638
 Vibration    10          0.926              1.097              0.505
 Vibration    11          0.953              1.041              0.458

 Normal termination of Gaussian 09 at Mon Jan 27 13:39:00 2020.
