 Gaussian 09, Revision D.01,
 Gaussian 09:  ES64L-G09RevD.01 24-Apr-2013

 -----------------------------
 # b3lyp 6-31G(2df,p) opt Freq
 -----------------------------

 -----
 titel
 -----
 Symbolic Z-matrix:
 Charge =  0 Multiplicity = 1

 SCF Done:  E(RB3LYP) =  -423.154235402     A.U. after   14 cycles
 Optimization completed.
    -- Stationary point found.
 Normal termination of Gaussian 09 at Tue Jan 28 13:31:10 2020.

 ----------------------------------------------------------------------
 #N Geom=AllCheck Guess=TCheck SCRF=Check GenChk RB3LYP/6-31G(2df,p) Fr
 eq
 ----------------------------------------------------------------------

 Structure from the checkpoint file:  "/scratch/puck/g09_a127a03e-5552-41a4-8c68-ae798891eb67/Gau-32464.chk"
 -----
 titel
 -----
 Charge =  0 Multiplicity = 1

                         Standard orientation:
 ---------------------------------------------------------------------
 Center     Atomic      Atomic             Coordinates (Angstroms)
 Number     Number       Type             X           Y           Z
 ---------------------------------------------------------------------
      1          6           0       -3.550753    0.074612   -0.234350
      2          6           0       -2.324761   -0.712202    0.237236
      3          6           0       -1.041409   -0.220857   -0.407091
      4          8           0       -0.736388    1.158854   -0.003960
      5          6           0        0.427927    0.706791    0.666255
      6          6           0        1.419590    0.108584   -0.327048
      7          6           0        2.757411   -0.213911    0.209433
      8          8           0        3.788107   -0.126407   -0.412454
      9          6           0        0.256122   -0.711597    0.237791
     10          1           0       -3.428662    1.138679   -0.014625
     11          1           0       -3.700449   -0.032499   -1.314154
     12          1           0       -4.457672   -0.276764    0.265542
     13          1           0       -2.222087   -0.638884    1.326389
     14          1           0       -2.436973   -1.778094   -0.002404
     15          1           0       -1.094365   -0.297658   -1.500570
     16          1           0        0.713682    1.183702    1.596441
     17          1           0        1.393750    0.451634   -1.357266
     18          1           0        2.756725   -0.552204    1.273830
     19          1           0        0.397546   -1.646016    0.764777
 ---------------------------------------------------------------------

 SCF Done:  E(RB3LYP) =  -423.154235402     A.U. after    1 cycles

 The electronic state is 1-A.
 Alpha  occ. eigenvalues --  -19.15494 -19.13321 -10.27169 -10.26306 -10.25397
 Alpha  occ. eigenvalues --  -10.21826 -10.20983 -10.19609 -10.18188  -1.07063
 Alpha  occ. eigenvalues --   -1.04097  -0.85791  -0.79409  -0.70706  -0.66197
 Alpha  occ. eigenvalues --   -0.62139  -0.58405  -0.55465  -0.52122  -0.49970
 Alpha  occ. eigenvalues --   -0.49262  -0.44292  -0.43150  -0.42763  -0.40883
 Alpha  occ. eigenvalues --   -0.40266  -0.38545  -0.36409  -0.35324  -0.34867
 Alpha  occ. eigenvalues --   -0.32982  -0.29792  -0.26056  -0.24403
 Alpha virt. eigenvalues --   -0.02355   0.07005   0.09369   0.09778   0.11029
 Alpha virt. eigenvalues --    0.12497   0.13497   0.13749   0.14563   0.15648
 Alpha virt. eigenvalues --    0.16325   0.16981   0.18582   0.19102   0.21387

 Mulliken charges:
               1
     1  C   -0.386363
     2  C   -0.192521
     3  C    0.127448
     4  O   -0.297363
     5  C    0.099847
     6  C   -0.157738
     7  C    0.155932
     8  O   -0.269391
     9  C   -0.164687
    10  H    0.140529
    11  H    0.117503
    12  H    0.117045
    13  H    0.105681
    14  H    0.101475
    15  H    0.090581
    16  H    0.120893
    17  H    0.114079
    18  H    0.064141
    19  H    0.112909
 Sum of Mulliken charges =   0.00000

 Dipole moment (field-independent basis, Debye):
    X=             -2.9227    Y=             -1.4151    Z=              1.3274  Tot=              3.5081
 Quadrupole moment (field-independent basis, Debye-Ang):
   XX=            -66.7494   YY=            -53.8824   ZZ=            -51.0380
   XY=              2.3156   XZ=              4.4133   YZ=              0.4372

  Exact polarizability: 108.555   0.817  62.434  -0.574  -0.713  67.044
 Approx polarizability: 139.094  -0.269 101.001  -7.263   0.447 104.813

                      1                      2                      3
                      A                      A                      A
 Frequencies --     78.9408                99.2640               128.1980
 Red. masses --      4.1475                 4.6170                 2.6213
 Frc consts  --      0.0152                 0.0268                 0.0254
 IR Inten    --      1.0261                 2.3902                 3.7394

                      4                      5                      6
                      A                      A                      A
 Frequencies --    199.5833               230.9508               259.2557
 Red. masses --      1.3920                 3.4941                 2.2237
 Frc consts  --      0.0327                 0.1098                 0.0881
 IR Inten    --      1.2981                 7.5912                 1.5181

                      7                      8                      9
                      A                      A                      A
 Frequencies --    276.2572               338.6451               439.8070
 Red. masses --      1.8411                 4.5916                 4.2267
 Frc consts  --      0.0828                 0.3102                 0.4817
 IR Inten    --      2.3064                 0.2944                 1.6501

                     10                     11                     12
                      A                      A                      A
 Frequencies --    498.4444               531.7187               757.3699
 Red. masses --      2.8796                 4.3220                 1.5114
 Frc consts  --      0.4215                 0.7199                 0.5108
 IR Inten    --      2.5697                35.4048                 0.0850

                     13                     14                     15
                      A                      A                      A
 Frequencies --    815.1170               835.3784               862.7788
 Red. masses --      2.4960                 2.0241                 2.0527
 Frc consts  --      0.9771                 0.8323                 0.9003
 IR Inten    --     29.0606                 0.6244                11.5444

                     16                     17                     18
                      A                      A                      A
 Frequencies --    897.9741               916.5092               970.7811
 Red. masses --      2.6321                 2.4726                 2.6695
 Frc consts  --      1.2505                 1.2237                 1.4823
 IR Inten    --     14.2820                26.2346                77.2071

                     19                     20                     21
                      A                      A                      A
 Frequencies --    991.0941              1028.8153              1038.9609
 Red. masses --      2.2374                 2.0947                 1.2068
 Frc consts  --      1.2949                 1.3063                 0.7675
 IR Inten    --     14.4214                51.4490                12.3633

                     22                     23                     24
                      A                      A                      A
 Frequencies --   1044.8335              1068.1944              1084.2968
 Red. masses --      1.8709                 1.8805                 1.9806
 Frc consts  --      1.2034                 1.2642                 1.3720
 IR Inten    --      9.8046                 8.2136                12.2198

                     25                     26                     27
                      A                      A                      A
 Frequencies --   1103.2257              1125.8358              1158.4551
 Red. masses --      1.6352                 2.5558                 2.0701
 Frc consts  --      1.1726                 1.9087                 1.6368
 IR Inten    --     25.8846                34.4819                20.7617

                     28                     29                     30
                      A                      A                      A
 Frequencies --   1202.0876              1224.5655              1246.8759
 Red. masses --      1.7834                 1.6848                 1.3557
 Frc consts  --      1.5183                 1.4885                 1.2418
 IR Inten    --     18.8810                15.9993                 2.0952

                     31                     32                     33
                      A                      A                      A
 Frequencies --   1281.2939              1299.9348              1330.3154
 Red. masses --      1.3719                 1.5026                 1.4495
 Frc consts  --      1.3270                 1.4960                 1.5114
 IR Inten    --      0.4504                 4.0140                17.0789

                     34                     35                     36
                      A                      A                      A
 Frequencies --   1379.7061              1404.6431              1410.8117
 Red. masses --      1.8987                 1.5748                 1.2508
 Frc consts  --      2.1295                 1.8306                 1.4668
 IR Inten    --     16.1061                 4.7339                 1.5512

                     37                     38                     39
                      A                      A                      A
 Frequencies --   1448.7673              1476.8685              1498.1017
 Red. masses --      1.3267                 1.0765                 1.0433
 Frc consts  --      1.6406                 1.3835                 1.3796
 IR Inten    --      8.3508                 0.9389                 5.3481

                     40                     41                     42
                      A                      A                      A
 Frequencies --   1509.3869              1817.2723              2837.6959
 Red. masses --      1.0596                 9.8807                 1.0805
 Frc consts  --      1.4223                19.2255                 5.1262
 IR Inten    --      4.5514               296.4059               101.7806

                     43                     44                     45
                      A                      A                      A
 Frequencies --   3022.6992              3028.5437              3040.2303
 Red. masses --      1.0608                 1.0845                 1.0373
 Frc consts  --      5.7106                 5.8606                 5.6492
 IR Inten    --     20.6479                24.5814                25.9416

                     46                     47                     48
                      A                      A                      A
 Frequencies --   3066.5005              3108.2546              3123.3706
 Red. masses --      1.0992                 1.1006                 1.1021
 Frc consts  --      6.0901                 6.2651                 6.3345
 IR Inten    --     26.2686                34.0215                20.4150

                     49                     50                     51
                      A                      A                      A
 Frequencies --   3162.1614              3183.2270              3202.5745
 Red. masses --      1.0899                 1.0900                 1.0979
 Frc consts  --      6.4208                 6.5075                 6.6348
 IR Inten    --      4.1578                13.6293                 4.4518

 - Thermochemistry -
 -------------------
 Temperature   298.150 Kelvin.  Pressure   1.00000 Atm.
 Atom     1 has atomic number  6 and mass  12.00000

 Molecular mass:   126.06808 amu.
 Principal axes and moments of inertia in atomic units:
                           1         2         3
     Eigenvalues --   275.728362425.049742513.23060
           X            0.99995   0.00543   0.00830
           Y           -0.00505   0.99897  -0.04517
           Z           -0.00854   0.04512   0.99894
 This molecule is an asymmetric top.
 Rotational symmetry number  1.
 Rotational temperatures (Kelvin)      0.31413     0.03572     0.03446
 Rotational constants (GHZ):           6.54536     0.74421     0.71810
 Zero-point vibrational energy     413229.5 (Joules/Mol)
                                   98.76421 (Kcal/Mol)
 Warning -- explicit consideration of  11 degrees of freedom as
           vibrations may cause significant error
 Vibrational temperatures:    113.58   142.82   184.45   287.16   332.29
          (Kelvin)            373.01   397.47   487.23   632.78   717.15
                              765.02  1089.69  1172.77  1201.92  1241.34
                             1291.98  1318.65  1396.74  1425.96  1480.23
                             1494.83  1503.28  1536.89  1560.06  1587.29
                             1619.82  1666.76  1729.53  1761.87  1793.97
                             1843.49  1870.31  1914.02  1985.09  2020.97
                             2029.84  2084.45  2124.88  2155.43  2171.67
                             2614.65  4082.81  4348.98  4357.39  4374.21
                             4412.00  4472.08  4493.83  4549.64  4579.95
                             4607.78

 Zero-point correction=                           0.157391 (Hartree/Particle)
 Thermal correction to Energy=                    0.166313
 Thermal correction to Enthalpy=                  0.167257
 Thermal correction to Gibbs Free Energy=         0.123401
 Sum of electronic and zero-point Energies=           -422.996845
 Sum of electronic and thermal Energies=              -422.987923
 Sum of electronic and thermal Enthalpies=            -422.986979
 Sum of electronic and thermal Free Energies=         -423.030835

                     E (Thermal)             CV                S
                      KCal/Mol        Cal/Mol-Kelvin    Cal/Mol-Kelvin
 Total                  104.363             32.645             92.303
 Electronic               0.000              0.000              0.000
 Translational            0.889              2.981             40.409
 Rotational               0.889              2.981             28.909
 Vibrational            102.585             26.684             22.985
 Vibration     1          0.600              1.963              3.917
 Vibration     2          0.604              1.950              3.469
 Vibration     3          0.611              1.925              2.973
 Vibration     4          0.638              1.840              2.137
 Vibration     5          0.653              1.794              1.872
 Vibration     6          0.668              1.747              1.667
 Vibration     7          0.678              1.717              1.557
 Vibration     8          0.719              1.598              1.219
 Vibration     9          0.800              1.383              0.827
 Vibration    10          0.854              1.253              0.662
 Vibration    11          0.887              1.180              0.583

 Normal termination of Gaussian 09 at Tue Jan 28 14:08:50 2020.
