 Gaussian 09, Revision D.01,
 Gaussian 09:  ES64L-G09RevD.01 24-Apr-2013

 -----------------------------
 # b3lyp 6-31G(2df,p) opt Freq
 -----------------------------

 -----
 titel
 -----
 Symbolic Z-matrix:
 Charge =  0 Multiplicity = 1

 SCF Done:  E(RB3LYP) =  -423.209874927     A.U. after   14 cycles
 Optimization completed.
    -- Stationary point found.
 Normal termination of Gaussian 09 at Mon Jan 27 17:12:49 2020.

 ----------------------------------------------------------------------
 #N Geom=AllCheck Guess=TCheck SCRF=Check GenChk RB3LYP/6-31G(2df,p) Fr
 eq
 ----------------------------------------------------------------------

 Structure from the checkpoint file:  "/scratch/puck/g09_12078792-9bd2-4b05-b32f-e793fc45676d/Gau-50035.chk"
 -----
 titel
 -----
 Charge =  0 Multiplicity = 1

                         Standard orientation:
 ---------------------------------------------------------------------
 Center     Atomic      Atomic             Coordinates (Angstroms)
 Number     Number       Type             X           Y           Z
 ---------------------------------------------------------------------
      1          8           0       -2.246390   -1.100782   -0.075818
      2          6           0       -1.057402   -0.356701   -0.000088
      3          6           0       -0.936173    0.765470   -1.054378
      4          6           0       -0.119019    1.547213    0.014685
      5          6           0       -0.899434    0.742600    1.094216
      6          6           0        1.346558    1.110528   -0.015222
      7          6           0        1.498736   -0.415953   -0.010003
      8          8           0        2.579452   -0.951937    0.008750
      9          6           0        0.197545   -1.233255   -0.030101
     10          1           0       -2.204645   -1.813972    0.570905
     11          1           0       -0.459362    0.528111   -2.010591
     12          1           0       -1.911882    1.222466   -1.233430
     13          1           0       -0.216109    2.633521    0.027307
     14          1           0       -0.384679    0.486159    2.026336
     15          1           0       -1.867197    1.196750    1.318238
     16          1           0        1.861612    1.488517   -0.907128
     17          1           0        1.903839    1.497764    0.846332
     18          1           0        0.203317   -1.863033   -0.927995
     19          1           0        0.225749   -1.913949    0.831921
 ---------------------------------------------------------------------

 SCF Done:  E(RB3LYP) =  -423.209874927     A.U. after    1 cycles

 The electronic state is 1-A.
 Alpha  occ. eigenvalues --  -19.14429 -19.12787 -10.27243 -10.24635 -10.20075
 Alpha  occ. eigenvalues --  -10.19348 -10.19333 -10.18556 -10.18504  -1.04059
 Alpha  occ. eigenvalues --   -1.02992  -0.87298  -0.74631  -0.74222  -0.67158
 Alpha  occ. eigenvalues --   -0.61403  -0.56726  -0.52871  -0.51843  -0.47170
 Alpha  occ. eigenvalues --   -0.46686  -0.45016  -0.44262  -0.42076  -0.40775
 Alpha  occ. eigenvalues --   -0.38733  -0.38302  -0.35389  -0.34582  -0.33580
 Alpha  occ. eigenvalues --   -0.31718  -0.30700  -0.26784  -0.24068
 Alpha virt. eigenvalues --   -0.01993   0.06815   0.08502   0.11236   0.12328
 Alpha virt. eigenvalues --    0.14688   0.14948   0.15136   0.15392   0.15818
 Alpha virt. eigenvalues --    0.17397   0.18958   0.20547   0.22022   0.22837

 Mulliken charges:
               1
     1  O   -0.485834
     2  C    0.417168
     3  C   -0.260724
     4  C   -0.032779
     5  C   -0.289512
     6  C   -0.311662
     7  C    0.390200
     8  O   -0.313426
     9  C   -0.382754
    10  H    0.275322
    11  H    0.094738
    12  H    0.112835
    13  H    0.074962
    14  H    0.088997
    15  H    0.108845
    16  H    0.130682
    17  H    0.129744
    18  H    0.135733
    19  H    0.117465
 Sum of Mulliken charges =   0.00000

 Dipole moment (field-independent basis, Debye):
    X=             -1.5143    Y=              0.9370    Z=              0.8147  Tot=              1.9583
 Quadrupole moment (field-independent basis, Debye-Ang):
   XX=            -64.8404   YY=            -50.1713   ZZ=            -51.1118
   XY=              4.4465   XZ=             -2.3899   YZ=             -2.0768

  Exact polarizability:  80.928   0.184  76.777  -0.381  -1.269  65.739
 Approx polarizability: 116.878  -2.083 109.917   0.535  -2.140 101.448

                      1                      2                      3
                      A                      A                      A
 Frequencies --     52.2734               235.6875               257.7753
 Red. masses --      3.3958                 2.2592                 1.2161
 Frc consts  --      0.0055                 0.0739                 0.0476
 IR Inten    --      7.4166                 0.9390                59.4133

                      4                      5                      6
                      A                      A                      A
 Frequencies --    305.3611               374.2932               394.6270
 Red. masses --      3.0449                 1.7837                 3.3630
 Frc consts  --      0.1673                 0.1472                 0.3086
 IR Inten    --     41.2842                 2.2548                 7.1136

                      7                      8                      9
                      A                      A                      A
 Frequencies --    414.9816               430.1135               492.1133
 Red. masses --      2.6585                 4.8473                 4.4376
 Frc consts  --      0.2697                 0.5283                 0.6332
 IR Inten    --      5.5695                 6.1603                 0.9131

                     10                     11                     12
                      A                      A                      A
 Frequencies --    504.1309               570.2909               655.4340
 Red. masses --      2.3899                 2.6440                 4.9107
 Frc consts  --      0.3579                 0.5066                 1.2429
 IR Inten    --      1.0988                 0.8921                 2.6684

                     13                     14                     15
                      A                      A                      A
 Frequencies --    769.9044               774.2114               859.7192
 Red. masses --      2.1577                 2.1965                 2.2296
 Frc consts  --      0.7535                 0.7757                 0.9709
 IR Inten    --      0.6662                 0.9605                 0.6313

                     16                     17                     18
                      A                      A                      A
 Frequencies --    865.7223               897.3947               898.1227
 Red. masses --      1.5542                 2.1657                 3.2959
 Frc consts  --      0.6863                 1.0276                 1.5664
 IR Inten    --      1.3021                 0.5861                 2.8577

                     19                     20                     21
                      A                      A                      A
 Frequencies --    950.1037               984.6606              1023.6154
 Red. masses --      2.4118                 1.9432                 2.4445
 Frc consts  --      1.2827                 1.1100                 1.5091
 IR Inten    --      6.3795                 2.6082                11.4959

                     22                     23                     24
                      A                      A                      A
 Frequencies --   1035.0402              1074.0582              1084.8561
 Red. masses --      1.0977                 1.4111                 1.7762
 Frc consts  --      0.6929                 0.9591                 1.2316
 IR Inten    --      1.9753                12.3253                11.3750

                     25                     26                     27
                      A                      A                      A
 Frequencies --   1146.3235              1167.3010              1181.5415
 Red. masses --      1.3322                 3.0701                 1.7438
 Frc consts  --      1.0314                 2.4647                 1.4343
 IR Inten    --     72.3504                12.7657                46.2706

                     28                     29                     30
                      A                      A                      A
 Frequencies --   1206.0039              1219.5915              1229.0379
 Red. masses --      1.7870                 1.5074                 1.4585
 Frc consts  --      1.5313                 1.3210                 1.2980
 IR Inten    --     63.4365                11.1651                 1.4943

                     31                     32                     33
                      A                      A                      A
 Frequencies --   1258.0442              1285.3335              1312.8674
 Red. masses --      1.5498                 1.6773                 1.9678
 Frc consts  --      1.4451                 1.6327                 1.9984
 IR Inten    --     18.1162                 6.5628                 4.7036

                     34                     35                     36
                      A                      A                      A
 Frequencies --   1331.8661              1361.2768              1388.4698
 Red. masses --      1.9944                 1.5490                 1.7908
 Frc consts  --      2.0844                 1.6912                 2.0341
 IR Inten    --     82.3435                 2.1613                15.3288

                     37                     38                     39
                      A                      A                      A
 Frequencies --   1445.7819              1447.9981              1477.8697
 Red. masses --      1.0835                 1.0957                 1.0937
 Frc consts  --      1.3344                 1.3535                 1.4075
 IR Inten    --      3.6524                 2.3212                 3.9951

                     40                     41                     42
                      A                      A                      A
 Frequencies --   1511.3375              1819.5343              3020.0531
 Red. masses --      1.1462                12.7259                 1.0622
 Frc consts  --      1.5426                24.8233                 5.7081
 IR Inten    --      2.2982               186.4071                15.2476

                     43                     44                     45
                      A                      A                      A
 Frequencies --   3033.4898              3043.6061              3052.7055
 Red. masses --      1.0603                 1.0606                 1.0618
 Frc consts  --      5.7484                 5.7888                 5.8298
 IR Inten    --     14.9550                49.5915                 9.2402

                     46                     47                     48
                      A                      A                      A
 Frequencies --   3067.8580              3070.9568              3096.6215
 Red. masses --      1.0980                 1.1010                 1.0900
 Frc consts  --      6.0887                 6.1177                 6.1582
 IR Inten    --      8.9975                13.5848                31.6144

                     49                     50                     51
                      A                      A                      A
 Frequencies --   3114.9701              3119.8171              3799.4855
 Red. masses --      1.1055                 1.1033                 1.0658
 Frc consts  --      6.3198                 6.3268                 9.0653
 IR Inten    --      7.3579                37.5724                15.2131

 - Thermochemistry -
 -------------------
 Temperature   298.150 Kelvin.  Pressure   1.00000 Atm.
 Atom     1 has atomic number  8 and mass  15.99491

 Molecular mass:   126.06808 amu.
 Principal axes and moments of inertia in atomic units:
                           1         2         3
     Eigenvalues --   646.210771187.832971528.76214
           X            0.99977   0.02061  -0.00539
           Y           -0.02066   0.99974  -0.00954
           Z            0.00520   0.00965   0.99994
 This molecule is an asymmetric top.
 Rotational symmetry number  1.
 Warning -- assumption of classical behavior for rotation
           may cause significant error
 Rotational temperatures (Kelvin)      0.13403     0.07292     0.05666
 Rotational constants (GHZ):           2.79281     1.51936     1.18052
 Zero-point vibrational energy     419376.2 (Joules/Mol)
                                  100.23333 (Kcal/Mol)
 Warning -- explicit consideration of  11 degrees of freedom as
           vibrations may cause significant error
 Vibrational temperatures:     75.21   339.10   370.88   439.35   538.52
          (Kelvin)            567.78   597.07   618.84   708.04   725.33
                              820.52   943.02  1107.72  1113.92  1236.94
                             1245.58  1291.15  1292.20  1366.99  1416.71
                             1472.75  1489.19  1545.33  1560.86  1649.30
                             1679.48  1699.97  1735.17  1754.72  1768.31
                             1810.04  1849.31  1888.92  1916.26  1958.57
                             1997.70  2080.16  2083.34  2126.32  2174.47
                             2617.90  4345.18  4364.51  4379.06  4392.16
                             4413.96  4418.42  4455.34  4481.74  4488.72
                             5466.61

 Zero-point correction=                           0.159732 (Hartree/Particle)
 Thermal correction to Energy=                    0.167578
 Thermal correction to Enthalpy=                  0.168522
 Thermal correction to Gibbs Free Energy=         0.127354
 Sum of electronic and zero-point Energies=           -423.050143
 Sum of electronic and thermal Energies=              -423.042297
 Sum of electronic and thermal Enthalpies=            -423.041353
 Sum of electronic and thermal Free Energies=         -423.082521

                     E (Thermal)             CV                S
                      KCal/Mol        Cal/Mol-Kelvin    Cal/Mol-Kelvin
 Total                  105.157             31.590             86.646
 Electronic               0.000              0.000              0.000
 Translational            0.889              2.981             40.409
 Rotational               0.889              2.981             28.553
 Vibrational            103.379             25.628             17.685
 Vibration     1          0.596              1.977              4.729
 Vibration     2          0.655              1.786              1.835
 Vibration     3          0.667              1.750              1.677
 Vibration     4          0.696              1.664              1.387
 Vibration     5          0.745              1.525              1.062
 Vibration     6          0.762              1.482              0.983
 Vibration     7          0.778              1.438              0.909
 Vibration     8          0.791              1.405              0.858
 Vibration     9          0.848              1.268              0.678
 Vibration    10          0.859              1.241              0.648
 Vibration    11          0.926              1.096              0.504

 Normal termination of Gaussian 09 at Mon Jan 27 17:57:54 2020.
