 Gaussian 09, Revision D.01,
 Gaussian 09:  ES64L-G09RevD.01 24-Apr-2013

 -----------------------------
 # b3lyp 6-31G(2df,p) opt Freq
 -----------------------------

 -----
 titel
 -----
 Symbolic Z-matrix:
 Charge =  0 Multiplicity = 1

 SCF Done:  E(RB3LYP) =  -423.157947234     A.U. after   15 cycles
 SCF Done:  E(RB3LYP) =  -423.157946656     A.U. after    8 cycles
 SCF Done:  E(RB3LYP) =  -423.157947283     A.U. after    8 cycles
 SCF Done:  E(RB3LYP) =  -423.157947216     A.U. after    7 cycles
 SCF Done:  E(RB3LYP) =  -423.157947321     A.U. after    7 cycles
 SCF Done:  E(RB3LYP) =  -423.157947384     A.U. after    8 cycles
 SCF Done:  E(RB3LYP) =  -423.157947460     A.U. after    9 cycles
 SCF Done:  E(RB3LYP) =  -423.157947567     A.U. after    8 cycles
 SCF Done:  E(RB3LYP) =  -423.157947689     A.U. after    8 cycles
 SCF Done:  E(RB3LYP) =  -423.157947737     A.U. after    8 cycles
 Optimization completed.
    -- Stationary point found.
 Normal termination of Gaussian 09 at Tue Jan 28 12:42:46 2020.

 ----------------------------------------------------------------------
 #N Geom=AllCheck Guess=TCheck SCRF=Check GenChk RB3LYP/6-31G(2df,p) Fr
 eq
 ----------------------------------------------------------------------

 Structure from the checkpoint file:  "/scratch/puck/g09_adab6513-ae77-4101-80e0-3d9994853758/Gau-1468.chk"
 -----
 titel
 -----
 Charge =  0 Multiplicity = 1

                         Standard orientation:
 ---------------------------------------------------------------------
 Center     Atomic      Atomic             Coordinates (Angstroms)
 Number     Number       Type             X           Y           Z
 ---------------------------------------------------------------------
      1          6           0        3.984281    0.717114   -0.191836
      2          8           0        2.585814    0.552312   -0.135548
      3          6           0        2.218468   -0.798754    0.071584
      4          6           0        0.766768   -0.914179    0.114156
      5          6           0       -0.431921   -1.016019    0.150237
      6          6           0       -1.884263   -1.094461    0.173577
      7          6           0       -2.620561    0.242834   -0.077616
      8          6           0       -1.983830    1.498047    0.473662
      9          8           0       -3.676173    0.239339   -0.660607
     10          1           0        4.471871    0.404043    0.745233
     11          1           0        4.431300    0.143108   -1.019101
     12          1           0        4.177741    1.779705   -0.353507
     13          1           0        2.621652   -1.435113   -0.735763
     14          1           0        2.654933   -1.175286    1.013522
     15          1           0       -2.265219   -1.809446   -0.561982
     16          1           0       -2.226093   -1.447555    1.158338
     17          1           0       -1.764375    1.378238    1.540563
     18          1           0       -1.022496    1.674683   -0.019315
     19          1           0       -2.650092    2.346921    0.318677
 ---------------------------------------------------------------------

 SCF Done:  E(RB3LYP) =  -423.157947737     A.U. after    1 cycles

 The electronic state is 1-A.
 Alpha  occ. eigenvalues --  -19.14954 -19.13243 -10.27794 -10.25701 -10.23127
 Alpha  occ. eigenvalues --  -10.21650 -10.18672 -10.18666 -10.18102  -1.04479
 Alpha  occ. eigenvalues --   -1.04274  -0.80465  -0.76765  -0.73099  -0.69521
 Alpha  occ. eigenvalues --   -0.65229  -0.54527  -0.51174  -0.49323  -0.48653
 Alpha  occ. eigenvalues --   -0.47993  -0.46855  -0.45882  -0.41972  -0.41464
 Alpha  occ. eigenvalues --   -0.40834  -0.40351  -0.38540  -0.35405  -0.33251
 Alpha  occ. eigenvalues --   -0.28539  -0.27364  -0.25466  -0.24098
 Alpha virt. eigenvalues --   -0.01450   0.02795   0.05044   0.09203   0.10229
 Alpha virt. eigenvalues --    0.13896   0.14066   0.14920   0.15274   0.15893
 Alpha virt. eigenvalues --    0.16520   0.16943   0.17936   0.19691   0.21309

 Mulliken charges:
               1
     1  C   -0.219897
     2  O   -0.230017
     3  C   -0.200534
     4  C    0.011488
     5  C    0.124099
     6  C   -0.447935
     7  C    0.394693
     8  C   -0.475870
     9  O   -0.287064
    10  H    0.105929
    11  H    0.106780
    12  H    0.132364
    13  H    0.116285
    14  H    0.114522
    15  H    0.154917
    16  H    0.152129
    17  H    0.140455
    18  H    0.168059
    19  H    0.139597
 Sum of Mulliken charges =   0.00000

 Dipole moment (field-independent basis, Debye):
    X=              3.0037    Y=             -0.6019    Z=              1.4030  Tot=              3.3694
 Quadrupole moment (field-independent basis, Debye-Ang):
   XX=            -55.3210   YY=            -51.1164   ZZ=            -53.1318
   XY=              0.3242   XZ=             -5.2364   YZ=              0.3164

  Exact polarizability: 118.280   2.699  71.007   2.414   0.546  59.280
 Approx polarizability: 163.898   4.111  96.287   7.172  -0.311  90.214

                      1                      2                      3
                      A                      A                      A
 Frequencies --     18.2464                35.2713                46.6964
 Red. masses --      2.3888                 3.9903                 4.3660
 Frc consts  --      0.0005                 0.0029                 0.0056
 IR Inten    --      3.0939                 2.2456                 0.4176

                      4                      5                      6
                      A                      A                      A
 Frequencies --     82.8483               138.6738               166.7350
 Red. masses --      2.6638                 1.1596                 3.2486
 Frc consts  --      0.0108                 0.0131                 0.0532
 IR Inten    --      6.3711                 0.0810                 3.3788

                      7                      8                      9
                      A                      A                      A
 Frequencies --    208.1974               231.7091               325.0235
 Red. masses --      2.7063                 1.1586                 3.1193
 Frc consts  --      0.0691                 0.0367                 0.1942
 IR Inten    --      4.5304                 3.8683                 3.1115

                     10                     11                     12
                      A                      A                      A
 Frequencies --    366.0515               374.9128               399.4239
 Red. masses --      4.3831                 3.6702                 4.2436
 Frc consts  --      0.3460                 0.3040                 0.3989
 IR Inten    --      1.0122                 0.1722                 0.2938

                     13                     14                     15
                      A                      A                      A
 Frequencies --    474.3499               522.1920               594.4720
 Red. masses --      2.9306                 3.6886                 5.0849
 Frc consts  --      0.3885                 0.5926                 1.0588
 IR Inten    --      4.2180                15.2427                 3.2727

                     16                     17                     18
                      A                      A                      A
 Frequencies --    759.0097               831.3398               848.3732
 Red. masses --      3.4905                 2.1162                 2.1243
 Frc consts  --      1.1848                 0.8617                 0.9008
 IR Inten    --      3.6049                 1.6692                 4.9733

                     19                     20                     21
                      A                      A                      A
 Frequencies --    975.9669              1004.0698              1028.6969
 Red. masses --      4.5970                 1.8760                 1.6073
 Frc consts  --      2.5799                 1.1143                 1.0021
 IR Inten    --     31.3905                 7.8446                 3.4431

                     22                     23                     24
                      A                      A                      A
 Frequencies --   1051.7260              1136.1229              1172.5172
 Red. masses --      1.8222                 5.6109                 3.0345
 Frc consts  --      1.1876                 4.2671                 2.4580
 IR Inten    --      1.0939               137.0787                50.6766

                     25                     26                     27
                      A                      A                      A
 Frequencies --   1182.1965              1192.4623              1219.7471
 Red. masses --      1.2834                 1.7103                 1.5442
 Frc consts  --      1.0568                 1.4329                 1.3536
 IR Inten    --      3.8641                45.8183                33.6365

                     28                     29                     30
                      A                      A                      A
 Frequencies --   1228.2041              1252.1618              1297.3176
 Red. masses --      1.7575                 1.0812                 1.6116
 Frc consts  --      1.5620                 0.9988                 1.5981
 IR Inten    --     64.0304                 3.9901                10.7252

                     31                     32                     33
                      A                      A                      A
 Frequencies --   1384.9244              1411.3220              1445.2215
 Red. masses --      1.3077                 1.3752                 1.0897
 Frc consts  --      1.4778                 1.6139                 1.3410
 IR Inten    --     27.7402               102.8712                 3.4048

                     34                     35                     36
                      A                      A                      A
 Frequencies --   1458.4018              1470.3409              1478.5625
 Red. masses --      1.0534                 1.0493                 1.1614
 Frc consts  --      1.3201                 1.3365                 1.4959
 IR Inten    --     18.5785                 9.9706                 0.5587

                     37                     38                     39
                      A                      A                      A
 Frequencies --   1484.8281              1496.4740              1516.8207
 Red. masses --      1.0473                 1.0706                 1.0748
 Frc consts  --      1.3604                 1.4126                 1.4569
 IR Inten    --      5.4250                 3.1848                 3.3531

                     40                     41                     42
                      A                      A                      A
 Frequencies --   1823.4344              2374.4034              2943.8736
 Red. masses --     10.9652                11.8643                 1.0533
 Frc consts  --     21.4806                39.4095                 5.3784
 IR Inten    --    215.6448                12.2664                33.2996

                     43                     44                     45
                      A                      A                      A
 Frequencies --   2961.1278              2970.5747              3005.7287
 Red. masses --      1.1028                 1.0380                 1.0677
 Frc consts  --      5.6971                 5.3966                 5.6833
 IR Inten    --     45.2828                79.4478                13.9624

                     46                     47                     48
                      A                      A                      A
 Frequencies --   3013.9356              3043.1908              3083.4168
 Red. masses --      1.1032                 1.0368                 1.0909
 Frc consts  --      5.9041                 5.6572                 6.1110
 IR Inten    --     56.5008                 1.5450                 3.8705

                     49                     50                     51
                      A                      A                      A
 Frequencies --   3105.5795              3122.0339              3158.6996
 Red. masses --      1.0966                 1.0957                 1.1034
 Frc consts  --      6.2314                 6.2925                 6.4864
 IR Inten    --      3.7053                23.4905                10.5078

 - Thermochemistry -
 -------------------
 Temperature   298.150 Kelvin.  Pressure   1.00000 Atm.
 Atom     1 has atomic number  6 and mass  12.00000

 Molecular mass:   126.06808 amu.
 Principal axes and moments of inertia in atomic units:
                           1         2         3
     Eigenvalues --   447.436963090.355233404.27246
           X            0.99997   0.00026  -0.00790
           Y           -0.00012   0.99984   0.01804
           Z            0.00791  -0.01804   0.99981
 This molecule is an asymmetric top.
 Rotational symmetry number  1.
 Warning -- assumption of classical behavior for rotation
           may cause significant error
 Rotational temperatures (Kelvin)      0.19358     0.02803     0.02544
 Rotational constants (GHZ):           4.03351     0.58399     0.53014
 Zero-point vibrational energy     406237.5 (Joules/Mol)
                                   97.09310 (Kcal/Mol)
 Warning -- explicit consideration of  15 degrees of freedom as
           vibrations may cause significant error
 Vibrational temperatures:     26.25    50.75    67.19   119.20   199.52
          (Kelvin)            239.89   299.55   333.38   467.64   526.67
                              539.42   574.68   682.48   751.32   855.31
                             1092.04  1196.11  1220.62  1404.20  1444.63
                             1480.06  1513.20  1634.63  1686.99  1700.91
                             1715.69  1754.94  1767.11  1801.58  1866.55
                             1992.59  2030.57  2079.35  2098.31  2115.49
                             2127.32  2136.33  2153.09  2182.36  2623.51
                             3416.23  4235.57  4260.40  4273.99  4324.57
                             4336.38  4378.47  4436.34  4468.23  4491.90
                             4544.66

 Zero-point correction=                           0.154728 (Hartree/Particle)
 Thermal correction to Energy=                    0.165823
 Thermal correction to Enthalpy=                  0.166767
 Thermal correction to Gibbs Free Energy=         0.115329
 Sum of electronic and zero-point Energies=           -423.003220
 Sum of electronic and thermal Energies=              -422.992125
 Sum of electronic and thermal Enthalpies=            -422.991181
 Sum of electronic and thermal Free Energies=         -423.042619

                     E (Thermal)             CV                S
                      KCal/Mol        Cal/Mol-Kelvin    Cal/Mol-Kelvin
 Total                  104.055             36.756            108.261
 Electronic               0.000              0.000              0.000
 Translational            0.889              2.981             40.409
 Rotational               0.889              2.981             29.933
 Vibrational            102.278             30.794             37.919
 Vibration     1          0.593              1.986              6.816
 Vibration     2          0.594              1.982              5.508
 Vibration     3          0.595              1.979              4.953
 Vibration     4          0.600              1.961              3.822
 Vibration     5          0.614              1.915              2.822
 Vibration     6          0.624              1.883              2.472
 Vibration     7          0.642              1.828              2.059
 Vibration     8          0.653              1.792              1.866
 Vibration     9          0.709              1.625              1.285
 Vibration    10          0.739              1.542              1.096
 Vibration    11          0.746              1.524              1.060
 Vibration    12          0.765              1.471              0.965
 Vibration    13          0.831              1.307              0.725
 Vibration    14          0.877              1.201              0.605
 Vibration    15          0.952              1.044              0.459

 Normal termination of Gaussian 09 at Tue Jan 28 13:15:58 2020.
