 Gaussian 09, Revision D.01,
 Gaussian 09:  ES64L-G09RevD.01 24-Apr-2013

 -----------------------------
 # b3lyp 6-31G(2df,p) opt Freq
 -----------------------------

 -----
 titel
 -----
 Symbolic Z-matrix:
 Charge =  0 Multiplicity = 1

 SCF Done:  E(RB3LYP) =  -423.174291379     A.U. after   14 cycles
 SCF Done:  E(RB3LYP) =  -423.174291481     A.U. after    7 cycles
 SCF Done:  E(RB3LYP) =  -423.174290953     A.U. after    7 cycles
 SCF Done:  E(RB3LYP) =  -423.174291513     A.U. after    7 cycles
 Optimization completed.
    -- Stationary point found.
 Normal termination of Gaussian 09 at Mon Jan 27 17:30:50 2020.

 ----------------------------------------------------------------------
 #N Geom=AllCheck Guess=TCheck SCRF=Check GenChk RB3LYP/6-31G(2df,p) Fr
 eq
 ----------------------------------------------------------------------

 Structure from the checkpoint file:  "/scratch/puck/g09_6e773fc7-d6d3-4dd3-b10b-e440a6dd5fca/Gau-39552.chk"
 -----
 titel
 -----
 Charge =  0 Multiplicity = 1

                         Standard orientation:
 ---------------------------------------------------------------------
 Center     Atomic      Atomic             Coordinates (Angstroms)
 Number     Number       Type             X           Y           Z
 ---------------------------------------------------------------------
      1          6           0       -0.739402    2.163570    0.158840
      2          6           0       -0.672589    0.664444    0.007078
      3          6           0       -1.505460   -0.144406   -1.043525
      4          6           0       -0.457766   -1.222176   -0.697918
      5          8           0       -0.726969   -1.531902    0.679992
      6          6           0       -0.925904   -0.215628    1.240887
      7          6           0        0.591810   -0.075860   -0.615661
      8          6           0        1.843691   -0.270787    0.187739
      9          8           0        2.890508    0.278622   -0.060942
     10          1           0        0.003038    2.523604    0.879396
     11          1           0       -0.550980    2.666181   -0.794450
     12          1           0       -1.728686    2.475203    0.513189
     13          1           0       -2.548333   -0.371083   -0.806979
     14          1           0       -1.408331    0.253037   -2.055162
     15          1           0       -0.305507   -2.141885   -1.259457
     16          1           0       -1.948747   -0.116140    1.623940
     17          1           0       -0.224066   -0.043007    2.064532
     18          1           0        0.842152    0.358556   -1.585306
     19          1           0        1.754876   -0.973171    1.043253
 ---------------------------------------------------------------------

 SCF Done:  E(RB3LYP) =  -423.174291513     A.U. after    1 cycles

 The electronic state is 1-A.
 Alpha  occ. eigenvalues --  -19.14686 -19.13578 -10.26539 -10.24981 -10.23551
 Alpha  occ. eigenvalues --  -10.22266 -10.19989 -10.19590 -10.19108  -1.05310
 Alpha  occ. eigenvalues --   -1.04022  -0.85503  -0.75925  -0.71042  -0.69714
 Alpha  occ. eigenvalues --   -0.59645  -0.58261  -0.56147  -0.50976  -0.49190
 Alpha  occ. eigenvalues --   -0.47004  -0.44129  -0.42646  -0.41753  -0.41303
 Alpha  occ. eigenvalues --   -0.39526  -0.39083  -0.37209  -0.36793  -0.34494
 Alpha  occ. eigenvalues --   -0.32752  -0.30582  -0.26113  -0.23918
 Alpha virt. eigenvalues --   -0.03026   0.08424   0.08977   0.11456   0.11655
 Alpha virt. eigenvalues --    0.12773   0.13844   0.14610   0.15510   0.17007
 Alpha virt. eigenvalues --    0.17362   0.18613   0.19093   0.19536   0.20605

 Mulliken charges:
               1
     1  C   -0.501710
     2  C    0.260372
     3  C   -0.270533
     4  C    0.074067
     5  O   -0.276904
     6  C   -0.117228
     7  C   -0.117454
     8  C    0.125928
     9  O   -0.262275
    10  H    0.131382
    11  H    0.127795
    12  H    0.124234
    13  H    0.103147
    14  H    0.107498
    15  H    0.090416
    16  H    0.105747
    17  H    0.106179
    18  H    0.095005
    19  H    0.094335
 Sum of Mulliken charges =   0.00000

 Dipole moment (field-independent basis, Debye):
    X=             -2.7677    Y=              0.7770    Z=             -0.5070  Tot=              2.9191
 Quadrupole moment (field-independent basis, Debye-Ang):
   XX=            -62.4057   YY=            -54.5254   ZZ=            -50.5701
   XY=             -3.8379   XZ=              0.8955   YZ=              2.4763

  Exact polarizability:  84.047   0.606  71.830   0.047   0.278  71.235
 Approx polarizability: 124.567   5.655 105.443  -2.897  -2.087 107.569

                      1                      2                      3
                      A                      A                      A
 Frequencies --     64.3117               155.5907               200.2758
 Red. masses --      4.4571                 3.8072                 1.0878
 Frc consts  --      0.0109                 0.0543                 0.0257
 IR Inten    --      6.3797                 3.5449                 0.3332

                      4                      5                      6
                      A                      A                      A
 Frequencies --    243.9920               292.1611               302.7817
 Red. masses --      2.4015                 2.6229                 2.3948
 Frc consts  --      0.0842                 0.1319                 0.1294
 IR Inten    --      2.4729                 1.8816                 2.0056

                      7                      8                      9
                      A                      A                      A
 Frequencies --    407.0433               415.5310               526.8119
 Red. masses --      3.8350                 2.4057                 2.3567
 Frc consts  --      0.3744                 0.2447                 0.3854
 IR Inten    --      0.9491                 7.7170                12.3645

                     10                     11                     12
                      A                      A                      A
 Frequencies --    549.3580               592.1243               683.6920
 Red. masses --      3.6896                 3.9687                 3.8702
 Frc consts  --      0.6561                 0.8198                 1.0659
 IR Inten    --      2.1477                 0.9314                 0.5443

                     13                     14                     15
                      A                      A                      A
 Frequencies --    788.9835               856.8863               878.7838
 Red. masses --      2.9488                 2.8600                 2.6696
 Frc consts  --      1.0815                 1.2373                 1.2147
 IR Inten    --      2.1606                 2.5463                 2.4083

                     16                     17                     18
                      A                      A                      A
 Frequencies --    913.2528               939.2689               956.3692
 Red. masses --      3.8041                 1.9187                 2.2829
 Frc consts  --      1.8693                 0.9973                 1.2302
 IR Inten    --     27.4220                 2.3206                14.4548

                     19                     20                     21
                      A                      A                      A
 Frequencies --    972.5815              1004.0118              1029.0965
 Red. masses --      1.3741                 2.3447                 1.8752
 Frc consts  --      0.7658                 1.3926                 1.1701
 IR Inten    --     11.4007                39.3513                11.0005

                     22                     23                     24
                      A                      A                      A
 Frequencies --   1048.2575              1085.4865              1116.9476
 Red. masses --      1.5039                 1.6070                 1.9544
 Frc consts  --      0.9736                 1.1156                 1.4366
 IR Inten    --      1.2455                32.1217                14.8265

                     25                     26                     27
                      A                      A                      A
 Frequencies --   1136.7869              1167.6283              1195.7039
 Red. masses --      1.9779                 1.8648                 1.3421
 Frc consts  --      1.5060                 1.4979                 1.1306
 IR Inten    --     15.2713                16.6891                 2.6814

                     28                     29                     30
                      A                      A                      A
 Frequencies --   1217.7980              1229.9481              1241.9812
 Red. masses --      1.5256                 1.8387                 2.2789
 Frc consts  --      1.3331                 1.6388                 2.0712
 IR Inten    --      3.7825                15.5707                 0.6821

                     31                     32                     33
                      A                      A                      A
 Frequencies --   1269.2439              1294.0968              1331.3991
 Red. masses --      1.7027                 1.4933                 1.4850
 Frc consts  --      1.6161                 1.4734                 1.5509
 IR Inten    --      3.4945                18.0703                 2.8451

                     34                     35                     36
                      A                      A                      A
 Frequencies --   1383.9866              1416.6291              1430.7962
 Red. masses --      1.6847                 1.3271                 1.2590
 Frc consts  --      1.9012                 1.5691                 1.5186
 IR Inten    --      1.5865                 2.7404                 7.0228

                     37                     38                     39
                      A                      A                      A
 Frequencies --   1488.4366              1492.9306              1493.9776
 Red. masses --      1.0734                 1.0470                 1.1132
 Frc consts  --      1.4011                 1.3750                 1.4639
 IR Inten    --      1.8292                 3.5857                 4.8120

                     40                     41                     42
                      A                      A                      A
 Frequencies --   1533.8051              1812.2274              2910.0312
 Red. masses --      1.0959                 9.8552                 1.0828
 Frc consts  --      1.5191                19.0696                 5.4027
 IR Inten    --      0.5133               184.3976                63.8045

                     43                     44                     45
                      A                      A                      A
 Frequencies --   3024.0360              3030.3801              3063.9973
 Red. masses --      1.0547                 1.0379                 1.0837
 Frc consts  --      5.6825                 5.6157                 5.9945
 IR Inten    --     42.7360                34.2884                 0.3579

                     46                     47                     48
                      A                      A                      A
 Frequencies --   3066.2774              3093.8050              3103.4761
 Red. masses --      1.0824                 1.1005                 1.0869
 Frc consts  --      5.9961                 6.2061                 6.1680
 IR Inten    --     54.4250                17.6931                 4.2670

                     49                     50                     51
                      A                      A                      A
 Frequencies --   3106.6716              3135.0810              3145.8739
 Red. masses --      1.1002                 1.1082                 1.0920
 Frc consts  --      6.2565                 6.4178                 6.3671
 IR Inten    --     17.8577                22.9854                36.4165

 - Thermochemistry -
 -------------------
 Temperature   298.150 Kelvin.  Pressure   1.00000 Atm.
 Atom     1 has atomic number  6 and mass  12.00000

 Molecular mass:   126.06808 amu.
 Principal axes and moments of inertia in atomic units:
                           1         2         3
     Eigenvalues --   764.287011169.821321442.50591
           X            0.99862  -0.05180   0.00850
           Y            0.05158   0.99836   0.02483
           Z           -0.00978  -0.02436   0.99966
 This molecule is an asymmetric top.
 Rotational symmetry number  1.
 Warning -- assumption of classical behavior for rotation
           may cause significant error
 Rotational temperatures (Kelvin)      0.11333     0.07404     0.06004
 Rotational constants (GHZ):           2.36134     1.54275     1.25112
 Zero-point vibrational energy     417739.6 (Joules/Mol)
                                   99.84216 (Kcal/Mol)
 Warning -- explicit consideration of  11 degrees of freedom as
           vibrations may cause significant error
 Vibrational temperatures:     92.53   223.86   288.15   351.05   420.35
          (Kelvin)            435.63   585.64   597.86   757.96   790.40
                              851.93   983.68  1135.17  1232.87  1264.37
                             1313.97  1351.40  1376.00  1399.33  1444.55
                             1480.64  1508.21  1561.77  1607.04  1635.58
                             1679.95  1720.35  1752.14  1769.62  1786.93
                             1826.16  1861.91  1915.58  1991.25  2038.21
                             2058.59  2141.53  2147.99  2149.50  2206.80
                             2607.39  4186.88  4350.91  4360.04  4408.40
                             4411.68  4451.29  4465.20  4469.80  4510.68
                             4526.21

 Zero-point correction=                           0.159109 (Hartree/Particle)
 Thermal correction to Energy=                    0.167272
 Thermal correction to Enthalpy=                  0.168216
 Thermal correction to Gibbs Free Energy=         0.126246
 Sum of electronic and zero-point Energies=           -423.015183
 Sum of electronic and thermal Energies=              -423.007019
 Sum of electronic and thermal Enthalpies=            -423.006075
 Sum of electronic and thermal Free Energies=         -423.048046

                     E (Thermal)             CV                S
                      KCal/Mol        Cal/Mol-Kelvin    Cal/Mol-Kelvin
 Total                  104.965             31.385             88.334
 Electronic               0.000              0.000              0.000
 Translational            0.889              2.981             40.409
 Rotational               0.889              2.981             28.646
 Vibrational            103.187             25.423             19.279
 Vibration     1          0.597              1.971              4.320
 Vibration     2          0.620              1.896              2.603
 Vibration     3          0.638              1.839              2.131
 Vibration     4          0.659              1.773              1.774
 Vibration     5          0.688              1.688              1.461
 Vibration     6          0.694              1.668              1.401
 Vibration     7          0.772              1.455              0.937
 Vibration     8          0.779              1.437              0.907
 Vibration     9          0.882              1.191              0.594
 Vibration    10          0.905              1.141              0.546
 Vibration    11          0.950              1.049              0.463

 Normal termination of Gaussian 09 at Mon Jan 27 18:18:14 2020.
