 Gaussian 09, Revision D.01,
 Gaussian 09:  ES64L-G09RevD.01 24-Apr-2013

 -----------------------------
 # b3lyp 6-31G(2df,p) opt Freq
 -----------------------------

 -----
 titel
 -----
 Symbolic Z-matrix:
 Charge =  0 Multiplicity = 1

 SCF Done:  E(RB3LYP) =  -423.102671087     A.U. after   14 cycles
 Optimization completed.
    -- Stationary point found.
 Normal termination of Gaussian 09 at Mon Jan 27 22:06:06 2020.

 ----------------------------------------------------------------------
 #N Geom=AllCheck Guess=TCheck SCRF=Check GenChk RB3LYP/6-31G(2df,p) Fr
 eq
 ----------------------------------------------------------------------

 Structure from the checkpoint file:  "/scratch/puck/g09_652d4721-3d84-4d16-929b-439a77c4fb2c/Gau-46849.chk"
 -----
 titel
 -----
 Charge =  0 Multiplicity = 1

                         Standard orientation:
 ---------------------------------------------------------------------
 Center     Atomic      Atomic             Coordinates (Angstroms)
 Number     Number       Type             X           Y           Z
 ---------------------------------------------------------------------
      1          6           0        2.614559   -0.421162   -0.244846
      2          6           0        1.144612   -0.413498   -0.638320
      3          6           0        0.129591   -1.223938    0.212382
      4          6           0        0.021968   -0.120563    1.304759
      5          8           0       -1.432857   -0.042827    1.262616
      6          6           0       -1.054127   -0.264777   -0.138442
      7          6           0       -2.123025   -0.364722   -1.177045
      8          6           0        0.222625    0.661082   -0.045529
      9          8           0        0.333990    2.011489   -0.267295
     10          1           0        3.093201   -1.364637   -0.527917
     11          1           0        3.155523    0.389299   -0.743951
     12          1           0        2.744144   -0.291787    0.834901
     13          1           0        1.025846   -0.550612   -1.719581
     14          1           0        0.060068   -2.297500    0.374277
     15          1           0        0.517554   -0.034115    2.270401
     16          1           0       -2.813576   -1.181755   -0.946467
     17          1           0       -2.696289    0.566444   -1.230709
     18          1           0       -1.680013   -0.551451   -2.160269
     19          1           0       -0.352741    2.452289    0.248987
 ---------------------------------------------------------------------

 SCF Done:  E(RB3LYP) =  -423.102671087     A.U. after    1 cycles

 The electronic state is 1-A.
 Alpha  occ. eigenvalues --  -19.15480 -19.12498 -10.24294 -10.24278 -10.23792
 Alpha  occ. eigenvalues --  -10.19660 -10.19434 -10.18594 -10.17563  -1.06348
 Alpha  occ. eigenvalues --   -1.03000  -0.86454  -0.74842  -0.72512  -0.63509
 Alpha  occ. eigenvalues --   -0.62382  -0.59539  -0.54701  -0.49021  -0.47237
 Alpha  occ. eigenvalues --   -0.46360  -0.44962  -0.41848  -0.40923  -0.40129
 Alpha  occ. eigenvalues --   -0.38351  -0.37300  -0.36190  -0.35880  -0.32158
 Alpha  occ. eigenvalues --   -0.30227  -0.29410  -0.25094  -0.22941
 Alpha virt. eigenvalues --    0.07532   0.08744   0.10049   0.11209   0.11882
 Alpha virt. eigenvalues --    0.13513   0.14533   0.15308   0.15521   0.16626
 Alpha virt. eigenvalues --    0.17346   0.18662   0.20225   0.21190   0.21564

 Mulliken charges:
               1
     1  C   -0.421605
     2  C   -0.063488
     3  C   -0.143207
     4  C   -0.012668
     5  O   -0.372250
     6  C    0.374934
     7  C   -0.528538
     8  C    0.338663
     9  O   -0.470890
    10  H    0.115882
    11  H    0.127502
    12  H    0.114772
    13  H    0.071617
    14  H    0.083923
    15  H    0.092822
    16  H    0.135989
    17  H    0.130820
    18  H    0.132456
    19  H    0.293266
 Sum of Mulliken charges =   0.00000

 Dipole moment (field-independent basis, Debye):
    X=              0.3497    Y=             -0.4588    Z=             -0.6119  Tot=              0.8410
 Quadrupole moment (field-independent basis, Debye-Ang):
   XX=            -54.3369   YY=            -51.5113   ZZ=            -53.3638
   XY=             -2.6227   XZ=              4.1011   YZ=              2.4475

  Exact polarizability:  83.748  -1.285  70.744   1.944   0.918  70.890
 Approx polarizability: 112.751  -1.006 108.574  -1.242   0.690 109.810

                      1                      2                      3
                      A                      A                      A
 Frequencies --    164.9812               175.9580               184.9197
 Red. masses --      2.5811                 1.2241                 2.1055
 Frc consts  --      0.0414                 0.0223                 0.0424
 IR Inten    --      0.8499                 0.1905                 0.3714

                      4                      5                      6
                      A                      A                      A
 Frequencies --    196.8543               209.2788               289.2475
 Red. masses --      1.5151                 1.7153                 4.0621
 Frc consts  --      0.0346                 0.0443                 0.2002
 IR Inten    --      1.6858                 1.9988                 8.9315

                      7                      8                      9
                      A                      A                      A
 Frequencies --    300.3695               357.0799               439.7022
 Red. masses --      2.7636                 1.2060                 2.8634
 Frc consts  --      0.1469                 0.0906                 0.3262
 IR Inten    --      1.2445                78.2976                15.4428

                     10                     11                     12
                      A                      A                      A
 Frequencies --    525.1554               564.4922               669.9339
 Red. masses --      3.4443                 3.5233                 4.3280
 Frc consts  --      0.5597                 0.6615                 1.1445
 IR Inten    --      5.4660                 1.7023                 4.0729

                     13                     14                     15
                      A                      A                      A
 Frequencies --    704.0244               732.1972               762.7976
 Red. masses --      3.9998                 3.3964                 2.9361
 Frc consts  --      1.1681                 1.0728                 1.0066
 IR Inten    --      7.8012                 0.7970                 0.4015

                     16                     17                     18
                      A                      A                      A
 Frequencies --    821.7841               826.3792               897.3113
 Red. masses --      3.6927                 2.1569                 2.2291
 Frc consts  --      1.4693                 0.8678                 1.0574
 IR Inten    --     31.9381                 4.4594                15.6756

                     19                     20                     21
                      A                      A                      A
 Frequencies --    908.3497               931.4303               962.1740
 Red. masses --      2.1826                 2.5633                 2.5193
 Frc consts  --      1.0610                 1.3102                 1.3742
 IR Inten    --      7.0882                16.1216                34.7654

                     22                     23                     24
                      A                      A                      A
 Frequencies --   1032.4020              1056.9531              1070.1878
 Red. masses --      1.6260                 1.4029                 1.6321
 Frc consts  --      1.0211                 0.9234                 1.1013
 IR Inten    --      4.6735                 3.9943                 4.3542

                     25                     26                     27
                      A                      A                      A
 Frequencies --   1101.8885              1127.9626              1148.3910
 Red. masses --      1.6078                 1.8467                 2.3023
 Frc consts  --      1.1502                 1.3843                 1.7889
 IR Inten    --      4.8592                 5.0050                 3.8616

                     28                     29                     30
                      A                      A                      A
 Frequencies --   1151.5548              1199.1737              1218.2489
 Red. masses --      2.1164                 1.8386                 1.9305
 Frc consts  --      1.6535                 1.5578                 1.6880
 IR Inten    --      3.0246                37.4661                14.4198

                     31                     32                     33
                      A                      A                      A
 Frequencies --   1263.5947              1302.5319              1354.6628
 Red. masses --      1.8284                 2.6793                 1.6966
 Frc consts  --      1.7201                 2.6782                 1.8344
 IR Inten    --     50.4786               102.9407                23.5773

                     34                     35                     36
                      A                      A                      A
 Frequencies --   1382.0065              1414.1901              1416.2909
 Red. masses --      1.7911                 1.4817                 1.6693
 Frc consts  --      2.0156                 1.7459                 1.9729
 IR Inten    --     41.7788                15.7569                10.4335

                     37                     38                     39
                      A                      A                      A
 Frequencies --   1438.0087              1472.9226              1490.9904
 Red. masses --      2.2457                 1.0501                 1.0550
 Frc consts  --      2.7360                 1.3422                 1.3818
 IR Inten    --     11.7475                 8.3862                 4.0815

                     40                     41                     42
                      A                      A                      A
 Frequencies --   1492.7002              1502.1974              3032.1690
 Red. masses --      1.0510                 1.0826                 1.0356
 Frc consts  --      1.3798                 1.4394                 5.6097
 IR Inten    --      5.6197                 7.1503                26.1419

                     43                     44                     45
                      A                      A                      A
 Frequencies --   3035.8769              3038.5418              3098.5054
 Red. masses --      1.0492                 1.0681                 1.1012
 Frc consts  --      5.6975                 5.8100                 6.2288
 IR Inten    --      8.7045                37.7253                22.6619

                     46                     47                     48
                      A                      A                      A
 Frequencies --   3102.4911              3106.8965              3113.3302
 Red. masses --      1.1009                 1.1014                 1.1008
 Frc consts  --      6.2436                 6.2642                 6.2867
 IR Inten    --     25.2248                13.2840                14.0717

                     49                     50                     51
                      A                      A                      A
 Frequencies --   3130.6437              3148.5431              3778.5672
 Red. masses --      1.0902                 1.0954                 1.0652
 Frc consts  --      6.2955                 6.3982                 8.9603
 IR Inten    --     39.0316                23.2335                27.4659

 - Thermochemistry -
 -------------------
 Temperature   298.150 Kelvin.  Pressure   1.00000 Atm.
 Atom     1 has atomic number  6 and mass  12.00000

 Molecular mass:   126.06808 amu.
 Principal axes and moments of inertia in atomic units:
                           1         2         3
     Eigenvalues --   704.269231193.738751280.17208
           X            0.99880  -0.02468   0.04233
           Y            0.02044   0.99500   0.09778
           Z           -0.04453  -0.09680   0.99431
 This molecule is an asymmetric top.
 Rotational symmetry number  1.
 Warning -- assumption of classical behavior for rotation
           may cause significant error
 Rotational temperatures (Kelvin)      0.12298     0.07256     0.06766
 Rotational constants (GHZ):           2.56257     1.51184     1.40976
 Zero-point vibrational energy     411795.6 (Joules/Mol)
                                   98.42150 (Kcal/Mol)
 Warning -- explicit consideration of  11 degrees of freedom as
           vibrations may cause significant error
 Vibrational temperatures:    237.37   253.16   266.06   283.23   301.11
          (Kelvin)            416.16   432.16   513.76   632.63   755.58
                              812.18   963.88  1012.93  1053.47  1097.49
                             1182.36  1188.97  1291.03  1306.91  1340.12
                             1384.35  1485.39  1520.72  1539.76  1585.37
                             1622.88  1652.28  1656.83  1725.34  1752.79
                             1818.03  1874.05  1949.06  1988.40  2034.70
                             2037.72  2068.97  2119.20  2145.20  2147.66
                             2161.32  4362.61  4367.94  4371.78  4458.05
                             4463.79  4470.13  4479.38  4504.29  4530.05
                             5436.51

 Zero-point correction=                           0.156845 (Hartree/Particle)
 Thermal correction to Energy=                    0.165517
 Thermal correction to Enthalpy=                  0.166461
 Thermal correction to Gibbs Free Energy=         0.124193
 Sum of electronic and zero-point Energies=           -422.945826
 Sum of electronic and thermal Energies=              -422.937154
 Sum of electronic and thermal Enthalpies=            -422.936210
 Sum of electronic and thermal Free Energies=         -422.978478

                     E (Thermal)             CV                S
                      KCal/Mol        Cal/Mol-Kelvin    Cal/Mol-Kelvin
 Total                  103.864             33.689             88.961
 Electronic               0.000              0.000              0.000
 Translational            0.889              2.981             40.409
 Rotational               0.889              2.981             28.467
 Vibrational            102.086             27.727             20.086
 Vibration     1          0.623              1.885              2.492
 Vibration     2          0.628              1.872              2.371
 Vibration     3          0.631              1.860              2.278
 Vibration     4          0.636              1.844              2.162
 Vibration     5          0.642              1.827              2.050
 Vibration     6          0.686              1.694              1.478
 Vibration     7          0.693              1.673              1.415
 Vibration     8          0.732              1.561              1.135
 Vibration     9          0.800              1.384              0.828
 Vibration    10          0.880              1.194              0.598
 Vibration    11          0.920              1.108              0.515

 Normal termination of Gaussian 09 at Mon Jan 27 22:55:55 2020.
