 Gaussian 09, Revision D.01,
 Gaussian 09:  ES64L-G09RevD.01 24-Apr-2013

 -----------------------------
 # b3lyp 6-31G(2df,p) opt Freq
 -----------------------------

 -----
 titel
 -----
 Symbolic Z-matrix:
 Charge =  0 Multiplicity = 1

 SCF Done:  E(RB3LYP) =  -423.180314853     A.U. after   14 cycles
 Optimization completed.
    -- Stationary point found.
 Normal termination of Gaussian 09 at Tue Jan 28 03:11:18 2020.

 ----------------------------------------------------------------------
 #N Geom=AllCheck Guess=TCheck SCRF=Check GenChk RB3LYP/6-31G(2df,p) Fr
 eq
 ----------------------------------------------------------------------

 Structure from the checkpoint file:  "/scratch/puck/g09_06f49a8a-d293-4262-8ef8-6a0e62186468/Gau-44856.chk"
 -----
 titel
 -----
 Charge =  0 Multiplicity = 1

                         Standard orientation:
 ---------------------------------------------------------------------
 Center     Atomic      Atomic             Coordinates (Angstroms)
 Number     Number       Type             X           Y           Z
 ---------------------------------------------------------------------
      1          6           0       -2.521872   -0.149477   -0.464698
      2          6           0       -1.032083   -0.373358   -0.613405
      3          8           0       -0.567584   -1.519754    0.146654
      4          6           0        0.447238   -0.729498    0.817822
      5          6           0        1.833113   -0.921559    0.272327
      6          6           0        2.188776    0.079772   -0.535780
      7          6           0        1.126451    1.145044   -0.671083
      8          6           0       -0.059774    0.577316    0.138761
      9          8           0       -0.754993    1.521677    0.912289
     10          1           0       -2.840414    0.721008   -1.047246
     11          1           0       -3.059918   -1.027950   -0.834444
     12          1           0       -2.787727    0.016034    0.580604
     13          1           0       -0.765126   -0.487030   -1.673718
     14          1           0        0.358154   -0.822235    1.906477
     15          1           0        2.443630   -1.786653    0.505419
     16          1           0        3.139685    0.149527   -1.054277
     17          1           0        1.457154    2.107784   -0.254379
     18          1           0        0.861340    1.345428   -1.716778
     19          1           0       -0.117270    1.999272    1.453130
 ---------------------------------------------------------------------

 SCF Done:  E(RB3LYP) =  -423.180314853     A.U. after    1 cycles

 The electronic state is 1-A.
 Alpha  occ. eigenvalues --  -19.14663 -19.12278 -10.23779 -10.22645 -10.22486
 Alpha  occ. eigenvalues --  -10.19275 -10.19200 -10.18279 -10.16647  -1.04350
 Alpha  occ. eigenvalues --   -1.01402  -0.83020  -0.75255  -0.70313  -0.68829
 Alpha  occ. eigenvalues --   -0.62008  -0.56246  -0.54008  -0.51421  -0.47996
 Alpha  occ. eigenvalues --   -0.46509  -0.44960  -0.41604  -0.41486  -0.39042
 Alpha  occ. eigenvalues --   -0.37836  -0.37545  -0.36691  -0.35488  -0.32964
 Alpha  occ. eigenvalues --   -0.29836  -0.26214  -0.25521  -0.24004
 Alpha virt. eigenvalues --    0.00793   0.06695   0.10370   0.11274   0.12066
 Alpha virt. eigenvalues --    0.13550   0.14952   0.15624   0.16395   0.16861
 Alpha virt. eigenvalues --    0.17520   0.18236   0.20240   0.20761   0.22878

 Mulliken charges:
               1
     1  C   -0.399601
     2  C    0.125022
     3  O   -0.317210
     4  C    0.027398
     5  C   -0.086153
     6  C   -0.065291
     7  C   -0.349725
     8  C    0.340136
     9  O   -0.482887
    10  H    0.116213
    11  H    0.119894
    12  H    0.132904
    13  H    0.069130
    14  H    0.075932
    15  H    0.101079
    16  H    0.100248
    17  H    0.098193
    18  H    0.115209
    19  H    0.279506
 Sum of Mulliken charges =   0.00000

 Dipole moment (field-independent basis, Debye):
    X=              1.8013    Y=              1.7177    Z=             -0.0137  Tot=              2.4891
 Quadrupole moment (field-independent basis, Debye-Ang):
   XX=            -52.0045   YY=            -54.8954   ZZ=            -50.0963
   XY=              0.8251   XZ=              1.7140   YZ=              0.6240

  Exact polarizability:  85.372   0.533  73.749  -1.047  -5.947  67.930
 Approx polarizability: 110.358   3.868 117.575  -3.247 -13.801 107.395

                      1                      2                      3
                      A                      A                      A
 Frequencies --     72.5195               200.2231               211.1267
 Red. masses --      3.3962                 1.1571                 1.8697
 Frc consts  --      0.0105                 0.0273                 0.0491
 IR Inten    --      0.7870                 4.4200                 3.6160

                      4                      5                      6
                      A                      A                      A
 Frequencies --    237.5215               250.5471               286.2583
 Red. masses --      2.8801                 1.2930                 2.9884
 Frc consts  --      0.0957                 0.0478                 0.1443
 IR Inten    --      5.8763                67.8315                 3.9632

                      7                      8                      9
                      A                      A                      A
 Frequencies --    379.8026               425.4459               442.9012
 Red. masses --      4.8689                 2.2066                 3.4591
 Frc consts  --      0.4138                 0.2353                 0.3998
 IR Inten    --     11.5356                 1.9247                 2.3844

                     10                     11                     12
                      A                      A                      A
 Frequencies --    519.4604               643.0480               676.0762
 Red. masses --      2.9332                 4.2171                 4.1289
 Frc consts  --      0.4663                 1.0274                 1.1119
 IR Inten    --      8.8150                 5.4541                 4.0576

                     13                     14                     15
                      A                      A                      A
 Frequencies --    732.3163               778.1260               811.7822
 Red. masses --      1.7280                 4.2848                 2.1250
 Frc consts  --      0.5460                 1.5286                 0.8251
 IR Inten    --     16.0735                 2.0899                14.3622

                     16                     17                     18
                      A                      A                      A
 Frequencies --    881.6846               916.1911               957.5917
 Red. masses --      2.6406                 2.1935                 2.0300
 Frc consts  --      1.2094                 1.0848                 1.0968
 IR Inten    --     12.8987                 8.4934                 7.2511

                     19                     20                     21
                      A                      A                      A
 Frequencies --    973.6969               981.8543              1005.9581
 Red. masses --      1.8986                 1.8271                 1.9188
 Frc consts  --      1.0605                 1.0378                 1.1440
 IR Inten    --     33.9876                17.5094                39.6810

                     22                     23                     24
                      A                      A                      A
 Frequencies --   1021.2656              1054.9338              1085.0549
 Red. masses --      2.2034                 2.0081                 2.2834
 Frc consts  --      1.3540                 1.3167                 1.5840
 IR Inten    --     31.5411                19.1478                12.7744

                     25                     26                     27
                      A                      A                      A
 Frequencies --   1111.3295              1124.1024              1151.6151
 Red. masses --      1.4429                 2.3988                 1.3918
 Frc consts  --      1.0500                 1.7859                 1.0876
 IR Inten    --     15.5762                20.6339                11.3627

                     28                     29                     30
                      A                      A                      A
 Frequencies --   1153.6536              1198.6775              1263.6419
 Red. masses --      2.1473                 1.9504                 1.7644
 Frc consts  --      1.6838                 1.6512                 1.6599
 IR Inten    --     37.2663                39.6965                24.9645

                     31                     32                     33
                      A                      A                      A
 Frequencies --   1292.5452              1313.3552              1334.8404
 Red. masses --      1.2887                 1.3878                 1.7736
 Frc consts  --      1.2685                 1.4104                 1.8619
 IR Inten    --      6.0471                23.2332                25.9416

                     34                     35                     36
                      A                      A                      A
 Frequencies --   1363.0024              1373.7643              1401.2269
 Red. masses --      1.4987                 1.6784                 1.4140
 Frc consts  --      1.6405                 1.8663                 1.6357
 IR Inten    --      8.6650                 6.1529                 7.5310

                     37                     38                     39
                      A                      A                      A
 Frequencies --   1406.4771              1478.4186              1482.5838
 Red. masses --      1.6212                 1.0877                 1.0594
 Frc consts  --      1.8895                 1.4007                 1.3720
 IR Inten    --      8.7311                 2.9580                 4.7654

                     40                     41                     42
                      A                      A                      A
 Frequencies --   1490.2551              1673.5174              2998.5716
 Red. masses --      1.0671                 6.2325                 1.0832
 Frc consts  --      1.3963                10.2842                 5.7384
 IR Inten    --      2.3502                 1.9555                42.6724

                     43                     44                     45
                      A                      A                      A
 Frequencies --   2999.8046              3040.0478              3043.5488
 Red. masses --      1.0688                 1.0846                 1.0520
 Frc consts  --      5.6665                 5.9060                 5.7415
 IR Inten    --     39.4188                52.7210                 9.5664

                     46                     47                     48
                      A                      A                      A
 Frequencies --   3044.4943              3110.0345              3142.0219
 Red. masses --      1.0780                 1.1011                 1.1005
 Frc consts  --      5.8873                 6.2749                 6.4014
 IR Inten    --     21.4930                17.3554                14.9414

                     49                     50                     51
                      A                      A                      A
 Frequencies --   3177.8986              3205.0208              3809.3258
 Red. masses --      1.0855                 1.1026                 1.0660
 Frc consts  --      6.4588                 6.6728                 9.1143
 IR Inten    --      8.5488                21.4312                16.2452

 - Thermochemistry -
 -------------------
 Temperature   298.150 Kelvin.  Pressure   1.00000 Atm.
 Atom     1 has atomic number  6 and mass  12.00000

 Molecular mass:   126.06808 amu.
 Principal axes and moments of inertia in atomic units:
                           1         2         3
     Eigenvalues --   650.716801134.471931400.61361
           X            0.99992   0.00912   0.00836
           Y           -0.00893   0.99971  -0.02214
           Z           -0.00856   0.02206   0.99972
 This molecule is an asymmetric top.
 Rotational symmetry number  1.
 Warning -- assumption of classical behavior for rotation
           may cause significant error
 Rotational temperatures (Kelvin)      0.13311     0.07635     0.06184
 Rotational constants (GHZ):           2.77347     1.59082     1.28854
 Zero-point vibrational energy     417073.0 (Joules/Mol)
                                   99.68284 (Kcal/Mol)
 Warning -- explicit consideration of  10 degrees of freedom as
           vibrations may cause significant error
 Vibrational temperatures:    104.34   288.08   303.76   341.74   360.48
          (Kelvin)            411.86   546.45   612.12   637.24   747.39
                              925.20   972.72  1053.64  1119.55  1167.97
                             1268.55  1318.19  1377.76  1400.93  1412.67
                             1447.35  1469.37  1517.81  1561.15  1598.95
                             1617.33  1656.92  1659.85  1724.63  1818.10
                             1859.68  1889.62  1920.54  1961.05  1976.54
                             2016.05  2023.60  2127.11  2133.10  2144.14
                             2407.82  4314.27  4316.04  4373.95  4378.98
                             4380.34  4474.64  4520.66  4572.28  4611.30
                             5480.76

 Zero-point correction=                           0.158855 (Hartree/Particle)
 Thermal correction to Energy=                    0.167180
 Thermal correction to Enthalpy=                  0.168124
 Thermal correction to Gibbs Free Energy=         0.126178
 Sum of electronic and zero-point Energies=           -423.021460
 Sum of electronic and thermal Energies=              -423.013135
 Sum of electronic and thermal Enthalpies=            -423.012191
 Sum of electronic and thermal Free Energies=         -423.054137

                     E (Thermal)             CV                S
                      KCal/Mol        Cal/Mol-Kelvin    Cal/Mol-Kelvin
 Total                  104.907             32.355             88.284
 Electronic               0.000              0.000              0.000
 Translational            0.889              2.981             40.409
 Rotational               0.889              2.981             28.427
 Vibrational            103.130             26.393             19.448
 Vibration     1          0.599              1.967              4.084
 Vibration     2          0.638              1.840              2.131
 Vibration     3          0.643              1.824              2.034
 Vibration     4          0.656              1.783              1.821
 Vibration     5          0.663              1.762              1.727
 Vibration     6          0.684              1.699              1.496
 Vibration     7          0.750              1.513              1.040
 Vibration     8          0.787              1.415              0.874
 Vibration     9          0.803              1.377              0.818
 Vibration    10          0.874              1.207              0.611

 Optimization completed.
    -- Stationary point found.
 Normal termination of Gaussian 09 at Tue Jan 28 05:10:51 2020.
