 Gaussian 09, Revision D.01,
 Gaussian 09:  ES64L-G09RevD.01 24-Apr-2013

 -----------------------------
 # b3lyp 6-31G(2df,p) opt Freq
 -----------------------------

 -----
 titel
 -----
 Symbolic Z-matrix:
 Charge =  0 Multiplicity = 1

 SCF Done:  E(RB3LYP) =  -423.175953424     A.U. after   14 cycles
 Optimization completed.
    -- Stationary point found.
 Normal termination of Gaussian 09 at Mon Jan 27 18:18:50 2020.

 ----------------------------------------------------------------------
 #N Geom=AllCheck Guess=TCheck SCRF=Check GenChk RB3LYP/6-31G(2df,p) Fr
 eq
 ----------------------------------------------------------------------

 Structure from the checkpoint file:  "/scratch/puck/g09_13acdcca-6833-4e6e-ac88-7a57808359cc/Gau-171186.chk"
 -----
 titel
 -----
 Charge =  0 Multiplicity = 1

                         Standard orientation:
 ---------------------------------------------------------------------
 Center     Atomic      Atomic             Coordinates (Angstroms)
 Number     Number       Type             X           Y           Z
 ---------------------------------------------------------------------
      1          6           0       -2.002121   -1.089010   -0.189282
      2          6           0       -0.839737   -0.147011   -0.071014
      3          8           0       -1.183327    1.258578    0.030785
      4          6           0        0.188974    1.438361    0.485320
      5          6           0        0.971811    1.168285   -0.812415
      6          6           0        0.373186   -0.244375   -1.077530
      7          6           0        1.269358   -1.257975   -0.363625
      8          8           0        1.223543   -0.841631    1.019084
      9          6           0        0.111915    0.011258    1.133143
     10          1           0       -2.556097   -0.897670   -1.114563
     11          1           0       -1.658135   -2.127727   -0.207718
     12          1           0       -2.689733   -0.967917    0.652310
     13          1           0        0.355265    2.361279    1.040042
     14          1           0        0.703156    1.902744   -1.574048
     15          1           0        2.057417    1.153899   -0.685630
     16          1           0        0.133575   -0.487060   -2.112586
     17          1           0        0.902466   -2.291365   -0.452488
     18          1           0        2.309060   -1.232101   -0.704700
     19          1           0       -0.319010   -0.026863    2.132839
 ---------------------------------------------------------------------

 SCF Done:  E(RB3LYP) =  -423.175953424     A.U. after    1 cycles

 The electronic state is 1-A.
 Alpha  occ. eigenvalues --  -19.14137 -19.13363 -10.23788 -10.23169 -10.23093
 Alpha  occ. eigenvalues --  -10.23069 -10.19307 -10.18358 -10.18337  -1.06387
 Alpha  occ. eigenvalues --   -1.02441  -0.80012  -0.75789  -0.73483  -0.67123
 Alpha  occ. eigenvalues --   -0.63100  -0.56087  -0.55303  -0.50357  -0.48306
 Alpha  occ. eigenvalues --   -0.47307  -0.45586  -0.41869  -0.41229  -0.40529
 Alpha  occ. eigenvalues --   -0.39051  -0.37045  -0.35065  -0.34071  -0.33686
 Alpha  occ. eigenvalues --   -0.33120  -0.30839  -0.24420  -0.24139
 Alpha virt. eigenvalues --    0.08536   0.08822   0.11325   0.12007   0.12940
 Alpha virt. eigenvalues --    0.13406   0.14792   0.15535   0.16440   0.17013
 Alpha virt. eigenvalues --    0.17721   0.19154   0.19467   0.19828   0.21901

 Mulliken charges:
               1
     1  C   -0.512017
     2  C    0.417599
     3  O   -0.338651
     4  C    0.030889
     5  C   -0.218921
     6  C   -0.124065
     7  C   -0.086682
     8  O   -0.281087
     9  C    0.066733
    10  H    0.131167
    11  H    0.127557
    12  H    0.130923
    13  H    0.076687
    14  H    0.108041
    15  H    0.103797
    16  H    0.072068
    17  H    0.094725
    18  H    0.109877
    19  H    0.091362
 Sum of Mulliken charges =   0.00000

 Dipole moment (field-independent basis, Debye):
    X=              0.2852    Y=             -0.6883    Z=             -0.9565  Tot=              1.2124
 Quadrupole moment (field-independent basis, Debye-Ang):
   XX=            -54.8856   YY=            -52.8519   ZZ=            -52.2563
   XY=              4.0592   XZ=             -2.5422   YZ=              2.4970

  Exact polarizability:  74.901   2.757  75.763  -2.944   2.814  68.302
 Approx polarizability: 108.880  -1.050 109.712  -1.253   3.689 104.036

                      1                      2                      3
                      A                      A                      A
 Frequencies --    173.9545               233.9740               245.7115
 Red. masses --      1.0664                 2.6425                 2.6133
 Frc consts  --      0.0190                 0.0852                 0.0930
 IR Inten    --      0.1145                 0.5405                 2.6093

                      4                      5                      6
                      A                      A                      A
 Frequencies --    273.2764               414.7146               447.2559
 Red. masses --      2.7336                 2.0093                 3.1614
 Frc consts  --      0.1203                 0.2036                 0.3726
 IR Inten    --      1.1946                 0.4788                 5.9787

                      7                      8                      9
                      A                      A                      A
 Frequencies --    515.8733               587.6831               627.2711
 Red. masses --      4.1566                 4.1441                 4.0001
 Frc consts  --      0.6517                 0.8433                 0.9273
 IR Inten    --      7.4780                 1.1677                 1.3376

                     10                     11                     12
                      A                      A                      A
 Frequencies --    706.9273               769.6415               837.7743
 Red. masses --      5.2200                 4.5026                 2.6820
 Frc consts  --      1.5370                 1.5714                 1.1091
 IR Inten    --      3.2827                 1.4496                18.9079

                     13                     14                     15
                      A                      A                      A
 Frequencies --    840.5613               869.8736               879.1893
 Red. masses --      2.9773                 2.5431                 2.6069
 Frc consts  --      1.2394                 1.1338                 1.1873
 IR Inten    --      4.4815                16.8248                 3.0275

                     16                     17                     18
                      A                      A                      A
 Frequencies --    907.4975               933.8483               961.6745
 Red. masses --      3.9273                 2.5390                 1.9221
 Frc consts  --      1.9056                 1.3046                 1.0474
 IR Inten    --      4.0087                18.8755                 7.6270

                     19                     20                     21
                      A                      A                      A
 Frequencies --    976.9754               982.9154              1013.4284
 Red. masses --      2.1476                 1.7137                 1.9294
 Frc consts  --      1.2078                 0.9755                 1.1675
 IR Inten    --     24.6765                 2.3985                 2.8024

                     22                     23                     24
                      A                      A                      A
 Frequencies --   1064.6936              1096.0966              1125.6945
 Red. masses --      1.4952                 3.1381                 1.7163
 Frc consts  --      0.9986                 2.2214                 1.2814
 IR Inten    --      3.1446                59.1533                 0.4576

                     25                     26                     27
                      A                      A                      A
 Frequencies --   1133.6627              1150.7118              1174.9632
 Red. masses --      1.8813                 2.1656                 1.6987
 Frc consts  --      1.4245                 1.6895                 1.3817
 IR Inten    --     16.1244                77.3700                 3.0432

                     28                     29                     30
                      A                      A                      A
 Frequencies --   1191.8774              1215.6785              1259.0987
 Red. masses --      1.5723                 1.2780                 1.5855
 Frc consts  --      1.3160                 1.1128                 1.4810
 IR Inten    --      3.1140                 0.4427                 3.9570

                     31                     32                     33
                      A                      A                      A
 Frequencies --   1276.1372              1292.7684              1302.3308
 Red. masses --      1.9622                 1.3674                 1.6011
 Frc consts  --      1.8827                 1.3465                 1.6000
 IR Inten    --      5.8793                 6.5167                14.8619

                     34                     35                     36
                      A                      A                      A
 Frequencies --   1325.6352              1362.9938              1397.5866
 Red. masses --      1.5819                 1.7558                 1.4831
 Frc consts  --      1.6378                 1.9219                 1.7068
 IR Inten    --      1.7460                 2.3816                 5.8359

                     37                     38                     39
                      A                      A                      A
 Frequencies --   1419.1236              1478.1808              1482.5155
 Red. masses --      1.7456                 1.0530                 1.1066
 Frc consts  --      2.0713                 1.3556                 1.4330
 IR Inten    --     16.2610                 3.9889                 2.4016

                     40                     41                     42
                      A                      A                      A
 Frequencies --   1494.1957              1525.0372              2992.5468
 Red. masses --      1.0553                 1.0939                 1.0689
 Frc consts  --      1.3881                 1.4989                 5.6399
 IR Inten    --      4.8844                 1.4156                69.6883

                     43                     44                     45
                      A                      A                      A
 Frequencies --   3038.7788              3066.9370              3072.2772
 Red. masses --      1.0357                 1.0657                 1.0888
 Frc consts  --      5.6350                 5.9058                 6.0548
 IR Inten    --     17.8670                 6.2339                53.7356

                     46                     47                     48
                      A                      A                      A
 Frequencies --   3106.9977              3116.6924              3118.0907
 Red. masses --      1.1002                 1.0948                 1.0995
 Frc consts  --      6.2574                 6.2660                 6.2985
 IR Inten    --     13.1707                 7.0742                27.8351

                     49                     50                     51
                      A                      A                      A
 Frequencies --   3125.1136              3125.4785              3136.7279
 Red. masses --      1.0911                 1.1011                 1.0925
 Frc consts  --      6.2783                 6.3373                 6.3333
 IR Inten    --     27.0269                31.9617                33.7455

 - Thermochemistry -
 -------------------
 Temperature   298.150 Kelvin.  Pressure   1.00000 Atm.
 Atom     1 has atomic number  6 and mass  12.00000

 Molecular mass:   126.06808 amu.
 Principal axes and moments of inertia in atomic units:
                           1         2         3
     Eigenvalues --   742.75741 857.259141070.96075
           X            0.96471   0.26060  -0.03773
           Y           -0.25940   0.96518   0.03380
           Z            0.04523  -0.02282   0.99872
 This molecule is an asymmetric top.
 Rotational symmetry number  1.
 Warning -- assumption of classical behavior for rotation
           may cause significant error
 Rotational temperatures (Kelvin)      0.11661     0.10104     0.08087
 Rotational constants (GHZ):           2.42979     2.10525     1.68516
 Zero-point vibrational energy     423888.6 (Joules/Mol)
                                  101.31181 (Kcal/Mol)
 Warning -- explicit consideration of   8 degrees of freedom as
           vibrations may cause significant error
 Vibrational temperatures:    250.28   336.64   353.52   393.18   596.68
          (Kelvin)            643.50   742.23   845.54   902.50  1017.11
                             1107.34  1205.37  1209.38  1251.55  1264.96
                             1305.68  1343.60  1383.63  1405.65  1414.19
                             1458.10  1531.85  1577.04  1619.62  1631.09
                             1655.62  1690.51  1714.84  1749.09  1811.56
                             1836.07  1860.00  1873.76  1907.29  1961.04
                             2010.81  2041.80  2126.77  2133.01  2149.81
                             2194.19  4305.60  4372.12  4412.63  4420.32
                             4470.27  4484.22  4486.23  4496.34  4496.86
                             4513.05

 Zero-point correction=                           0.161451 (Hartree/Particle)
 Thermal correction to Energy=                    0.168410
 Thermal correction to Enthalpy=                  0.169354
 Thermal correction to Gibbs Free Energy=         0.130520
 Sum of electronic and zero-point Energies=           -423.014503
 Sum of electronic and thermal Energies=              -423.007543
 Sum of electronic and thermal Enthalpies=            -423.006599
 Sum of electronic and thermal Free Energies=         -423.045433

                     E (Thermal)             CV                S
                      KCal/Mol        Cal/Mol-Kelvin    Cal/Mol-Kelvin
 Total                  105.679             28.834             81.733
 Electronic               0.000              0.000              0.000
 Translational            0.889              2.981             40.409
 Rotational               0.889              2.981             28.013
 Vibrational            103.901             22.873             13.311
 Vibration     1          0.627              1.875              2.392
 Vibration     2          0.654              1.789              1.848
 Vibration     3          0.660              1.770              1.761
 Vibration     4          0.676              1.723              1.575
 Vibration     5          0.778              1.438              0.910
 Vibration     6          0.806              1.367              0.804
 Vibration     7          0.871              1.215              0.620
 Vibration     8          0.945              1.058              0.471

 Optimization completed.
    -- Stationary point found.
 Normal termination of Gaussian 09 at Mon Jan 27 19:05:56 2020.
