 Gaussian 09, Revision D.01,
 Gaussian 09:  ES64L-G09RevD.01 24-Apr-2013

 -----------------------------
 # b3lyp 6-31G(2df,p) opt Freq
 -----------------------------

 -----
 titel
 -----
 Symbolic Z-matrix:
 Charge =  0 Multiplicity = 1

 SCF Done:  E(RB3LYP) =  -423.164678986     A.U. after   14 cycles
 Optimization completed.
    -- Stationary point found.
 Normal termination of Gaussian 09 at Mon Jan 27 16:17:32 2020.

 ----------------------------------------------------------------------
 #N Geom=AllCheck Guess=TCheck SCRF=Check GenChk RB3LYP/6-31G(2df,p) Fr
 eq
 ----------------------------------------------------------------------

 Structure from the checkpoint file:  "/scratch/puck/g09_ed66a119-c6fc-47f3-8489-c5b98b41292f/Gau-165222.chk"
 -----
 titel
 -----
 Charge =  0 Multiplicity = 1

                         Standard orientation:
 ---------------------------------------------------------------------
 Center     Atomic      Atomic             Coordinates (Angstroms)
 Number     Number       Type             X           Y           Z
 ---------------------------------------------------------------------
      1          6           0        2.430326    0.759754   -0.251200
      2          6           0        1.238337   -0.130295    0.059128
      3          6           0        1.655858   -1.525788    0.500621
      4          8           0        0.330229   -0.239436   -1.099194
      5          6           0       -0.778283    0.157012   -0.301406
      6          6           0       -0.619106    1.555388    0.229832
      7          6           0        0.098463    0.439573    0.924187
      8          6           0       -2.049439   -0.580472   -0.380661
      9          8           0       -3.038754   -0.294767    0.252978
     10          1           0        3.014758    0.327474   -1.069561
     11          1           0        2.118409    1.762706   -0.549972
     12          1           0        3.080664    0.844647    0.625275
     13          1           0        2.247333   -1.476739    1.421305
     14          1           0        0.779089   -2.152191    0.685555
     15          1           0        2.263524   -2.001075   -0.274896
     16          1           0       -0.087613    2.274617   -0.384968
     17          1           0       -1.490279    1.930091    0.756530
     18          1           0       -0.098284    0.161980    1.951648
     19          1           0       -2.016338   -1.448916   -1.074194
 ---------------------------------------------------------------------

 SCF Done:  E(RB3LYP) =  -423.164678986     A.U. after    1 cycles

 The electronic state is 1-A.
 Alpha  occ. eigenvalues --  -19.14871 -19.13582 -10.27098 -10.25888 -10.25260
 Alpha  occ. eigenvalues --  -10.21517 -10.20536 -10.18670 -10.18581  -1.06557
 Alpha  occ. eigenvalues --   -1.04085  -0.84842  -0.79341  -0.70525  -0.68395
 Alpha  occ. eigenvalues --   -0.63721  -0.56028  -0.53754  -0.52226  -0.49537
 Alpha  occ. eigenvalues --   -0.46309  -0.45194  -0.43285  -0.41766  -0.40351
 Alpha  occ. eigenvalues --   -0.39964  -0.39259  -0.37744  -0.36803  -0.35304
 Alpha  occ. eigenvalues --   -0.32548  -0.29502  -0.25506  -0.24440
 Alpha virt. eigenvalues --   -0.03428   0.08111   0.08601   0.11224   0.12092
 Alpha virt. eigenvalues --    0.12226   0.13704   0.13900   0.15877   0.16165
 Alpha virt. eigenvalues --    0.16934   0.18583   0.19153   0.20246   0.21999

 Mulliken charges:
               1
     1  C   -0.436547
     2  C    0.386595
     3  C   -0.421444
     4  O   -0.359248
     5  C    0.350089
     6  C   -0.351663
     7  C   -0.182505
     8  C    0.065054
     9  O   -0.272818
    10  H    0.130589
    11  H    0.123507
    12  H    0.122372
    13  H    0.118732
    14  H    0.122869
    15  H    0.128568
    16  H    0.125326
    17  H    0.148140
    18  H    0.116205
    19  H    0.086179
 Sum of Mulliken charges =   0.00000

 Dipole moment (field-independent basis, Debye):
    X=              2.8957    Y=              0.2735    Z=              0.7906  Tot=              3.0141
 Quadrupole moment (field-independent basis, Debye-Ang):
   XX=            -60.4510   YY=            -50.9379   ZZ=            -53.8105
   XY=             -0.7694   XZ=              2.7849   YZ=             -0.1859

  Exact polarizability:  94.576   0.934  74.540   0.227   2.908  63.639
 Approx polarizability: 132.198   1.472 106.542  -0.404   7.373 105.394

                      1                      2                      3
                      A                      A                      A
 Frequencies --    100.2510               151.4951               174.6196
 Red. masses --      5.2310                 3.3645                 2.2921
 Frc consts  --      0.0310                 0.0455                 0.0412
 IR Inten    --      3.0536                 4.3127                 5.2377

                      4                      5                      6
                      A                      A                      A
 Frequencies --    195.2088               239.7636               266.3391
 Red. masses --      1.0840                 1.2091                 2.1605
 Frc consts  --      0.0243                 0.0410                 0.0903
 IR Inten    --      1.0269                 0.6712                 4.3665

                      7                      8                      9
                      A                      A                      A
 Frequencies --    305.0798               343.9701               373.1952
 Red. masses --      2.9419                 2.5015                 2.4629
 Frc consts  --      0.1613                 0.1744                 0.2021
 IR Inten    --      1.6297                 1.3266                 4.1323

                     10                     11                     12
                      A                      A                      A
 Frequencies --    463.5964               506.9034               528.5145
 Red. masses --      3.2259                 3.0838                 3.6367
 Frc consts  --      0.4085                 0.4669                 0.5985
 IR Inten    --      3.2122                 5.6289                 2.1681

                     13                     14                     15
                      A                      A                      A
 Frequencies --    667.5755               712.9135               791.6634
 Red. masses --      3.9042                 3.0433                 4.7179
 Frc consts  --      1.0251                 0.9113                 1.7421
 IR Inten    --      2.4246                 9.7724                 5.0626

                     16                     17                     18
                      A                      A                      A
 Frequencies --    834.2121               846.1397               932.8160
 Red. masses --      2.3474                 4.0373                 1.4795
 Frc consts  --      0.9625                 1.7031                 0.7585
 IR Inten    --     25.5979                26.5573                 0.4113

                     19                     20                     21
                      A                      A                      A
 Frequencies --    943.5337               966.7046               987.3919
 Red. masses --      1.4499                 2.1099                 1.6722
 Frc consts  --      0.7605                 1.1617                 0.9606
 IR Inten    --      6.6305                10.9278                10.0777

                     22                     23                     24
                      A                      A                      A
 Frequencies --    994.7022              1007.8076              1055.5941
 Red. masses --      1.4033                 1.4529                 1.7259
 Frc consts  --      0.8180                 0.8694                 1.1331
 IR Inten    --     25.8538                20.4753                27.2167

                     25                     26                     27
                      A                      A                      A
 Frequencies --   1067.8245              1078.1933              1137.9707
 Red. masses --      1.4678                 2.5199                 2.3107
 Frc consts  --      0.9861                 1.7260                 1.7631
 IR Inten    --      9.7532                49.6372                43.5831

                     28                     29                     30
                      A                      A                      A
 Frequencies --   1208.0485              1226.6588              1252.4774
 Red. masses --      1.6945                 3.1803                 2.9638
 Frc consts  --      1.4570                 2.8194                 2.7393
 IR Inten    --      7.7214                40.4151                 9.9520

                     31                     32                     33
                      A                      A                      A
 Frequencies --   1320.5679              1366.8422              1402.4028
 Red. masses --      2.5946                 2.2952                 1.3388
 Frc consts  --      2.6659                 2.5264                 1.5514
 IR Inten    --     38.8832                18.3298                16.1626

                     34                     35                     36
                      A                      A                      A
 Frequencies --   1414.9915              1417.1290              1465.0481
 Red. masses --      1.3630                 1.3541                 1.2468
 Frc consts  --      1.6079                 1.6023                 1.5767
 IR Inten    --     14.6602                15.1853                13.0110

                     37                     38                     39
                      A                      A                      A
 Frequencies --   1474.8987              1482.0957              1495.1383
 Red. masses --      1.0831                 1.0892                 1.0770
 Frc consts  --      1.3881                 1.4097                 1.4184
 IR Inten    --      1.4326                 3.6272                 1.7127

                     40                     41                     42
                      A                      A                      A
 Frequencies --   1502.6682              1801.3188              2899.3287
 Red. masses --      1.0527                10.1238                 1.0833
 Frc consts  --      1.4005                19.3541                 5.3652
 IR Inten    --      6.7931               182.6261                97.7988

                     43                     44                     45
                      A                      A                      A
 Frequencies --   3036.1655              3044.6232              3106.3162
 Red. masses --      1.0355                 1.0363                 1.1008
 Frc consts  --      5.6240                 5.6597                 6.2582
 IR Inten    --     12.8027                15.0171                 1.9150

                     46                     47                     48
                      A                      A                      A
 Frequencies --   3113.5810              3121.8573              3128.7258
 Red. masses --      1.1007                 1.1023                 1.0695
 Frc consts  --      6.2870                 6.3297                 6.1683
 IR Inten    --     25.8835                19.7626                 4.2131

                     49                     50                     51
                      A                      A                      A
 Frequencies --   3132.1761              3200.6278              3228.3417
 Red. masses --      1.0837                 1.0943                 1.1156
 Frc consts  --      6.2641                 6.6050                 6.8506
 IR Inten    --     24.3388                 4.3071                 2.3645

 - Thermochemistry -
 -------------------
 Temperature   298.150 Kelvin.  Pressure   1.00000 Atm.
 Atom     1 has atomic number  6 and mass  12.00000

 Molecular mass:   126.06808 amu.
 Principal axes and moments of inertia in atomic units:
                           1         2         3
     Eigenvalues --   524.962111505.955231688.41592
           X            0.99995  -0.00833   0.00530
           Y            0.00846   0.99961  -0.02654
           Z           -0.00508   0.02658   0.99963
 This molecule is an asymmetric top.
 Rotational symmetry number  1.
 Warning -- assumption of classical behavior for rotation
           may cause significant error
 Rotational temperatures (Kelvin)      0.16499     0.05751     0.05130
 Rotational constants (GHZ):           3.43785     1.19840     1.06890
 Zero-point vibrational energy     409816.7 (Joules/Mol)
                                   97.94855 (Kcal/Mol)
 Warning -- explicit consideration of  12 degrees of freedom as
           vibrations may cause significant error
 Vibrational temperatures:    144.24   217.97   251.24   280.86   344.97
          (Kelvin)            383.20   438.94   494.90   536.94   667.01
                              729.32   760.41   960.49  1025.72  1139.03
                             1200.24  1217.40  1342.11  1357.53  1390.87
                             1420.63  1431.15  1450.01  1518.76  1536.36
                             1551.28  1637.28  1738.11  1764.89  1802.03
                             1900.00  1966.58  2017.74  2035.85  2038.93
                             2107.87  2122.05  2132.40  2151.17  2162.00
                             2591.69  4171.48  4368.36  4380.53  4469.29
                             4479.74  4491.65  4501.53  4506.50  4604.98
                             4644.86

 Zero-point correction=                           0.156091 (Hartree/Particle)
 Thermal correction to Energy=                    0.165143
 Thermal correction to Enthalpy=                  0.166088
 Thermal correction to Gibbs Free Energy=         0.122758
 Sum of electronic and zero-point Energies=           -423.008588
 Sum of electronic and thermal Energies=              -422.999536
 Sum of electronic and thermal Enthalpies=            -422.998591
 Sum of electronic and thermal Free Energies=         -423.041921

                     E (Thermal)             CV                S
                      KCal/Mol        Cal/Mol-Kelvin    Cal/Mol-Kelvin
 Total                  103.629             34.294             91.195
 Electronic               0.000              0.000              0.000
 Translational            0.889              2.981             40.409
 Rotational               0.889              2.981             28.681
 Vibrational            101.852             28.333             22.106
 Vibration     1          0.604              1.949              3.449
 Vibration     2          0.619              1.901              2.653
 Vibration     3          0.627              1.874              2.385
 Vibration     4          0.636              1.847              2.178
 Vibration     5          0.657              1.780              1.805
 Vibration     6          0.672              1.735              1.620
 Vibration     7          0.696              1.664              1.389
 Vibration     8          0.723              1.588              1.194
 Vibration     9          0.745              1.527              1.067
 Vibration    10          0.821              1.331              0.756
 Vibration    11          0.862              1.235              0.641
 Vibration    12          0.883              1.187              0.591

 Normal termination of Gaussian 09 at Mon Jan 27 16:59:58 2020.
