 Gaussian 09, Revision D.01,
 Gaussian 09:  ES64L-G09RevD.01 24-Apr-2013

 -----------------------------
 # b3lyp 6-31G(2df,p) opt Freq
 -----------------------------

 -----
 titel
 -----
 Symbolic Z-matrix:
 Charge =  0 Multiplicity = 1

 SCF Done:  E(RB3LYP) =  -423.125206048     A.U. after   13 cycles
 Optimization completed.
    -- Stationary point found.
 Normal termination of Gaussian 09 at Tue Jan 28 02:54:00 2020.

 ----------------------------------------------------------------------
 #N Geom=AllCheck Guess=TCheck SCRF=Check GenChk RB3LYP/6-31G(2df,p) Fr
 eq
 ----------------------------------------------------------------------

 Structure from the checkpoint file:  "/scratch/puck/g09_dc5d0c77-ebc1-4398-971e-6a6efff6d105/Gau-90252.chk"
 -----
 titel
 -----
 Charge =  0 Multiplicity = 1

                         Standard orientation:
 ---------------------------------------------------------------------
 Center     Atomic      Atomic             Coordinates (Angstroms)
 Number     Number       Type             X           Y           Z
 ---------------------------------------------------------------------
      1          8           0        2.822982    0.016426   -0.470626
      2          6           0        1.641803    0.152695    0.285392
      3          6           0        0.888435   -1.168433    0.660773
      4          6           0       -0.372336   -0.571504    0.043428
      5          6           0       -1.647394   -1.129422   -0.569301
      6          8           0       -2.401874    0.019489   -0.101880
      7          6           0       -1.293270    0.499370    0.694149
      8          6           0       -0.510217    1.655650    0.022894
      9          6           0        0.442499    0.601290   -0.599987
     10          1           0        3.504655   -0.355055    0.099310
     11          1           0        1.796706    0.814798    1.150188
     12          1           0        1.283372   -1.991154    0.055159
     13          1           0        0.857314   -1.474602    1.710929
     14          1           0       -1.680108   -1.235992   -1.660613
     15          1           0       -2.011554   -2.058477   -0.107022
     16          1           0       -1.544503    0.559779    1.758630
     17          1           0       -1.125834    2.204689   -0.693205
     18          1           0       -0.033075    2.367485    0.704635
     19          1           0        0.687044    0.643332   -1.662058
 ---------------------------------------------------------------------

 SCF Done:  E(RB3LYP) =  -423.125206048     A.U. after    1 cycles

 The electronic state is 1-A.
 Alpha  occ. eigenvalues --  -19.14102 -19.13003 -10.23737 -10.22900 -10.22652
 Alpha  occ. eigenvalues --  -10.19227 -10.18526 -10.18458 -10.18009  -1.03474
 Alpha  occ. eigenvalues --   -1.02368  -0.85927  -0.74835  -0.69678  -0.66240
 Alpha  occ. eigenvalues --   -0.61218  -0.58670  -0.52752  -0.50888  -0.48158
 Alpha  occ. eigenvalues --   -0.47404  -0.45877  -0.42702  -0.42059  -0.40299
 Alpha  occ. eigenvalues --   -0.39197  -0.36607  -0.34275  -0.32251  -0.30116
 Alpha  occ. eigenvalues --   -0.29952  -0.27442  -0.25767  -0.23882
 Alpha virt. eigenvalues --    0.06998   0.07094   0.09719   0.10656   0.11165
 Alpha virt. eigenvalues --    0.13227   0.14097   0.14467   0.16422   0.16899
 Alpha virt. eigenvalues --    0.17434   0.18417   0.19735   0.20973   0.21493

 Mulliken charges:
               1
     1  O   -0.433332
     2  C    0.133151
     3  C   -0.387255
     4  C    0.317155
     5  C   -0.176838
     6  O   -0.295329
     7  C    0.076397
     8  C   -0.262429
     9  C   -0.082604
    10  H    0.283189
    11  H    0.064782
    12  H    0.108800
    13  H    0.095604
    14  H    0.103347
    15  H    0.097674
    16  H    0.067983
    17  H    0.114593
    18  H    0.096030
    19  H    0.079080
 Sum of Mulliken charges =   0.00000

 Dipole moment (field-independent basis, Debye):
    X=              1.7723    Y=             -0.8850    Z=              1.3946  Tot=              2.4226
 Quadrupole moment (field-independent basis, Debye-Ang):
   XX=            -57.1063   YY=            -51.3292   ZZ=            -51.9134
   XY=             -1.0354   XZ=              3.9379   YZ=              0.7427

  Exact polarizability:  81.956   0.280  76.043   1.265   1.273  67.719
 Approx polarizability: 110.968  -0.489 108.530   0.035   2.211 104.448

                      1                      2                      3
                      A                      A                      A
 Frequencies --     82.7878               178.0663               258.9584
 Red. masses --      3.8759                 2.9634                 1.3090
 Frc consts  --      0.0157                 0.0554                 0.0517
 IR Inten    --      0.9402                 2.2141                62.3244

                      4                      5                      6
                      A                      A                      A
 Frequencies --    287.9541               311.1875               344.7054
 Red. masses --      2.0654                 2.6676                 2.7613
 Frc consts  --      0.1009                 0.1522                 0.1933
 IR Inten    --     18.0398                25.6326                 8.9533

                      7                      8                      9
                      A                      A                      A
 Frequencies --    401.1188               438.3819               510.8112
 Red. masses --      3.0248                 2.9317                 2.4188
 Frc consts  --      0.2867                 0.3320                 0.3719
 IR Inten    --      3.9210                 4.0236                 3.7911

                     10                     11                     12
                      A                      A                      A
 Frequencies --    673.5304               714.3838               770.8093
 Red. masses --      2.8745                 3.5022                 2.1659
 Frc consts  --      0.7683                 1.0531                 0.7582
 IR Inten    --      1.1113                 5.2166                 1.0101

                     13                     14                     15
                      A                      A                      A
 Frequencies --    831.3091               852.1286               884.4042
 Red. masses --      2.2702                 2.2954                 2.2680
 Frc consts  --      0.9244                 0.9820                 1.0452
 IR Inten    --      1.4418                13.1175                 5.9582

                     16                     17                     18
                      A                      A                      A
 Frequencies --    909.0401               941.8261               983.5526
 Red. masses --      2.3030                 2.4396                 2.3874
 Frc consts  --      1.1213                 1.2750                 1.3607
 IR Inten    --     12.4893                 7.0635                 5.7205

                     19                     20                     21
                      A                      A                      A
 Frequencies --    994.3129              1012.3686              1036.3835
 Red. masses --      3.5935                 2.2347                 2.4467
 Frc consts  --      2.0932                 1.3494                 1.5484
 IR Inten    --     48.2134                 5.3393                33.9630

                     22                     23                     24
                      A                      A                      A
 Frequencies --   1042.0556              1106.6863              1124.8575
 Red. masses --      2.2551                 1.7651                 1.7321
 Frc consts  --      1.4428                 1.2737                 1.2912
 IR Inten    --     62.2780                 5.2029                 2.2830

                     25                     26                     27
                      A                      A                      A
 Frequencies --   1139.6056              1151.0475              1174.2282
 Red. masses --      1.7331                 2.0707                 1.5195
 Frc consts  --      1.3261                 1.6164                 1.2344
 IR Inten    --     31.6269                13.4538                 9.6840

                     28                     29                     30
                      A                      A                      A
 Frequencies --   1201.3660              1218.2099              1225.5149
 Red. masses --      1.5234                 1.5205                 1.2502
 Frc consts  --      1.2955                 1.3295                 1.1063
 IR Inten    --      3.1680                 1.3981                14.6044

                     31                     32                     33
                      A                      A                      A
 Frequencies --   1248.9628              1267.0598              1276.4884
 Red. masses --      1.7418                 1.6890                 1.4842
 Frc consts  --      1.6008                 1.5976                 1.4249
 IR Inten    --      5.2854                 1.8657                10.9792

                     34                     35                     36
                      A                      A                      A
 Frequencies --   1293.2132              1316.3302              1321.1152
 Red. masses --      1.8673                 1.4625                 1.4677
 Frc consts  --      1.8400                 1.4930                 1.5093
 IR Inten    --      2.0555                59.7026                 5.0965

                     37                     38                     39
                      A                      A                      A
 Frequencies --   1374.4984              1423.4248              1461.2488
 Red. masses --      2.0355                 1.4274                 1.1049
 Frc consts  --      2.2658                 1.7039                 1.3900
 IR Inten    --      3.7154                 6.7110                 4.5371

                     40                     41                     42
                      A                      A                      A
 Frequencies --   1473.4508              1517.6100              2982.7549
 Red. masses --      1.1472                 1.1024                 1.0853
 Frc consts  --      1.4674                 1.4960                 5.6888
 IR Inten    --      1.7011                 0.8294                48.8381

                     43                     44                     45
                      A                      A                      A
 Frequencies --   2992.1150              3039.4992              3040.3260
 Red. masses --      1.0602                 1.0640                 1.0666
 Frc consts  --      5.5924                 5.7914                 5.8087
 IR Inten    --     84.1103                16.6929                57.9489

                     46                     47                     48
                      A                      A                      A
 Frequencies --   3047.3500              3052.7204              3096.3710
 Red. masses --      1.1038                 1.0767                 1.1078
 Frc consts  --      6.0392                 5.9116                 6.2578
 IR Inten    --     43.9033                61.0302                24.5122

                     49                     50                     51
                      A                      A                      A
 Frequencies --   3105.2649              3115.9040              3807.7624
 Red. masses --      1.0928                 1.0996                 1.0660
 Frc consts  --      6.2085                 6.2900                 9.1063
 IR Inten    --     12.0418                24.4198                20.5844

 - Thermochemistry -
 -------------------
 Temperature   298.150 Kelvin.  Pressure   1.00000 Atm.
 Atom     1 has atomic number  8 and mass  15.99491

 Molecular mass:   126.06808 amu.
 Principal axes and moments of inertia in atomic units:
                           1         2         3
     Eigenvalues --   492.996321386.731171609.38563
           X            0.99992  -0.00162   0.01227
           Y            0.00151   0.99996   0.00934
           Z           -0.01228  -0.00932   0.99988
 This molecule is an asymmetric top.
 Rotational symmetry number  1.
 Warning -- assumption of classical behavior for rotation
           may cause significant error
 Rotational temperatures (Kelvin)      0.17569     0.06246     0.05382
 Rotational constants (GHZ):           3.66076     1.30144     1.12139
 Zero-point vibrational energy     419022.3 (Joules/Mol)
                                  100.14874 (Kcal/Mol)
 Warning -- explicit consideration of   9 degrees of freedom as
           vibrations may cause significant error
 Vibrational temperatures:    119.11   256.20   372.58   414.30   447.73
          (Kelvin)            495.95   577.12   630.73   734.94   969.06
                             1027.84  1109.02  1196.07  1226.02  1272.46
                             1307.90  1355.08  1415.11  1430.59  1456.57
                             1491.12  1499.28  1592.27  1618.42  1639.64
                             1656.10  1689.45  1728.50  1752.73  1763.24
                             1796.98  1823.01  1836.58  1860.64  1893.90
                             1900.79  1977.59  2047.99  2102.41  2119.96
                             2183.50  4291.51  4304.98  4373.16  4374.35
                             4384.45  4392.18  4454.98  4467.78  4483.09
                             5478.51

 Zero-point correction=                           0.159597 (Hartree/Particle)
 Thermal correction to Energy=                    0.167315
 Thermal correction to Enthalpy=                  0.168259
 Thermal correction to Gibbs Free Energy=         0.127454
 Sum of electronic and zero-point Energies=           -422.965609
 Sum of electronic and thermal Energies=              -422.957891
 Sum of electronic and thermal Enthalpies=            -422.956947
 Sum of electronic and thermal Free Energies=         -422.997752

                     E (Thermal)             CV                S
                      KCal/Mol        Cal/Mol-Kelvin    Cal/Mol-Kelvin
 Total                  104.992             30.588             85.883
 Electronic               0.000              0.000              0.000
 Translational            0.889              2.981             40.409
 Rotational               0.889              2.981             28.489
 Vibrational            103.214             24.626             16.985
 Vibration     1          0.600              1.961              3.824
 Vibration     2          0.629              1.869              2.349
 Vibration     3          0.668              1.748              1.669
 Vibration     4          0.685              1.696              1.486
 Vibration     5          0.700              1.652              1.356
 Vibration     6          0.723              1.586              1.190
 Vibration     7          0.767              1.468              0.959
 Vibration     8          0.799              1.387              0.832
 Vibration     9          0.866              1.226              0.632

 Optimization completed.
    -- Stationary point found.
 Normal termination of Gaussian 09 at Tue Jan 28 03:36:22 2020.
