 Gaussian 09, Revision D.01,
 Gaussian 09:  ES64L-G09RevD.01 24-Apr-2013

 -----------------------------
 # b3lyp 6-31G(2df,p) opt Freq
 -----------------------------

 -----
 titel
 -----
 Symbolic Z-matrix:
 Charge =  0 Multiplicity = 1

 SCF Done:  E(RB3LYP) =  -423.192519538     A.U. after   14 cycles
 Optimization completed.
    -- Stationary point found.
 Normal termination of Gaussian 09 at Mon Jan 27 13:47:57 2020.

 ----------------------------------------------------------------------
 #N Geom=AllCheck Guess=TCheck SCRF=Check GenChk RB3LYP/6-31G(2df,p) Fr
 eq
 ----------------------------------------------------------------------

 Structure from the checkpoint file:  "/scratch/puck/g09_0ca5ac4c-ec0d-4238-9475-60d94ef968ea/Gau-75983.chk"
 -----
 titel
 -----
 Charge =  0 Multiplicity = 1

                         Standard orientation:
 ---------------------------------------------------------------------
 Center     Atomic      Atomic             Coordinates (Angstroms)
 Number     Number       Type             X           Y           Z
 ---------------------------------------------------------------------
      1          8           0       -2.884357    0.125831    0.653717
      2          6           0       -2.181937   -0.225162   -0.259597
      3          6           0       -1.104146   -1.284240   -0.150716
      4          6           0        0.280117   -0.703758   -0.441800
      5          6           0        1.534771   -1.599437   -0.246436
      6          6           0        2.283420   -0.381008    0.359609
      7          6           0        0.889473    0.306591    0.562495
      8          6           0        0.794008    1.770437    0.242056
      9          8           0        0.197012    2.219501   -0.705826
     10          1           0       -2.275464    0.237625   -1.267548
     11          1           0       -1.148898   -1.722919    0.851438
     12          1           0       -1.323576   -2.073214   -0.884353
     13          1           0        0.287958   -0.245987   -1.436473
     14          1           0        1.361110   -2.376884    0.503817
     15          1           0        1.965221   -2.063096   -1.136671
     16          1           0        2.890076   -0.549295    1.250738
     17          1           0        2.888268    0.143333   -0.385358
     18          1           0        0.535297    0.144493    1.588208
     19          1           0        1.344526    2.442740    0.939411
 ---------------------------------------------------------------------

 SCF Done:  E(RB3LYP) =  -423.192519538     A.U. after    1 cycles

 The electronic state is 1-A.
 Alpha  occ. eigenvalues --  -19.14586 -19.13621 -10.27498 -10.26828 -10.20609
 Alpha  occ. eigenvalues --  -10.20560 -10.20500 -10.19805 -10.19634  -1.05123
 Alpha  occ. eigenvalues --   -1.04271  -0.86868  -0.76661  -0.71100  -0.65239
 Alpha  occ. eigenvalues --   -0.60152  -0.57544  -0.55308  -0.50046  -0.48933
 Alpha  occ. eigenvalues --   -0.46855  -0.45419  -0.43574  -0.42426  -0.42108
 Alpha  occ. eigenvalues --   -0.39306  -0.37954  -0.37349  -0.35575  -0.34053
 Alpha  occ. eigenvalues --   -0.32841  -0.31765  -0.25591  -0.24656
 Alpha virt. eigenvalues --   -0.02792  -0.01802   0.08190   0.08575   0.10803
 Alpha virt. eigenvalues --    0.11821   0.13276   0.13893   0.14887   0.15727
 Alpha virt. eigenvalues --    0.16526   0.17133   0.17961   0.19843   0.20712

 Mulliken charges:
               1
     1  O   -0.245254
     2  C    0.166556
     3  C   -0.309117
     4  C    0.023155
     5  C   -0.246122
     6  C   -0.248837
     7  C   -0.075485
     8  C    0.139384
     9  O   -0.248422
    10  H    0.085676
    11  H    0.112344
    12  H    0.116701
    13  H    0.098525
    14  H    0.108157
    15  H    0.107976
    16  H    0.112686
    17  H    0.117674
    18  H    0.103023
    19  H    0.081380
 Sum of Mulliken charges =   0.00000

 Dipole moment (field-independent basis, Debye):
    X=              3.1173    Y=             -2.4044    Z=              0.0695  Tot=              3.9375
 Quadrupole moment (field-independent basis, Debye-Ang):
   XX=            -58.4917   YY=            -55.9086   ZZ=            -52.6465
   XY=              3.0894   XZ=              4.9661   YZ=              3.5068

  Exact polarizability:  82.230  -4.325  78.451   2.380   0.851  69.810
 Approx polarizability: 111.424  -9.496 109.493   1.121  -1.819 117.869

                      1                      2                      3
                      A                      A                      A
 Frequencies --     40.6351                48.2505                81.4885
 Red. masses --      6.5254                 6.7187                 2.8863
 Frc consts  --      0.0063                 0.0092                 0.0113
 IR Inten    --      4.2505                 4.0493                 7.0026

                      4                      5                      6
                      A                      A                      A
 Frequencies --    122.6780               161.6083               232.7939
 Red. masses --      2.1648                 3.0312                 3.1531
 Frc consts  --      0.0192                 0.0466                 0.1007
 IR Inten    --      2.2339                 5.5015                 4.5788

                      7                      8                      9
                      A                      A                      A
 Frequencies --    278.3236               356.8277               410.6713
 Red. masses --      2.2340                 3.2813                 2.5575
 Frc consts  --      0.1020                 0.2462                 0.2541
 IR Inten    --      0.6609                 2.1415                 0.8936

                     10                     11                     12
                      A                      A                      A
 Frequencies --    507.1117               593.7582               677.0017
 Red. masses --      2.8002                 2.7585                 2.8546
 Frc consts  --      0.4243                 0.5730                 0.7709
 IR Inten    --     10.4818                 1.5948                19.1193

                     13                     14                     15
                      A                      A                      A
 Frequencies --    744.8385               811.9673               852.0515
 Red. masses --      2.0748                 1.4712                 1.6371
 Frc consts  --      0.6782                 0.5715                 0.7003
 IR Inten    --      4.1586                 3.9570                 0.0629

                     16                     17                     18
                      A                      A                      A
 Frequencies --    891.1400               934.6097               940.0661
 Red. masses --      1.6857                 2.1483                 1.9803
 Frc consts  --      0.7887                 1.1056                 1.0311
 IR Inten    --      1.0974                 3.0149                 1.2607

                     19                     20                     21
                      A                      A                      A
 Frequencies --    959.3981              1004.0176              1030.1469
 Red. masses --      1.5633                 2.1704                 2.0911
 Frc consts  --      0.8478                 1.2891                 1.3075
 IR Inten    --      7.0450                26.0366                 0.8399

                     22                     23                     24
                      A                      A                      A
 Frequencies --   1081.8701              1116.2320              1128.1008
 Red. masses --      2.6327                 2.2475                 2.0204
 Frc consts  --      1.8155                 1.6499                 1.5149
 IR Inten    --      8.1807                 1.6722                 7.2975

                     25                     26                     27
                      A                      A                      A
 Frequencies --   1143.7964              1195.4652              1219.5977
 Red. masses --      2.9048                 1.3621                 1.3384
 Frc consts  --      2.2391                 1.1469                 1.1729
 IR Inten    --      3.1428                14.6421                10.0082

                     28                     29                     30
                      A                      A                      A
 Frequencies --   1238.2217              1259.3959              1262.7108
 Red. masses --      1.2598                 1.3740                 1.2606
 Frc consts  --      1.1380                 1.2840                 1.1842
 IR Inten    --      1.6734                 1.6623                 1.5187

                     31                     32                     33
                      A                      A                      A
 Frequencies --   1279.5311              1291.4413              1346.5413
 Red. masses --      1.3815                 1.4244                 1.5947
 Frc consts  --      1.3326                 1.3997                 1.7036
 IR Inten    --      4.8573                 1.3062                 6.6103

                     34                     35                     36
                      A                      A                      A
 Frequencies --   1400.4629              1419.3623              1430.4042
 Red. masses --      1.5207                 1.2185                 1.1913
 Frc consts  --      1.7572                 1.4463                 1.4361
 IR Inten    --      9.2634                 8.7954                 4.4157

                     37                     38                     39
                      A                      A                      A
 Frequencies --   1466.3357              1484.0192              1500.3506
 Red. masses --      1.0961                 1.0839                 1.1343
 Frc consts  --      1.3886                 1.4064                 1.5044
 IR Inten    --      4.2585                 2.3728                 0.4330

                     40                     41                     42
                      A                      A                      A
 Frequencies --   1814.7892              1830.8807              2870.9733
 Red. masses --     10.3921                 9.9351                 1.0827
 Frc consts  --     20.1653                19.6219                 5.2580
 IR Inten    --    126.3273               166.8363               130.8938

                     43                     44                     45
                      A                      A                      A
 Frequencies --   2885.5003              3013.4569              3038.5450
 Red. masses --      1.0831                 1.0628                 1.0829
 Frc consts  --      5.3132                 5.6861                 5.8908
 IR Inten    --     86.1961                14.1711                 7.4120

                     46                     47                     48
                      A                      A                      A
 Frequencies --   3055.0241              3060.8836              3065.5890
 Red. masses --      1.0651                 1.0774                 1.0613
 Frc consts  --      5.8571                 5.9474                 5.8764
 IR Inten    --     24.8721                10.2816                27.7753

                     49                     50                     51
                      A                      A                      A
 Frequencies --   3088.4076              3109.8220              3127.9473
 Red. masses --      1.0979                 1.1056                 1.1077
 Frc consts  --      6.1701                 6.2996                 6.3852
 IR Inten    --     18.0130                19.7300                34.2498

 - Thermochemistry -
 -------------------
 Temperature   298.150 Kelvin.  Pressure   1.00000 Atm.
 Atom     1 has atomic number  8 and mass  15.99491

 Molecular mass:   126.06808 amu.
 Principal axes and moments of inertia in atomic units:
                           1         2         3
     Eigenvalues --   845.968751371.057841954.40209
           X            0.99979  -0.00954   0.01820
           Y            0.00918   0.99976   0.02014
           Z           -0.01839  -0.01997   0.99963
 This molecule is an asymmetric top.
 Rotational symmetry number  1.
 Warning -- assumption of classical behavior for rotation
           may cause significant error
 Rotational temperatures (Kelvin)      0.10238     0.06317     0.04432
 Rotational constants (GHZ):           2.13334     1.31631     0.92342
 Zero-point vibrational energy     412143.7 (Joules/Mol)
                                   98.50470 (Kcal/Mol)
 Warning -- explicit consideration of  11 degrees of freedom as
           vibrations may cause significant error
 Vibrational temperatures:     58.46    69.42   117.24   176.51   232.52
          (Kelvin)            334.94   400.45   513.39   590.86   729.62
                              854.28   974.05  1071.66  1168.24  1225.91
                             1282.15  1344.69  1352.54  1380.36  1444.56
                             1482.15  1556.57  1606.01  1623.08  1645.67
                             1720.01  1754.73  1781.52  1811.99  1816.76
                             1840.96  1858.09  1937.37  2014.95  2042.14
                             2058.03  2109.73  2135.17  2158.67  2611.07
                             2634.23  4130.69  4151.59  4335.69  4371.78
                             4395.49  4403.92  4410.69  4443.52  4474.33
                             4500.41

 Zero-point correction=                           0.156977 (Hartree/Particle)
 Thermal correction to Energy=                    0.166442
 Thermal correction to Enthalpy=                  0.167386
 Thermal correction to Gibbs Free Energy=         0.120845
 Sum of electronic and zero-point Energies=           -423.035542
 Sum of electronic and thermal Energies=              -423.026078
 Sum of electronic and thermal Enthalpies=            -423.025134
 Sum of electronic and thermal Free Energies=         -423.071674

                     E (Thermal)             CV                S
                      KCal/Mol        Cal/Mol-Kelvin    Cal/Mol-Kelvin
 Total                  104.444             32.876             97.953
 Electronic               0.000              0.000              0.000
 Translational            0.889              2.981             40.409
 Rotational               0.889              2.981             29.207
 Vibrational            102.666             26.915             28.338
 Vibration     1          0.594              1.981              5.228
 Vibration     2          0.595              1.978              4.888
 Vibration     3          0.600              1.962              3.855
 Vibration     4          0.610              1.930              3.058
 Vibration     5          0.622              1.889              2.531
 Vibration     6          0.654              1.791              1.857
 Vibration     7          0.679              1.714              1.544
 Vibration     8          0.732              1.561              1.136
 Vibration     9          0.775              1.447              0.924
 Vibration    10          0.862              1.234              0.641
 Vibration    11          0.951              1.045              0.461

 Optimization completed.
    -- Stationary point found.
 Normal termination of Gaussian 09 at Mon Jan 27 14:27:47 2020.
