 Gaussian 09, Revision D.01,
 Gaussian 09:  ES64L-G09RevD.01 24-Apr-2013

 -----------------------------
 # b3lyp 6-31G(2df,p) opt Freq
 -----------------------------

 -----
 titel
 -----
 Symbolic Z-matrix:
 Charge =  0 Multiplicity = 1

 SCF Done:  E(RB3LYP) =  -423.205957740     A.U. after   14 cycles
 Optimization completed.
    -- Stationary point found.
 Normal termination of Gaussian 09 at Mon Jan 27 14:13:13 2020.

 ----------------------------------------------------------------------
 #N Geom=AllCheck Guess=TCheck SCRF=Check GenChk RB3LYP/6-31G(2df,p) Fr
 eq
 ----------------------------------------------------------------------

 Structure from the checkpoint file:  "/scratch/puck/g09_19d47953-0a5a-4b30-97d6-d9ceac09aaf6/Gau-171080.chk"
 -----
 titel
 -----
 Charge =  0 Multiplicity = 1

                         Standard orientation:
 ---------------------------------------------------------------------
 Center     Atomic      Atomic             Coordinates (Angstroms)
 Number     Number       Type             X           Y           Z
 ---------------------------------------------------------------------
      1          6           0        3.155565   -0.250194   -0.095087
      2          6           0        1.716799    0.204686    0.053337
      3          8           0        1.415902    1.203212    0.665956
      4          6           0        0.655775   -0.658924   -0.630473
      5          6           0       -0.752401   -0.334549   -0.186271
      6          6           0       -1.823807   -1.423718   -0.243040
      7          6           0       -1.305070   -0.967397    1.078278
      8          6           0       -1.247780    1.042321   -0.486328
      9          8           0       -2.299966    1.482681   -0.089199
     10          1           0        3.306548   -1.181810    0.463271
     11          1           0        3.391358   -0.467213   -1.142558
     12          1           0        3.830853    0.514061    0.290914
     13          1           0        0.772167   -0.509742   -1.715351
     14          1           0        0.887695   -1.717262   -0.462629
     15          1           0       -2.816017   -1.098594   -0.534085
     16          1           0       -1.521395   -2.393918   -0.622542
     17          1           0       -1.945574   -0.330859    1.677156
     18          1           0       -0.640863   -1.621115    1.632991
     19          1           0       -0.586747    1.645967   -1.143721
 ---------------------------------------------------------------------

 SCF Done:  E(RB3LYP) =  -423.205957740     A.U. after    1 cycles

 The electronic state is 1-A.
 Alpha  occ. eigenvalues --  -19.14074 -19.12646 -10.28171 -10.26177 -10.20995
 Alpha  occ. eigenvalues --  -10.20890 -10.20105 -10.19930 -10.19654  -1.05134
 Alpha  occ. eigenvalues --   -1.03495  -0.87721  -0.77977  -0.73199  -0.65399
 Alpha  occ. eigenvalues --   -0.61195  -0.55571  -0.53413  -0.50313  -0.47717
 Alpha  occ. eigenvalues --   -0.47131  -0.46310  -0.43701  -0.43026  -0.41356
 Alpha  occ. eigenvalues --   -0.40444  -0.39175  -0.38062  -0.36343  -0.35938
 Alpha  occ. eigenvalues --   -0.31534  -0.29138  -0.25575  -0.24461
 Alpha virt. eigenvalues --   -0.02209  -0.01273   0.07008   0.09804   0.12104
 Alpha virt. eigenvalues --    0.12296   0.13758   0.14579   0.15000   0.15469
 Alpha virt. eigenvalues --    0.15845   0.17210   0.20010   0.21507   0.22205

 Mulliken charges:
               1
     1  C   -0.476546
     2  C    0.392404
     3  O   -0.285353
     4  C   -0.441080
     5  C    0.291150
     6  C   -0.309343
     7  C   -0.275610
     8  C    0.117723
     9  O   -0.282824
    10  H    0.144429
    11  H    0.137992
    12  H    0.148004
    13  H    0.131462
    14  H    0.119092
    15  H    0.140125
    16  H    0.115340
    17  H    0.145893
    18  H    0.113354
    19  H    0.073790
 Sum of Mulliken charges =   0.00000

 Dipole moment (field-independent basis, Debye):
    X=              2.8324    Y=             -3.7454    Z=             -1.6326  Tot=              4.9715
 Quadrupole moment (field-independent basis, Debye-Ang):
   XX=            -54.7405   YY=            -56.4918   ZZ=            -51.8411
   XY=              1.5734   XZ=             -1.3522   YZ=             -2.1182

  Exact polarizability:  88.759  -1.412  77.095  -3.120   0.570  64.962
 Approx polarizability: 116.471  -7.360 121.379  -6.686   6.050 102.750

                      1                      2                      3
                      A                      A                      A
 Frequencies --     45.8003                73.8860               110.2085
 Red. masses --      4.2677                 3.7612                 2.5763
 Frc consts  --      0.0053                 0.0121                 0.0184
 IR Inten    --      1.0835                 0.7559                 1.2336

                      4                      5                      6
                      A                      A                      A
 Frequencies --    124.5745               185.5390               245.5806
 Red. masses --      1.3239                 2.6029                 4.0175
 Frc consts  --      0.0121                 0.0528                 0.1428
 IR Inten    --      0.1420                12.0982                 6.3520

                      7                      8                      9
                      A                      A                      A
 Frequencies --    299.4607               320.8455               332.8310
 Red. masses --      2.3381                 2.0122                 3.3371
 Frc consts  --      0.1235                 0.1220                 0.2178
 IR Inten    --      3.6297                 0.1828                 0.6711

                     10                     11                     12
                      A                      A                      A
 Frequencies --    388.3266               470.8780               555.4687
 Red. masses --      3.4352                 2.1167                 3.7778
 Frc consts  --      0.3052                 0.2765                 0.6868
 IR Inten    --      3.3571                 0.5156                18.7002

                     13                     14                     15
                      A                      A                      A
 Frequencies --    667.8459               758.4100               792.2784
 Red. masses --      3.7307                 3.7567                 1.0757
 Frc consts  --      0.9804                 1.2731                 0.3978
 IR Inten    --      3.6917                 4.3136                 1.1778

                     16                     17                     18
                      A                      A                      A
 Frequencies --    800.2362               842.0606               847.2791
 Red. masses --      2.4851                 2.1269                 3.0538
 Frc consts  --      0.9376                 0.8886                 1.2916
 IR Inten    --      0.7063                 7.7699                 4.0242

                     19                     20                     21
                      A                      A                      A
 Frequencies --    939.3605               949.4661               989.3208
 Red. masses --      1.9337                 1.3076                 1.6163
 Frc consts  --      1.0053                 0.6945                 0.9320
 IR Inten    --     38.6030                 9.7298                 8.4027

                     22                     23                     24
                      A                      A                      A
 Frequencies --   1005.3754              1048.7251              1065.4689
 Red. masses --      2.3885                 1.7185                 1.3931
 Frc consts  --      1.4224                 1.1136                 0.9318
 IR Inten    --     40.9959                 0.5208                 5.3849

                     25                     26                     27
                      A                      A                      A
 Frequencies --   1072.5713              1100.9711              1176.9920
 Red. masses --      1.7987                 1.4458                 2.0178
 Frc consts  --      1.2192                 1.0326                 1.6469
 IR Inten    --      2.7062                 2.5808                54.6313

                     28                     29                     30
                      A                      A                      A
 Frequencies --   1201.9887              1207.0581              1297.7832
 Red. masses --      1.3322                 1.4738                 2.2068
 Frc consts  --      1.1340                 1.2651                 2.1899
 IR Inten    --      7.0639                14.9865                 7.2419

                     31                     32                     33
                      A                      A                      A
 Frequencies --   1333.1167              1370.8777              1385.4601
 Red. masses --      2.1930                 1.8192                 1.4661
 Frc consts  --      2.2963                 2.0143                 1.6581
 IR Inten    --     28.2824                13.3095                41.0189

                     34                     35                     36
                      A                      A                      A
 Frequencies --   1438.4471              1447.3810              1455.1325
 Red. masses --      1.2813                 1.1178                 1.0877
 Frc consts  --      1.5621                 1.3797                 1.3570
 IR Inten    --      5.5412                12.2905                 1.9666

                     37                     38                     39
                      A                      A                      A
 Frequencies --   1463.2890              1476.3902              1486.3839
 Red. masses --      1.0608                 1.0515                 1.3461
 Frc consts  --      1.3382                 1.3505                 1.7522
 IR Inten    --     16.3502                 8.5096                 3.8134

                     40                     41                     42
                      A                      A                      A
 Frequencies --   1809.3758              1811.7910              2904.0224
 Red. masses --     10.0404                10.5379                 1.0838
 Frc consts  --     19.3669                20.3807                 5.3852
 IR Inten    --     68.7587               210.0020               110.8683

                     43                     44                     45
                      A                      A                      A
 Frequencies --   3001.0677              3035.7068              3060.0278
 Red. masses --      1.0683                 1.0382                 1.0903
 Frc consts  --      5.6687                 5.6368                 6.0152
 IR Inten    --     19.2859                 3.0301                 8.4743

                     46                     47                     48
                      A                      A                      A
 Frequencies --   3096.3865              3135.3064              3139.1138
 Red. masses --      1.0977                 1.0520                 1.0562
 Frc consts  --      6.2007                 6.0929                 6.1321
 IR Inten    --      7.9905                12.2672                 9.6728

                     49                     50                     51
                      A                      A                      A
 Frequencies --   3154.0091              3224.3336              3238.8779
 Red. masses --      1.1019                 1.1181                 1.1166
 Frc consts  --      6.4580                 6.8486                 6.9011
 IR Inten    --      8.0013                 0.6782                 3.7109

 - Thermochemistry -
 -------------------
 Temperature   298.150 Kelvin.  Pressure   1.00000 Atm.
 Atom     1 has atomic number  6 and mass  12.00000

 Molecular mass:   126.06808 amu.
 Principal axes and moments of inertia in atomic units:
                           1         2         3
     Eigenvalues --   622.142841636.965371957.08986
           X            0.99992   0.00589  -0.01121
           Y           -0.00603   0.99990  -0.01252
           Z            0.01114   0.01259   0.99986
 This molecule is an asymmetric top.
 Rotational symmetry number  1.
 Warning -- assumption of classical behavior for rotation
           may cause significant error
 Rotational temperatures (Kelvin)      0.13922     0.05291     0.04426
 Rotational constants (GHZ):           2.90085     1.10249     0.92216
 Zero-point vibrational energy     409021.7 (Joules/Mol)
                                   97.75853 (Kcal/Mol)
 Warning -- explicit consideration of  12 degrees of freedom as
           vibrations may cause significant error
 Vibrational temperatures:     65.90   106.31   158.57   179.23   266.95
          (Kelvin)            353.34   430.86   461.62   478.87   558.71
                              677.49   799.19   960.88  1091.18  1139.91
                             1151.36  1211.54  1219.04  1351.53  1366.07
                             1423.41  1446.51  1508.88  1532.97  1543.19
                             1584.05  1693.43  1729.39  1736.69  1867.22
                             1918.06  1972.38  1993.37  2069.60  2082.46
                             2093.61  2105.34  2124.19  2138.57  2603.28
                             2606.76  4178.24  4317.86  4367.70  4402.69
                             4455.00  4511.00  4516.48  4537.91  4639.09
                             4660.02

 Zero-point correction=                           0.155788 (Hartree/Particle)
 Thermal correction to Energy=                    0.165593
 Thermal correction to Enthalpy=                  0.166538
 Thermal correction to Gibbs Free Energy=         0.120227
 Sum of electronic and zero-point Energies=           -423.050170
 Sum of electronic and thermal Energies=              -423.040364
 Sum of electronic and thermal Enthalpies=            -423.039420
 Sum of electronic and thermal Free Energies=         -423.085731

                     E (Thermal)             CV                S
                      KCal/Mol        Cal/Mol-Kelvin    Cal/Mol-Kelvin
 Total                  103.911             34.915             97.469
 Electronic               0.000              0.000              0.000
 Translational            0.889              2.981             40.409
 Rotational               0.889              2.981             29.079
 Vibrational            102.134             28.953             27.982
 Vibration     1          0.595              1.979              4.991
 Vibration     2          0.599              1.966              4.047
 Vibration     3          0.606              1.941              3.265
 Vibration     4          0.610              1.928              3.028
 Vibration     5          0.632              1.860              2.272
 Vibration     6          0.660              1.770              1.762
 Vibration     7          0.692              1.675              1.420
 Vibration     8          0.706              1.634              1.306
 Vibration     9          0.715              1.610              1.246
 Vibration    10          0.757              1.495              1.007
 Vibration    11          0.828              1.315              0.735
 Vibration    12          0.911              1.128              0.533

 Optimization completed.
    -- Stationary point found.
 Normal termination of Gaussian 09 at Mon Jan 27 14:56:42 2020.
