 Gaussian 09, Revision D.01,
 Gaussian 09:  ES64L-G09RevD.01 24-Apr-2013

 -----------------------------
 # b3lyp 6-31G(2df,p) opt Freq
 -----------------------------

 -----
 titel
 -----
 Symbolic Z-matrix:
 Charge =  0 Multiplicity = 1

 SCF Done:  E(RB3LYP) =  -423.179486102     A.U. after   12 cycles
 Optimization completed.
    -- Stationary point found.
 Normal termination of Gaussian 09 at Mon Jan 27 18:26:28 2020.

 ----------------------------------------------------------------------
 #N Geom=AllCheck Guess=TCheck SCRF=Check GenChk RB3LYP/6-31G(2df,p) Fr
 eq
 ----------------------------------------------------------------------

 Structure from the checkpoint file:  "/scratch/puck/g09_be3a4507-1ddd-4091-b6d2-0e69a9ee9446/Gau-18345.chk"
 -----
 titel
 -----
 Charge =  0 Multiplicity = 1

                         Standard orientation:
 ---------------------------------------------------------------------
 Center     Atomic      Atomic             Coordinates (Angstroms)
 Number     Number       Type             X           Y           Z
 ---------------------------------------------------------------------
      1          8           0        2.185223   -0.195677   -0.671099
      2          6           0        0.935352   -0.045397   -0.064045
      3          6           0        0.457015   -1.069431    1.000625
      4          6           0       -1.026033   -0.653329    0.857256
      5          6           0       -1.240008   -1.141578   -0.595124
      6          6           0       -0.269491   -0.078517   -1.137577
      7          8           0       -1.047527    1.085293   -0.809784
      8          6           0       -0.915728    0.946851    0.615672
      9          6           0        0.588328    1.248901    0.717297
     10          1           0        2.862223   -0.161354    0.012814
     11          1           0        0.626334   -2.113530    0.728878
     12          1           0        0.903161   -0.885691    1.981922
     13          1           0       -1.728652   -0.974193    1.624163
     14          1           0       -0.945646   -2.184730   -0.728297
     15          1           0       -2.236880   -0.982662   -1.008148
     16          1           0        0.029534   -0.076670   -2.183670
     17          1           0       -1.630958    1.581758    1.135291
     18          1           0        0.822534    2.178649    0.197728
     19          1           0        1.020182    1.256500    1.721757
 ---------------------------------------------------------------------

 SCF Done:  E(RB3LYP) =  -423.179486102     A.U. after    1 cycles

 The electronic state is 1-A.
 Alpha  occ. eigenvalues --  -19.14271 -19.13016 -10.23891 -10.23261 -10.22711
 Alpha  occ. eigenvalues --  -10.19367 -10.17898 -10.17702 -10.17527  -1.04809
 Alpha  occ. eigenvalues --   -1.02310  -0.84131  -0.75814  -0.70287  -0.67273
 Alpha  occ. eigenvalues --   -0.59641  -0.56581  -0.54427  -0.53689  -0.49757
 Alpha  occ. eigenvalues --   -0.45433  -0.44357  -0.42283  -0.40167  -0.38136
 Alpha  occ. eigenvalues --   -0.37552  -0.36408  -0.35719  -0.33600  -0.32925
 Alpha  occ. eigenvalues --   -0.31358  -0.29578  -0.26163  -0.23936
 Alpha virt. eigenvalues --    0.07093   0.09626   0.11486   0.12029   0.13143
 Alpha virt. eigenvalues --    0.13998   0.15994   0.16359   0.17022   0.17314
 Alpha virt. eigenvalues --    0.17908   0.20255   0.21447   0.21899   0.22035

 Mulliken charges:
               1
     1  O   -0.507829
     2  C    0.399808
     3  C   -0.277579
     4  C   -0.070204
     5  C   -0.202359
     6  C    0.039452
     7  O   -0.262800
     8  C    0.068880
     9  C   -0.268924
    10  H    0.278143
    11  H    0.097606
    12  H    0.083844
    13  H    0.068227
    14  H    0.094981
    15  H    0.103596
    16  H    0.085147
    17  H    0.078574
    18  H    0.108243
    19  H    0.083193
 Sum of Mulliken charges =   0.00000

 Dipole moment (field-independent basis, Debye):
    X=              0.6328    Y=             -0.8474    Z=              2.1364  Tot=              2.3839
 Quadrupole moment (field-independent basis, Debye-Ang):
   XX=            -51.3339   YY=            -53.9510   ZZ=            -53.0823
   XY=              1.5349   XZ=              1.9315   YZ=              1.9164

  Exact polarizability:  75.213   1.392  71.925   1.544   2.059  70.933
 Approx polarizability: 108.947  -1.622 106.731   1.253   1.398 109.945

                      1                      2                      3
                      A                      A                      A
 Frequencies --    226.2267               282.7525               313.6101
 Red. masses --      1.1481                 2.8186                 4.2415
 Frc consts  --      0.0346                 0.1328                 0.2458
 IR Inten    --     64.0296                31.4398                 4.5457

                      4                      5                      6
                      A                      A                      A
 Frequencies --    426.0680               505.9310               552.6318
 Red. masses --      2.8803                 2.0059                 2.3066
 Frc consts  --      0.3081                 0.3025                 0.4150
 IR Inten    --      6.7774                 0.1511                 6.5040

                      7                      8                      9
                      A                      A                      A
 Frequencies --    566.4963               586.8242               640.0633
 Red. masses --      4.8664                 3.9641                 3.6250
 Frc consts  --      0.9201                 0.8043                 0.8750
 IR Inten    --      3.1271                 2.6746                 7.1711

                     10                     11                     12
                      A                      A                      A
 Frequencies --    673.0596               766.3332               804.3186
 Red. masses --      3.5667                 3.1286                 4.7403
 Frc consts  --      0.9520                 1.0825                 1.8068
 IR Inten    --      1.4444                 1.0672                 2.2442

                     13                     14                     15
                      A                      A                      A
 Frequencies --    823.1525               894.6724               912.6429
 Red. masses --      3.6548                 2.7466                 2.4455
 Frc consts  --      1.4591                 1.2953                 1.2001
 IR Inten    --      5.1383                 4.6187                 8.8148

                     16                     17                     18
                      A                      A                      A
 Frequencies --    921.5002               927.7548               948.5405
 Red. masses --      2.3991                 2.0540                 1.8142
 Frc consts  --      1.2003                 1.0416                 0.9617
 IR Inten    --     12.8585                 5.0777                12.0186

                     19                     20                     21
                      A                      A                      A
 Frequencies --    955.2067               965.6554              1008.9036
 Red. masses --      2.1214                 2.1208                 1.9469
 Frc consts  --      1.1404                 1.1652                 1.1676
 IR Inten    --      7.2385                12.8965                20.1813

                     22                     23                     24
                      A                      A                      A
 Frequencies --   1030.5860              1060.6734              1078.4381
 Red. masses --      2.1783                 1.4011                 1.5508
 Frc consts  --      1.3631                 0.9287                 1.0627
 IR Inten    --     32.5683                 7.4472                 3.2971

                     25                     26                     27
                      A                      A                      A
 Frequencies --   1112.3100              1128.1982              1151.1339
 Red. masses --      1.3898                 1.2481                 2.2425
 Frc consts  --      1.0131                 0.9360                 1.7508
 IR Inten    --     18.1431                24.2693                 5.2800

                     28                     29                     30
                      A                      A                      A
 Frequencies --   1174.3879              1198.9710              1230.6921
 Red. masses --      1.9510                 1.4841                 1.6794
 Frc consts  --      1.5853                 1.2570                 1.4987
 IR Inten    --     29.3594                18.3838                 0.2708

                     31                     32                     33
                      A                      A                      A
 Frequencies --   1248.8010              1257.9162              1266.2608
 Red. masses --      1.3605                 1.5040                 1.6780
 Frc consts  --      1.2501                 1.4022                 1.5852
 IR Inten    --      2.8341                23.5914                20.3646

                     34                     35                     36
                      A                      A                      A
 Frequencies --   1278.4210              1294.9224              1327.9180
 Red. masses --      1.5947                 1.6090                 1.8120
 Frc consts  --      1.5356                 1.5896                 1.8826
 IR Inten    --      4.3340                 2.6434                77.1757

                     37                     38                     39
                      A                      A                      A
 Frequencies --   1338.8705              1372.5505              1483.1413
 Red. masses --      1.5499                 1.8346                 1.1036
 Frc consts  --      1.6369                 2.0363                 1.4303
 IR Inten    --     24.9833                 1.7092                 0.5586

                     40                     41                     42
                      A                      A                      A
 Frequencies --   1498.5204              1533.1294              3054.4109
 Red. masses --      1.1104                 1.1034                 1.0616
 Frc consts  --      1.4692                 1.5280                 5.8354
 IR Inten    --      5.3772                 2.7944                11.6035

                     43                     44                     45
                      A                      A                      A
 Frequencies --   3067.4687              3076.3197              3110.5801
 Red. masses --      1.0600                 1.0600                 1.1034
 Frc consts  --      5.8767                 5.9105                 6.2904
 IR Inten    --     49.5940                14.7058                34.2311

                     46                     47                     48
                      A                      A                      A
 Frequencies --   3129.1530              3133.3223              3134.0704
 Red. masses --      1.0924                 1.1044                 1.1059
 Frc consts  --      6.3019                 6.3886                 6.4003
 IR Inten    --     20.6046                15.9547                25.0033

                     49                     50                     51
                      A                      A                      A
 Frequencies --   3140.6808              3149.8589              3809.5183
 Red. masses --      1.0899                 1.0922                 1.0659
 Frc consts  --      6.3341                 6.3844                 9.1142
 IR Inten    --     61.1190                13.1101                20.8285

 - Thermochemistry -
 -------------------
 Temperature   298.150 Kelvin.  Pressure   1.00000 Atm.
 Atom     1 has atomic number  8 and mass  15.99491

 Molecular mass:   126.06808 amu.
 Principal axes and moments of inertia in atomic units:
                           1         2         3
     Eigenvalues --   682.05010 938.052921002.51405
           X            0.99830   0.04870   0.03193
           Y           -0.05237   0.99055   0.12679
           Z           -0.02545  -0.12825   0.99142
 This molecule is an asymmetric top.
 Rotational symmetry number  1.
 Warning -- assumption of classical behavior for rotation
           may cause significant error
 Rotational temperatures (Kelvin)      0.12699     0.09233     0.08640
 Rotational constants (GHZ):           2.64605     1.92392     1.80022
 Zero-point vibrational energy     428105.0 (Joules/Mol)
                                  102.31955 (Kcal/Mol)
 Warning -- explicit consideration of   8 degrees of freedom as
           vibrations may cause significant error
 Vibrational temperatures:    325.49   406.82   451.21   613.02   727.92
          (Kelvin)            795.11   815.06   844.31   920.91   968.38
                             1102.58  1157.23  1184.33  1287.23  1313.09
                             1325.83  1334.83  1364.74  1374.33  1389.36
                             1451.59  1482.78  1526.07  1551.63  1600.36
                             1623.22  1656.22  1689.68  1725.05  1770.69
                             1796.74  1809.86  1821.86  1839.36  1863.10
                             1910.58  1926.33  1974.79  2133.91  2156.03
                             2205.83  4394.61  4413.40  4426.13  4475.43
                             4502.15  4508.15  4509.22  4518.73  4531.94
                             5481.04

 Zero-point correction=                           0.163057 (Hartree/Particle)
 Thermal correction to Energy=                    0.169479
 Thermal correction to Enthalpy=                  0.170423
 Thermal correction to Gibbs Free Energy=         0.132770
 Sum of electronic and zero-point Energies=           -423.016430
 Sum of electronic and thermal Energies=              -423.010008
 Sum of electronic and thermal Enthalpies=            -423.009063
 Sum of electronic and thermal Free Energies=         -423.046716

                     E (Thermal)             CV                S
                      KCal/Mol        Cal/Mol-Kelvin    Cal/Mol-Kelvin
 Total                  106.349             28.195             79.247
 Electronic               0.000              0.000              0.000
 Translational            0.889              2.981             40.409
 Rotational               0.889              2.981             27.952
 Vibrational            104.572             22.234             10.886
 Vibration     1          0.650              1.801              1.909
 Vibration     2          0.682              1.706              1.517
 Vibration     3          0.701              1.648              1.343
 Vibration     4          0.788              1.414              0.872
 Vibration     5          0.861              1.237              0.643
 Vibration     6          0.908              1.134              0.539
 Vibration     7          0.922              1.104              0.511
 Vibration     8          0.944              1.060              0.473

 Optimization completed.
    -- Stationary point found.
 Normal termination of Gaussian 09 at Mon Jan 27 20:21:28 2020.
