 Gaussian 09, Revision D.01,
 Gaussian 09:  ES64L-G09RevD.01 24-Apr-2013

 -----------------------------
 # b3lyp 6-31G(2df,p) opt Freq
 -----------------------------

 -----
 titel
 -----
 Symbolic Z-matrix:
 Charge =  0 Multiplicity = 1

 SCF Done:  E(RB3LYP) =  -423.159755207     A.U. after   14 cycles
 Optimization completed.
    -- Stationary point found.
 Normal termination of Gaussian 09 at Tue Jan 28 12:09:04 2020.

 ----------------------------------------------------------------------
 #N Geom=AllCheck Guess=TCheck SCRF=Check GenChk RB3LYP/6-31G(2df,p) Fr
 eq
 ----------------------------------------------------------------------

 Structure from the checkpoint file:  "/scratch/puck/g09_48d8ca32-c053-47f7-91be-54db6ff48c06/Gau-85237.chk"
 -----
 titel
 -----
 Charge =  0 Multiplicity = 1

                         Standard orientation:
 ---------------------------------------------------------------------
 Center     Atomic      Atomic             Coordinates (Angstroms)
 Number     Number       Type             X           Y           Z
 ---------------------------------------------------------------------
      1          6           0        2.251992   -1.186373    0.043333
      2          8           0        1.282749   -0.541664   -0.778661
      3          6           0        0.105492   -0.227900   -0.093165
      4          6           0       -0.790134   -1.349586    0.436469
      5          6           0       -2.184388   -0.784091    0.252144
      6          6           0       -2.175883    0.396354   -0.374445
      7          6           0       -0.793183    0.863091   -0.660604
      8          6           0        0.082531    1.129231    0.567281
      9          8           0        1.217901    1.922785    0.432012
     10          1           0        1.891823   -2.160050    0.399245
     11          1           0        3.136770   -1.343602   -0.577495
     12          1           0        2.518583   -0.567946    0.910094
     13          1           0       -0.644902   -2.268786   -0.149646
     14          1           0       -0.578949   -1.603327    1.482559
     15          1           0       -3.069019   -1.305218    0.599027
     16          1           0       -3.054243    0.982510   -0.619308
     17          1           0       -0.539003    1.391833   -1.573293
     18          1           0       -0.405237    1.276173    1.526533
     19          1           0        1.760410    1.505098   -0.250604
 ---------------------------------------------------------------------

 SCF Done:  E(RB3LYP) =  -423.159755207     A.U. after    1 cycles

 The electronic state is 1-A.
 Alpha  occ. eigenvalues --  -19.15940 -19.13905 -10.23636 -10.23248 -10.23196
 Alpha  occ. eigenvalues --  -10.19130 -10.18451 -10.18391 -10.18211  -1.05570
 Alpha  occ. eigenvalues --   -1.01883  -0.87397  -0.76196  -0.71223  -0.68804
 Alpha  occ. eigenvalues --   -0.60873  -0.56696  -0.54915  -0.52407  -0.49786
 Alpha  occ. eigenvalues --   -0.45489  -0.45183  -0.44033  -0.41562  -0.41199
 Alpha  occ. eigenvalues --   -0.38945  -0.38348  -0.36211  -0.35448  -0.34191
 Alpha  occ. eigenvalues --   -0.29116  -0.28099  -0.24812  -0.21572
 Alpha virt. eigenvalues --    0.01743   0.07797   0.10170   0.11718   0.13185
 Alpha virt. eigenvalues --    0.14249   0.14391   0.15277   0.16407   0.16851
 Alpha virt. eigenvalues --    0.17086   0.18046   0.18398   0.20568   0.22599

 Mulliken charges:
               1
     1  C   -0.266319
     2  O   -0.304897
     3  C    0.377942
     4  C   -0.341940
     5  C   -0.088441
     6  C   -0.068633
     7  C   -0.234004
     8  C    0.081745
     9  O   -0.443493
    10  H    0.120502
    11  H    0.130298
    12  H    0.125905
    13  H    0.113884
    14  H    0.110809
    15  H    0.096301
    16  H    0.099914
    17  H    0.097389
    18  H    0.102778
    19  H    0.290259
 Sum of Mulliken charges =   0.00000

 Dipole moment (field-independent basis, Debye):
    X=              0.0329    Y=             -1.7033    Z=              0.2972  Tot=              1.7294
 Quadrupole moment (field-independent basis, Debye-Ang):
   XX=            -48.5588   YY=            -55.2498   ZZ=            -54.0305
   XY=             -2.8071   XZ=             -0.8140   YZ=             -3.6165

  Exact polarizability:  88.674  -0.047  80.223   0.018  -6.354  60.546
 Approx polarizability: 116.398   2.292 126.566   0.480 -12.099  98.906

                      1                      2                      3
                      A                      A                      A
 Frequencies --    112.7843               163.9766               193.3635
 Red. masses --      2.7386                 1.8999                 1.4478
 Frc consts  --      0.0205                 0.0301                 0.0319
 IR Inten    --      6.5140                 2.3013                 1.5332

                      4                      5                      6
                      A                      A                      A
 Frequencies --    210.5553               274.4879               283.2001
 Red. masses --      3.3181                 3.9086                 3.1204
 Frc consts  --      0.0867                 0.1735                 0.1475
 IR Inten    --      2.4661                 1.7517                11.2588

                      7                      8                      9
                      A                      A                      A
 Frequencies --    373.7272               426.3536               446.0409
 Red. masses --      2.8705                 3.0193                 1.6922
 Frc consts  --      0.2362                 0.3234                 0.1984
 IR Inten    --     12.1668                 0.5071                26.1783

                     10                     11                     12
                      A                      A                      A
 Frequencies --    461.3772               515.4340               702.2104
 Red. masses --      1.5567                 4.3405                 3.6713
 Frc consts  --      0.1952                 0.6794                 1.0666
 IR Inten    --     42.7134                 5.5833                 6.1301

                     13                     14                     15
                      A                      A                      A
 Frequencies --    705.6655               743.0500               795.6128
 Red. masses --      2.4680                 1.6679                 4.5065
 Frc consts  --      0.7241                 0.5426                 1.6807
 IR Inten    --     12.2695                35.5207                 2.4665

                     16                     17                     18
                      A                      A                      A
 Frequencies --    880.1215               941.8284               952.0363
 Red. masses --      3.1935                 2.0254                 1.4439
 Frc consts  --      1.4575                 1.0585                 0.7711
 IR Inten    --     25.5695                 9.1969                 6.8705

                     19                     20                     21
                      A                      A                      A
 Frequencies --    958.8924               980.9602              1006.1796
 Red. masses --      1.7465                 2.7739                 2.1769
 Frc consts  --      0.9461                 1.5727                 1.2985
 IR Inten    --      8.8492                 5.0544                 3.6239

                     22                     23                     24
                      A                      A                      A
 Frequencies --   1022.1897              1048.5895              1073.8969
 Red. masses --      2.1238                 1.7436                 2.1704
 Frc consts  --      1.3075                 1.1295                 1.4747
 IR Inten    --     25.4381                23.6223                26.7818

                     25                     26                     27
                      A                      A                      A
 Frequencies --   1132.6232              1138.9806              1171.4911
 Red. masses --      1.3449                 2.2864                 1.4921
 Frc consts  --      1.0165                 1.7476                 1.2065
 IR Inten    --     25.9476                93.1426                39.1226

                     28                     29                     30
                      A                      A                      A
 Frequencies --   1180.3938              1192.1892              1229.3506
 Red. masses --      1.2810                 1.4460                 1.7947
 Frc consts  --      1.0516                 1.2109                 1.5981
 IR Inten    --      0.8933                11.9113                16.2591

                     31                     32                     33
                      A                      A                      A
 Frequencies --   1248.0553              1271.6618              1322.9396
 Red. masses --      1.8007                 1.5376                 2.1316
 Frc consts  --      1.6526                 1.4650                 2.1980
 IR Inten    --      8.3010                 7.1481                10.3641

                     34                     35                     36
                      A                      A                      A
 Frequencies --   1361.5584              1367.8065              1444.3762
 Red. masses --      1.8581                 1.7622                 1.7401
 Frc consts  --      2.0295                 1.9425                 2.1388
 IR Inten    --     41.2479                10.4406                94.4523

                     37                     38                     39
                      A                      A                      A
 Frequencies --   1474.8071              1481.9567              1490.9090
 Red. masses --      1.1217                 1.1828                 1.0592
 Frc consts  --      1.4374                 1.5305                 1.3871
 IR Inten    --      3.3383                 5.4122                 7.1496

                     40                     41                     42
                      A                      A                      A
 Frequencies --   1507.9709              1666.0975              3002.6600
 Red. masses --      1.0500                 6.0872                 1.0599
 Frc consts  --      1.4068                 9.9556                 5.6304
 IR Inten    --      7.9035                 3.3884                18.2613

                     43                     44                     45
                      A                      A                      A
 Frequencies --   3007.4584              3044.8555              3067.3509
 Red. masses --      1.0375                 1.0960                 1.1046
 Frc consts  --      5.5286                 5.9869                 6.1235
 IR Inten    --     57.7710                20.7712                32.3529

                     46                     47                     48
                      A                      A                      A
 Frequencies --   3124.4529              3152.7097              3170.2843
 Red. masses --      1.1005                 1.0906                 1.0892
 Frc consts  --      6.3297                 6.3869                 6.4497
 IR Inten    --     25.0639                14.4672                 9.1127

                     49                     50                     51
                      A                      A                      A
 Frequencies --   3189.2014              3213.2526              3754.8377
 Red. masses --      1.0854                 1.1037                 1.0647
 Frc consts  --      6.5043                 6.7142                 8.8439
 IR Inten    --      6.5437                22.2886                40.3302

 - Thermochemistry -
 -------------------
 Temperature   298.150 Kelvin.  Pressure   1.00000 Atm.
 Atom     1 has atomic number  6 and mass  12.00000

 Molecular mass:   126.06808 amu.
 Principal axes and moments of inertia in atomic units:
                           1         2         3
     Eigenvalues --   697.805281139.996151583.08724
           X            0.99921  -0.03979   0.00206
           Y            0.03984   0.99850  -0.03763
           Z           -0.00056   0.03768   0.99929
 This molecule is an asymmetric top.
 Rotational symmetry number  1.
 Warning -- assumption of classical behavior for rotation
           may cause significant error
 Rotational temperatures (Kelvin)      0.12412     0.07598     0.05471
 Rotational constants (GHZ):           2.58631     1.58311     1.14001
 Zero-point vibrational energy     416795.5 (Joules/Mol)
                                   99.61651 (Kcal/Mol)
 Warning -- explicit consideration of  11 degrees of freedom as
           vibrations may cause significant error
 Vibrational temperatures:    162.27   235.93   278.21   302.94   394.93
          (Kelvin)            407.46   537.71   613.43   641.75   663.82
                              741.59  1010.32  1015.29  1069.08  1144.71
                             1266.30  1355.08  1369.77  1379.63  1411.38
                             1447.67  1470.70  1508.68  1545.10  1629.59
                             1638.74  1685.51  1698.32  1715.29  1768.76
                             1795.67  1829.64  1903.41  1958.98  1967.97
                             2078.13  2121.92  2132.20  2145.08  2169.63
                             2397.14  4320.15  4327.06  4380.86  4413.23
                             4495.39  4536.04  4561.33  4588.54  4623.15
                             5402.37

 Zero-point correction=                           0.158749 (Hartree/Particle)
 Thermal correction to Energy=                    0.167229
 Thermal correction to Enthalpy=                  0.168174
 Thermal correction to Gibbs Free Energy=         0.126045
 Sum of electronic and zero-point Energies=           -423.001006
 Sum of electronic and thermal Energies=              -422.992526
 Sum of electronic and thermal Enthalpies=            -422.991582
 Sum of electronic and thermal Free Energies=         -423.033710

                     E (Thermal)             CV                S
                      KCal/Mol        Cal/Mol-Kelvin    Cal/Mol-Kelvin
 Total                  104.938             32.879             88.667
 Electronic               0.000              0.000              0.000
 Translational            0.889              2.981             40.409
 Rotational               0.889              2.981             28.623
 Vibrational            103.161             26.918             19.635
 Vibration     1          0.607              1.939              3.220
 Vibration     2          0.623              1.887              2.503
 Vibration     3          0.635              1.849              2.195
 Vibration     4          0.643              1.825              2.039
 Vibration     5          0.677              1.720              1.568
 Vibration     6          0.682              1.705              1.514
 Vibration     7          0.745              1.526              1.064
 Vibration     8          0.788              1.413              0.871
 Vibration     9          0.805              1.370              0.808
 Vibration    10          0.819              1.336              0.762
 Vibration    11          0.870              1.216              0.621

 Optimization completed.
    -- Stationary point found.
 Normal termination of Gaussian 09 at Tue Jan 28 12:56:30 2020.
