 Gaussian 09, Revision D.01,
 Gaussian 09:  ES64L-G09RevD.01 24-Apr-2013

 -----------------------------
 # b3lyp 6-31G(2df,p) opt Freq
 -----------------------------

 -----
 titel
 -----
 Symbolic Z-matrix:
 Charge =  0 Multiplicity = 1

 SCF Done:  E(RB3LYP) =  -423.149365580     A.U. after   14 cycles
 Optimization completed.
    -- Stationary point found.
 Normal termination of Gaussian 09 at Mon Jan 27 17:07:22 2020.

 ----------------------------------------------------------------------
 #N Geom=AllCheck Guess=TCheck SCRF=Check GenChk RB3LYP/6-31G(2df,p) Fr
 eq
 ----------------------------------------------------------------------

 Structure from the checkpoint file:  "/scratch/puck/g09_edd1b475-22c7-4037-8261-067e3ff20261/Gau-165917.chk"
 -----
 titel
 -----
 Charge =  0 Multiplicity = 1

                         Standard orientation:
 ---------------------------------------------------------------------
 Center     Atomic      Atomic             Coordinates (Angstroms)
 Number     Number       Type             X           Y           Z
 ---------------------------------------------------------------------
      1          6           0       -1.275431    1.908367    0.132709
      2          6           0       -0.970949    0.446693   -0.050595
      3          6           0       -1.564713   -0.759652    0.753502
      4          6           0       -0.552218   -1.395286   -0.244420
      5          6           0       -1.146719   -0.442872   -1.318080
      6          6           0        0.439302   -0.248110    0.175806
      7          8           0        0.909364   -0.261541    1.486521
      8          6           0        1.578695    0.096984   -0.746385
      9          8           0        2.686463    0.325560   -0.309021
     10          1           0       -0.953885    2.240611    1.125184
     11          1           0       -0.762578    2.523757   -0.614498
     12          1           0       -2.350606    2.097759    0.043806
     13          1           0       -1.317991   -0.815994    1.811682
     14          1           0       -2.619235   -0.977394    0.562399
     15          1           0       -0.300428   -2.450294   -0.354633
     16          1           0       -0.564019   -0.213866   -2.211247
     17          1           0       -2.183973   -0.652679   -1.588869
     18          1           0        1.851737   -0.036380    1.422511
     19          1           0        1.386558    0.135583   -1.831560
 ---------------------------------------------------------------------

 SCF Done:  E(RB3LYP) =  -423.149365580     A.U. after    1 cycles

 The electronic state is 1-A.
 Alpha  occ. eigenvalues --  -19.15659 -19.13586 -10.27878 -10.24978 -10.21748
 Alpha  occ. eigenvalues --  -10.21119 -10.19637 -10.18878 -10.18287  -1.06988
 Alpha  occ. eigenvalues --   -1.02171  -0.91284  -0.73538  -0.70515  -0.67162
 Alpha  occ. eigenvalues --   -0.60366  -0.59908  -0.53816  -0.53015  -0.48039
 Alpha  occ. eigenvalues --   -0.47093  -0.44387  -0.43609  -0.42399  -0.40299
 Alpha  occ. eigenvalues --   -0.39251  -0.36547  -0.36015  -0.33786  -0.32938
 Alpha  occ. eigenvalues --   -0.31805  -0.31459  -0.26544  -0.25598
 Alpha virt. eigenvalues --   -0.04079   0.09402   0.10524   0.11818   0.12591
 Alpha virt. eigenvalues --    0.13925   0.14304   0.14805   0.15419   0.16227
 Alpha virt. eigenvalues --    0.17676   0.18507   0.18990   0.20617   0.21503

 Mulliken charges:
               1
     1  C   -0.519059
     2  C    0.268245
     3  C   -0.265942
     4  C   -0.118241
     5  C   -0.287816
     6  C    0.371312
     7  O   -0.502340
     8  C    0.071157
     9  O   -0.285021
    10  H    0.136440
    11  H    0.119440
    12  H    0.123993
    13  H    0.127337
    14  H    0.088134
    15  H    0.082425
    16  H    0.093318
    17  H    0.101256
    18  H    0.292784
    19  H    0.102580
 Sum of Mulliken charges =   0.00000

 Dipole moment (field-independent basis, Debye):
    X=             -1.8555    Y=              0.0236    Z=             -1.4704  Tot=              2.3676
 Quadrupole moment (field-independent basis, Debye-Ang):
   XX=            -57.8485   YY=            -52.4838   ZZ=            -53.5936
   XY=             -1.1241   XZ=              0.1938   YZ=              0.8129

  Exact polarizability:  88.917   2.926  69.785   0.728   0.123  73.183
 Approx polarizability: 133.565   6.768 101.070   4.080  -0.082 112.735

                      1                      2                      3
                      A                      A                      A
 Frequencies --     89.2977               178.5295               196.7373
 Red. masses --      6.2693                 2.3143                 1.1984
 Frc consts  --      0.0295                 0.0435                 0.0273
 IR Inten    --      0.0524                 3.6046                 0.7399

                      4                      5                      6
                      A                      A                      A
 Frequencies --    229.0675               289.5715               313.6606
 Red. masses --      2.3328                 3.9432                 2.4046
 Frc consts  --      0.0721                 0.1948                 0.1394
 IR Inten    --      0.0562                 4.3495                 0.9179

                      7                      8                      9
                      A                      A                      A
 Frequencies --    385.5089               429.4360               470.6757
 Red. masses --      5.1676                 2.4310                 3.7861
 Frc consts  --      0.4525                 0.2641                 0.4942
 IR Inten    --     17.2001                17.9572                 4.0727

                     10                     11                     12
                      A                      A                      A
 Frequencies --    521.2047               541.2992               611.5625
 Red. masses --      1.2142                 2.9158                 2.1970
 Frc consts  --      0.1943                 0.5034                 0.4841
 IR Inten    --     49.4573                11.1228                 3.4896

                     13                     14                     15
                      A                      A                      A
 Frequencies --    643.0936               734.3985               801.5419
 Red. masses --      3.2507                 3.7130                 2.8232
 Frc consts  --      0.7921                 1.1799                 1.0687
 IR Inten    --      0.1942                 0.8041                 0.0954

                     16                     17                     18
                      A                      A                      A
 Frequencies --    833.0229               894.7640               904.1917
 Red. masses --      5.2513                 2.8543                 1.8840
 Frc consts  --      2.1470                 1.3464                 0.9075
 IR Inten    --     27.8986                 4.1566                 0.0598

                     19                     20                     21
                      A                      A                      A
 Frequencies --    936.1058              1000.1263              1010.9280
 Red. masses --      2.2435                 1.4083                 1.1702
 Frc consts  --      1.1583                 0.8300                 0.7046
 IR Inten    --      5.1912                 6.9559                 0.7634

                     22                     23                     24
                      A                      A                      A
 Frequencies --   1016.8656              1038.5731              1072.8677
 Red. masses --      1.1921                 2.0269                 1.9619
 Frc consts  --      0.7262                 1.2881                 1.3305
 IR Inten    --      1.4633                27.3411                13.9661

                     25                     26                     27
                      A                      A                      A
 Frequencies --   1100.1165              1102.5570              1174.3689
 Red. masses --      1.5516                 1.6935                 1.6062
 Frc consts  --      1.1064                 1.2129                 1.3051
 IR Inten    --      8.6774                13.2388                 2.4999

                     28                     29                     30
                      A                      A                      A
 Frequencies --   1182.1779              1208.4721              1215.9995
 Red. masses --      1.5945                 2.2078                 1.7576
 Frc consts  --      1.3129                 1.8997                 1.5312
 IR Inten    --      3.0299                23.0698                 8.9375

                     31                     32                     33
                      A                      A                      A
 Frequencies --   1227.5312              1266.9307              1318.8878
 Red. masses --      1.7863                 4.5120                 3.3643
 Frc consts  --      1.5859                 4.2670                 3.4479
 IR Inten    --      5.4615                41.6823                26.8122

                     34                     35                     36
                      A                      A                      A
 Frequencies --   1388.5127              1405.5132              1451.1066
 Red. masses --      1.1926                 1.3433                 1.4110
 Frc consts  --      1.3547                 1.5635                 1.7506
 IR Inten    --    106.0908                 3.4020                29.1305

                     37                     38                     39
                      A                      A                      A
 Frequencies --   1485.9022              1490.6361              1505.9329
 Red. masses --      1.0478                 1.0502                 1.1094
 Frc consts  --      1.3631                 1.3749                 1.4824
 IR Inten    --      5.1675                 3.7098                 1.7088

                     40                     41                     42
                      A                      A                      A
 Frequencies --   1549.1741              1782.2228              2989.2203
 Red. masses --      1.1575                10.2367                 1.0858
 Frc consts  --      1.6367                19.1574                 5.7161
 IR Inten    --      2.1535               190.3333                39.8266

                     43                     44                     45
                      A                      A                      A
 Frequencies --   3029.0006              3064.2007              3072.4941
 Red. masses --      1.0350                 1.0616                 1.0568
 Frc consts  --      5.5951                 5.8728                 5.8781
 IR Inten    --     24.1243                40.4738                43.9277

                     46                     47                     48
                      A                      A                      A
 Frequencies --   3095.6225              3103.5060              3114.1937
 Red. masses --      1.1011                 1.1009                 1.0921
 Frc consts  --      6.2168                 6.2472                 6.2401
 IR Inten    --     15.8205                12.6944                50.8324

                     49                     50                     51
                      A                      A                      A
 Frequencies --   3129.6892              3163.3007              3672.9449
 Red. masses --      1.1076                 1.1035                 1.0647
 Frc consts  --      6.3921                 6.5060                 8.4623
 IR Inten    --     38.9831                13.6022                93.8133

 - Thermochemistry -
 -------------------
 Temperature   298.150 Kelvin.  Pressure   1.00000 Atm.
 Atom     1 has atomic number  6 and mass  12.00000

 Molecular mass:   126.06808 amu.
 Principal axes and moments of inertia in atomic units:
                           1         2         3
     Eigenvalues --   704.277691275.688821331.76652
           X            0.99982  -0.01915   0.00137
           Y            0.01902   0.99748   0.06830
           Z           -0.00267  -0.06826   0.99766
 This molecule is an asymmetric top.
 Rotational symmetry number  1.
 Warning -- assumption of classical behavior for rotation
           may cause significant error
 Rotational temperatures (Kelvin)      0.12298     0.06790     0.06504
 Rotational constants (GHZ):           2.56254     1.41472     1.35515
 Zero-point vibrational energy     415303.0 (Joules/Mol)
                                   99.25981 (Kcal/Mol)
 Warning -- explicit consideration of  12 degrees of freedom as
           vibrations may cause significant error
 Vibrational temperatures:    128.48   256.86   283.06   329.58   416.63
          (Kelvin)            451.29   554.66   617.86   677.20   749.90
                              778.81   879.90   925.27  1056.63  1153.24
                             1198.53  1287.36  1300.93  1346.85  1438.96
                             1454.50  1463.04  1494.27  1543.62  1582.82
                             1586.33  1689.65  1700.89  1738.72  1749.55
                             1766.14  1822.83  1897.58  1997.76  2022.22
                             2087.82  2137.88  2144.69  2166.70  2228.91
                             2564.22  4300.82  4358.05  4408.70  4420.63
                             4453.90  4465.25  4480.62  4502.92  4551.28
                             5284.54

 Zero-point correction=                           0.158181 (Hartree/Particle)
 Thermal correction to Energy=                    0.166597
 Thermal correction to Enthalpy=                  0.167541
 Thermal correction to Gibbs Free Energy=         0.125527
 Sum of electronic and zero-point Energies=           -422.991185
 Sum of electronic and thermal Energies=              -422.982769
 Sum of electronic and thermal Enthalpies=            -422.981824
 Sum of electronic and thermal Free Energies=         -423.023839

                     E (Thermal)             CV                S
                      KCal/Mol        Cal/Mol-Kelvin    Cal/Mol-Kelvin
 Total                  104.541             33.016             88.427
 Electronic               0.000              0.000              0.000
 Translational            0.889              2.981             40.409
 Rotational               0.889              2.981             28.572
 Vibrational            102.764             27.054             19.447
 Vibration     1          0.602              1.957              3.675
 Vibration     2          0.629              1.869              2.344
 Vibration     3          0.636              1.844              2.163
 Vibration     4          0.652              1.797              1.886
 Vibration     5          0.686              1.693              1.476
 Vibration     6          0.702              1.648              1.343
 Vibration     7          0.754              1.501              1.017
 Vibration     8          0.791              1.406              0.860
 Vibration     9          0.828              1.315              0.736
 Vibration    10          0.876              1.203              0.607
 Vibration    11          0.896              1.159              0.562
 Vibration    12          0.971              1.007              0.430

 Optimization completed.
    -- Stationary point found.
 Normal termination of Gaussian 09 at Mon Jan 27 17:54:46 2020.
