 Gaussian 09, Revision D.01,
 Gaussian 09:  ES64L-G09RevD.01 24-Apr-2013

 -----------------------------
 # b3lyp 6-31G(2df,p) opt Freq
 -----------------------------

 -----
 titel
 -----
 Symbolic Z-matrix:
 Charge =  0 Multiplicity = 1

 SCF Done:  E(RB3LYP) =  -423.195726889     A.U. after   14 cycles
 Optimization completed.
    -- Stationary point found.
 Normal termination of Gaussian 09 at Mon Jan 27 16:25:33 2020.

 ----------------------------------------------------------------------
 #N Geom=AllCheck Guess=TCheck SCRF=Check GenChk RB3LYP/6-31G(2df,p) Fr
 eq
 ----------------------------------------------------------------------

 Structure from the checkpoint file:  "/scratch/puck/g09_38e13abb-c4ab-49bb-9e4a-c03f3d6ab4cc/Gau-57301.chk"
 -----
 titel
 -----
 Charge =  0 Multiplicity = 1

                         Standard orientation:
 ---------------------------------------------------------------------
 Center     Atomic      Atomic             Coordinates (Angstroms)
 Number     Number       Type             X           Y           Z
 ---------------------------------------------------------------------
      1          8           0       -1.835344   -1.275376    0.000085
      2          6           0       -0.768623   -0.379900   -0.000045
      3          6           0       -1.219456    1.024714   -0.000245
      4          8           0       -2.403807    1.296937   -0.000143
      5          6           0        0.465794   -0.884137    0.752117
      6          6           0        1.557348    0.059105    1.242406
      7          6           0        2.029745    0.860688   -0.000157
      8          6           0        1.557465    0.058473   -1.242360
      9          6           0        0.465871   -0.884523   -0.751697
     10          1           0       -2.625665   -0.711202    0.000394
     11          1           0       -0.452902    1.817570   -0.000454
     12          1           0        0.261916   -1.791718    1.309509
     13          1           0        1.238151    0.712394    2.060688
     14          1           0        2.375936   -0.555127    1.634273
     15          1           0        1.596758    1.865018   -0.000433
     16          1           0        3.113636    1.001059   -0.000139
     17          1           0        1.238330    0.711346   -2.060998
     18          1           0        2.376095   -0.555947   -1.633844
     19          1           0        0.262090   -1.792400   -1.308645
 ---------------------------------------------------------------------

 SCF Done:  E(RB3LYP) =  -423.195726889     A.U. after    1 cycles

 The electronic state is 1-A.
 Alpha  occ. eigenvalues --  -19.14620 -19.13731 -10.27419 -10.24935 -10.20255
 Alpha  occ. eigenvalues --  -10.20228 -10.19586 -10.19586 -10.19374  -1.06176
 Alpha  occ. eigenvalues --   -1.01984  -0.88450  -0.77259  -0.72120  -0.67699
 Alpha  occ. eigenvalues --   -0.60856  -0.56395  -0.55014  -0.53110  -0.49699
 Alpha  occ. eigenvalues --   -0.47613  -0.45189  -0.43522  -0.43297  -0.39861
 Alpha  occ. eigenvalues --   -0.37331  -0.36500  -0.35709  -0.35417  -0.34630
 Alpha  occ. eigenvalues --   -0.33866  -0.30037  -0.26139  -0.23986
 Alpha virt. eigenvalues --   -0.03165   0.07037   0.07995   0.12234   0.12634
 Alpha virt. eigenvalues --    0.13784   0.14178   0.14623   0.15994   0.16631
 Alpha virt. eigenvalues --    0.18603   0.19272   0.20235   0.20558   0.23123

 Mulliken charges:
               1
     1  O   -0.479070
     2  C    0.338307
     3  C    0.076201
     4  O   -0.300077
     5  C   -0.103953
     6  C   -0.231482
     7  C   -0.231848
     8  C   -0.231482
     9  C   -0.103942
    10  H    0.294388
    11  H    0.093432
    12  H    0.109800
    13  H    0.108236
    14  H    0.111833
    15  H    0.113193
    16  H    0.106594
    17  H    0.108237
    18  H    0.111834
    19  H    0.109801
 Sum of Mulliken charges =   0.00000

 Dipole moment (field-independent basis, Debye):
    X=              3.0632    Y=              0.1642    Z=              0.0003  Tot=              3.0676
 Quadrupole moment (field-independent basis, Debye-Ang):
   XX=            -56.8930   YY=            -55.5096   ZZ=            -52.0362
   XY=              1.5214   XZ=             -0.0016   YZ=             -0.0004

  Exact polarizability:  91.602  -2.933  73.059   0.000  -0.001  65.821
 Approx polarizability: 134.600 -11.753 113.171   0.002  -0.003  98.007

                      1                      2                      3
                      A                      A                      A
 Frequencies --     89.8138               165.0939               185.4544
 Red. masses --      4.8560                 2.4077                 2.2671
 Frc consts  --      0.0231                 0.0387                 0.0459
 IR Inten    --      0.1514                 0.9885                 0.4840

                      4                      5                      6
                      A                      A                      A
 Frequencies --    206.4017               255.7048               333.7469
 Red. masses --      2.6185                 3.1562                 5.3994
 Frc consts  --      0.0657                 0.1216                 0.3543
 IR Inten    --      0.1121                 6.2087                18.4576

                      7                      8                      9
                      A                      A                      A
 Frequencies --    408.1011               428.4235               475.7163
 Red. masses --      4.4643                 1.3393                 1.7779
 Frc consts  --      0.4381                 0.1448                 0.2371
 IR Inten    --      8.6760                50.7403                16.0147

                     10                     11                     12
                      A                      A                      A
 Frequencies --    535.1800               635.1982               676.3452
 Red. masses --      4.5777                 3.6717                 2.3405
 Frc consts  --      0.7725                 0.8729                 0.6308
 IR Inten    --      3.8300                 3.5575                 0.4938

                     13                     14                     15
                      A                      A                      A
 Frequencies --    795.0717               823.5867               835.9705
 Red. masses --      1.5368                 4.0526                 3.6044
 Frc consts  --      0.5724                 1.6196                 1.4841
 IR Inten    --      3.1325                 5.4526                10.5318

                     16                     17                     18
                      A                      A                      A
 Frequencies --    874.8205               899.6549               899.9751
 Red. masses --      2.5261                 2.4484                 1.5301
 Frc consts  --      1.1390                 1.1676                 0.7302
 IR Inten    --      4.5876                31.4628                 1.6782

                     19                     20                     21
                      A                      A                      A
 Frequencies --    948.9114               954.4331              1027.2149
 Red. masses --      2.1734                 2.2832                 1.9166
 Frc consts  --      1.1531                 1.2254                 1.1915
 IR Inten    --     49.7037                 0.2079                 0.4773

                     22                     23                     24
                      A                      A                      A
 Frequencies --   1029.6434              1054.9445              1087.0607
 Red. masses --      1.7057                 1.5126                 1.4262
 Frc consts  --      1.0654                 0.9918                 0.9930
 IR Inten    --     17.5866                 0.9763                 1.3659

                     25                     26                     27
                      A                      A                      A
 Frequencies --   1098.5885              1169.6938              1172.8901
 Red. masses --      2.3037                 1.6098                 1.3148
 Frc consts  --      1.6381                 1.2977                 1.0657
 IR Inten    --     14.4092                73.6936                 0.1100

                     28                     29                     30
                      A                      A                      A
 Frequencies --   1212.5253              1255.7407              1275.5798
 Red. masses --      1.3591                 1.2168                 2.7124
 Frc consts  --      1.1773                 1.1305                 2.6003
 IR Inten    --      0.0341                 1.6661                29.6131

                     31                     32                     33
                      A                      A                      A
 Frequencies --   1294.7333              1319.9512              1326.6815
 Red. masses --      1.3199                 1.2359                 2.0925
 Frc consts  --      1.3036                 1.2687                 2.1699
 IR Inten    --      0.6950                 0.9508                10.5355

                     34                     35                     36
                      A                      A                      A
 Frequencies --   1348.4656              1382.1341              1395.2088
 Red. masses --      1.5324                 1.4016                 1.6258
 Frc consts  --      1.6418                 1.5775                 1.8646
 IR Inten    --      0.5158               108.8133                 9.0212

                     37                     38                     39
                      A                      A                      A
 Frequencies --   1469.8783              1492.8398              1496.7548
 Red. masses --      1.7168                 1.0859                 1.1391
 Frc consts  --      2.1854                 1.4258                 1.5036
 IR Inten    --     31.2045                 1.8249                 3.5496

                     40                     41                     42
                      A                      A                      A
 Frequencies --   1519.1979              1766.6632              2992.7410
 Red. masses --      1.0942                 9.8019                 1.0854
 Frc consts  --      1.4880                18.0247                 5.7277
 IR Inten    --      2.2940               248.2105                47.6272

                     43                     44                     45
                      A                      A                      A
 Frequencies --   3039.8880              3040.9245              3059.1730
 Red. masses --      1.0607                 1.0621                 1.0735
 Frc consts  --      5.7750                 5.7869                 5.9193
 IR Inten    --     52.5966                14.6955                15.2416

                     46                     47                     48
                      A                      A                      A
 Frequencies --   3076.0569              3076.9886              3103.2557
 Red. masses --      1.0895                 1.1028                 1.1044
 Frc consts  --      6.0741                 6.1520                 6.2665
 IR Inten    --     29.4567                 9.9682                45.9856

                     49                     50                     51
                      A                      A                      A
 Frequencies --   3173.5532              3182.0897              3682.9353
 Red. masses --      1.0880                 1.0918                 1.0644
 Frc consts  --      6.4563                 6.5138                 8.5067
 IR Inten    --      4.8674                 5.9120                74.1419

 - Thermochemistry -
 -------------------
 Temperature   298.150 Kelvin.  Pressure   1.00000 Atm.
 Atom     1 has atomic number  8 and mass  15.99491

 Molecular mass:   126.06808 amu.
 Principal axes and moments of inertia in atomic units:
                           1         2         3
     Eigenvalues --   640.415981377.220791531.90050
           X            0.99967   0.02584  -0.00001
           Y           -0.02584   0.99967   0.00001
           Z            0.00001  -0.00001   1.00000
 This molecule is an asymmetric top.
 Rotational symmetry number  1.
 Warning -- assumption of classical behavior for rotation
           may cause significant error
 Rotational temperatures (Kelvin)      0.13525     0.06289     0.05654
 Rotational constants (GHZ):           2.81808     1.31042     1.17811
 Zero-point vibrational energy     419001.6 (Joules/Mol)
                                  100.14379 (Kcal/Mol)
 Warning -- explicit consideration of  10 degrees of freedom as
           vibrations may cause significant error
 Vibrational temperatures:    129.22   237.53   266.83   296.97   367.90
          (Kelvin)            480.19   587.17   616.41   684.45   770.00
                              913.91   973.11  1143.93  1184.96  1202.77
                             1258.67  1294.40  1294.86  1365.27  1373.21
                             1477.93  1481.43  1517.83  1564.04  1580.62
                             1682.93  1687.53  1744.55  1806.73  1835.27
                             1862.83  1899.11  1908.80  1940.14  1988.58
                             2007.39  2114.82  2147.86  2153.49  2185.78
                             2541.83  4305.88  4373.72  4375.21  4401.46
                             4425.75  4427.09  4464.89  4566.03  4578.31
                             5298.92

 Zero-point correction=                           0.159589 (Hartree/Particle)
 Thermal correction to Energy=                    0.167858
 Thermal correction to Enthalpy=                  0.168802
 Thermal correction to Gibbs Free Energy=         0.126821
 Sum of electronic and zero-point Energies=           -423.036138
 Sum of electronic and thermal Energies=              -423.027869
 Sum of electronic and thermal Enthalpies=            -423.026925
 Sum of electronic and thermal Free Energies=         -423.068905

                     E (Thermal)             CV                S
                      KCal/Mol        Cal/Mol-Kelvin    Cal/Mol-Kelvin
 Total                  105.333             31.964             88.356
 Electronic               0.000              0.000              0.000
 Translational            0.889              2.981             40.409
 Rotational               0.889              2.981             28.693
 Vibrational            103.555             26.002             19.255
 Vibration     1          0.602              1.956              3.664
 Vibration     2          0.623              1.885              2.491
 Vibration     3          0.632              1.860              2.273
 Vibration     4          0.641              1.831              2.075
 Vibration     5          0.666              1.753              1.691
 Vibration     6          0.715              1.608              1.242
 Vibration     7          0.773              1.453              0.933
 Vibration     8          0.790              1.408              0.864
 Vibration     9          0.832              1.304              0.722
 Vibration    10          0.890              1.172              0.576

 Optimization completed.
    -- Stationary point found.
 Normal termination of Gaussian 09 at Mon Jan 27 17:08:52 2020.
