 Gaussian 09, Revision D.01,
 Gaussian 09:  ES64L-G09RevD.01 24-Apr-2013

 -----------------------------
 # b3lyp 6-31G(2df,p) opt Freq
 -----------------------------

 -----
 titel
 -----
 Symbolic Z-matrix:
 Charge =  0 Multiplicity = 1

 SCF Done:  E(RB3LYP) =  -423.158307417     A.U. after   14 cycles
 Optimization completed.
    -- Stationary point found.
 Normal termination of Gaussian 09 at Mon Jan 27 13:14:49 2020.

 ----------------------------------------------------------------------
 #N Geom=AllCheck Guess=TCheck SCRF=Check GenChk RB3LYP/6-31G(2df,p) Fr
 eq
 ----------------------------------------------------------------------

 Structure from the checkpoint file:  "/scratch/puck/g09_bf91a7da-bb5c-4d85-9215-48f325a97c5e/Gau-169560.chk"
 -----
 titel
 -----
 Charge =  0 Multiplicity = 1

                         Standard orientation:
 ---------------------------------------------------------------------
 Center     Atomic      Atomic             Coordinates (Angstroms)
 Number     Number       Type             X           Y           Z
 ---------------------------------------------------------------------
      1          8           0       -2.995229   -1.042718   -0.513917
      2          6           0       -2.440515    0.020054   -0.621662
      3          6           0       -1.514182    0.612223    0.421152
      4          6           0       -0.616002   -0.357623    1.204710
      5          6           0        0.552948    0.411850    0.541434
      6          8           0       -0.382642    1.242061   -0.214354
      7          6           0        1.500658   -0.344312   -0.335026
      8          6           0        2.788394    0.300601   -0.783509
      9          6           0        2.822064   -0.808138    0.233983
     10          1           0       -2.554792    0.661065   -1.524748
     11          1           0       -2.089129    1.324758    1.033884
     12          1           0       -0.674319   -0.292703    2.290903
     13          1           0       -0.722201   -1.398679    0.895143
     14          1           0        1.116134    1.038336    1.246949
     15          1           0        1.015483   -1.008731   -1.045126
     16          1           0        3.137312    0.091859   -1.788254
     17          1           0        2.992045    1.310460   -0.443129
     18          1           0        3.191276   -1.781300   -0.068288
     19          1           0        3.050971   -0.547745    1.262341
 ---------------------------------------------------------------------

 SCF Done:  E(RB3LYP) =  -423.158307417     A.U. after    1 cycles

 The electronic state is 1-A.
 Alpha  occ. eigenvalues --  -19.14726 -19.14156 -10.27320 -10.24542 -10.24377
 Alpha  occ. eigenvalues --  -10.19574 -10.19459 -10.19326 -10.19084  -1.05695
 Alpha  occ. eigenvalues --   -1.04166  -0.86399  -0.75551  -0.73046  -0.63863
 Alpha  occ. eigenvalues --   -0.60529  -0.57214  -0.55365  -0.50854  -0.50024
 Alpha  occ. eigenvalues --   -0.48241  -0.47296  -0.44678  -0.43256  -0.39910
 Alpha  occ. eigenvalues --   -0.38800  -0.37036  -0.37003  -0.34788  -0.32210
 Alpha  occ. eigenvalues --   -0.30403  -0.28784  -0.27779  -0.24227
 Alpha virt. eigenvalues --   -0.02941   0.07701   0.08825   0.09335   0.10539
 Alpha virt. eigenvalues --    0.12607   0.13565   0.14374   0.15617   0.16243
 Alpha virt. eigenvalues --    0.16729   0.17394   0.18860   0.22052   0.22497

 Mulliken charges:
               1
     1  O   -0.237492
     2  C    0.134867
     3  C    0.059233
     4  C   -0.326379
     5  C    0.141128
     6  O   -0.315892
     7  C    0.019428
     8  C   -0.267076
     9  C   -0.272201
    10  H    0.091479
    11  H    0.098818
    12  H    0.114737
    13  H    0.130021
    14  H    0.072500
    15  H    0.087772
    16  H    0.118121
    17  H    0.118769
    18  H    0.118133
    19  H    0.114033
 Sum of Mulliken charges =   0.00000

 Dipole moment (field-independent basis, Debye):
    X=              1.6603    Y=              0.5899    Z=              1.1431  Tot=              2.1003
 Quadrupole moment (field-independent basis, Debye-Ang):
   XX=            -56.7113   YY=            -55.9834   ZZ=            -50.7271
   XY=             -6.1134   XZ=             -1.4814   YZ=              1.2055

  Exact polarizability:  91.157   0.579  69.008   0.893  -1.495  69.653
 Approx polarizability: 114.009   6.074 110.594   1.824  -3.747 101.722

                      1                      2                      3
                      A                      A                      A
 Frequencies --     32.8928                74.7934                83.2225
 Red. masses --      6.9221                 2.9655                 2.7400
 Frc consts  --      0.0044                 0.0098                 0.0112
 IR Inten    --      2.9925                 0.1068                 7.2489

                      4                      5                      6
                      A                      A                      A
 Frequencies --    181.3405               229.7874               268.6722
 Red. masses --      2.7750                 4.0637                 2.6523
 Frc consts  --      0.0538                 0.1264                 0.1128
 IR Inten    --      3.3622                 9.8471                 1.9025

                      7                      8                      9
                      A                      A                      A
 Frequencies --    369.0068               375.4100               460.0778
 Red. masses --      3.7507                 2.7722                 2.9853
 Frc consts  --      0.3009                 0.2302                 0.3723
 IR Inten    --      1.2458                 3.2652                 5.5652

                     10                     11                     12
                      A                      A                      A
 Frequencies --    587.4585               726.8745               772.6415
 Red. masses --      3.4735                 2.1604                 1.5435
 Frc consts  --      0.7063                 0.6725                 0.5429
 IR Inten    --      3.8576                11.1232                16.1547

                     13                     14                     15
                      A                      A                      A
 Frequencies --    810.6750               832.4916               887.4708
 Red. masses --      1.5010                 1.2599                 3.0518
 Frc consts  --      0.5812                 0.5145                 1.4162
 IR Inten    --      6.3480                 2.1405                 1.4710

                     16                     17                     18
                      A                      A                      A
 Frequencies --    905.5025               923.8075               934.8980
 Red. masses --      1.6198                 3.7188                 3.1881
 Frc consts  --      0.7825                 1.8699                 1.6417
 IR Inten    --      7.5692                11.7726                 5.1003

                     19                     20                     21
                      A                      A                      A
 Frequencies --    986.7012              1003.1801              1036.2652
 Red. masses --      2.4650                 2.0346                 3.5717
 Frc consts  --      1.4140                 1.2064                 2.2598
 IR Inten    --     30.5493                91.8261                60.3067

                     22                     23                     24
                      A                      A                      A
 Frequencies --   1057.5377              1063.4677              1082.4312
 Red. masses --      2.1437                 1.3194                 1.3595
 Frc consts  --      1.4125                 0.8792                 0.9385
 IR Inten    --      4.4240                 9.1851                 1.2983

                     25                     26                     27
                      A                      A                      A
 Frequencies --   1106.8011              1131.2583              1132.6701
 Red. masses --      2.1307                 1.5513                 1.2487
 Frc consts  --      1.5378                 1.1697                 0.9439
 IR Inten    --      7.4646                 2.6042                 1.2295

                     28                     29                     30
                      A                      A                      A
 Frequencies --   1196.6782              1222.1049              1230.4416
 Red. masses --      1.3743                 2.2466                 1.6141
 Frc consts  --      1.1596                 1.9770                 1.4398
 IR Inten    --      0.2920                 0.6970                 9.0695

                     31                     32                     33
                      A                      A                      A
 Frequencies --   1249.7734              1251.9758              1299.5157
 Red. masses --      1.5446                 1.2805                 1.3945
 Frc consts  --      1.4214                 1.1826                 1.3875
 IR Inten    --      5.0477                 3.1781                 9.5863

                     34                     35                     36
                      A                      A                      A
 Frequencies --   1327.7240              1351.1843              1403.4066
 Red. masses --      1.3081                 1.6652                 1.2297
 Frc consts  --      1.3586                 1.7912                 1.4269
 IR Inten    --     12.4684                 2.6553                 7.4813

                     37                     38                     39
                      A                      A                      A
 Frequencies --   1443.8308              1471.0622              1496.0645
 Red. masses --      1.6140                 1.0864                 1.1245
 Frc consts  --      1.9824                 1.3852                 1.4829
 IR Inten    --     20.8206                 1.4650                 6.7540

                     40                     41                     42
                      A                      A                      A
 Frequencies --   1506.7682              1832.8404              2887.5211
 Red. masses --      1.4154                10.7258                 1.0837
 Frc consts  --      1.8933                21.2289                 5.3237
 IR Inten    --      1.1603               132.8247                93.8211

                     43                     44                     45
                      A                      A                      A
 Frequencies --   2979.1464              3006.2825              3089.0905
 Red. masses --      1.0820                 1.0855                 1.0593
 Frc consts  --      5.6582                 5.7801                 5.9559
 IR Inten    --     52.1381                39.9798                13.4724

                     46                     47                     48
                      A                      A                      A
 Frequencies --   3133.2598              3137.4714              3144.1299
 Red. masses --      1.0515                 1.0593                 1.0927
 Frc consts  --      6.0820                 6.1435                 6.3644
 IR Inten    --     17.0608                15.2391                 2.2934

                     49                     50                     51
                      A                      A                      A
 Frequencies --   3147.6485              3212.4577              3227.2148
 Red. masses --      1.1041                 1.1174                 1.1153
 Frc consts  --      6.4452                 6.7943                 6.8436
 IR Inten    --     16.5776                 0.3742                16.3840

 - Thermochemistry -
 -------------------
 Temperature   298.150 Kelvin.  Pressure   1.00000 Atm.
 Atom     1 has atomic number  8 and mass  15.99491

 Molecular mass:   126.06808 amu.
 Principal axes and moments of inertia in atomic units:
                           1         2         3
     Eigenvalues --   468.552992073.055792118.95406
           X            0.99988  -0.01415  -0.00656
           Y            0.01389   0.99919  -0.03781
           Z            0.00709   0.03771   0.99926
 This molecule is an asymmetric top.
 Rotational symmetry number  1.
 Warning -- assumption of classical behavior for rotation
           may cause significant error
 Rotational temperatures (Kelvin)      0.18485     0.04178     0.04088
 Rotational constants (GHZ):           3.85173     0.87057     0.85171
 Zero-point vibrational energy     414535.5 (Joules/Mol)
                                   99.07637 (Kcal/Mol)
 Warning -- explicit consideration of  10 degrees of freedom as
           vibrations may cause significant error
 Vibrational temperatures:     47.33   107.61   119.74   260.91   330.61
          (Kelvin)            386.56   530.92   540.13   661.95   845.22
                             1045.81  1111.66  1166.38  1197.77  1276.87
                             1302.81  1329.15  1345.11  1419.64  1443.35
                             1490.95  1521.56  1530.09  1557.38  1592.44
                             1627.63  1629.66  1721.75  1758.33  1770.33
                             1798.14  1801.31  1869.71  1910.30  1944.05
                             2019.19  2077.35  2116.53  2152.50  2167.90
                             2637.05  4154.49  4286.32  4325.36  4444.51
                             4508.06  4514.12  4523.70  4528.76  4622.00
                             4643.24

 Zero-point correction=                           0.157888 (Hartree/Particle)
 Thermal correction to Energy=                    0.166743
 Thermal correction to Enthalpy=                  0.167687
 Thermal correction to Gibbs Free Energy=         0.122746
 Sum of electronic and zero-point Energies=           -423.000419
 Sum of electronic and thermal Energies=              -422.991565
 Sum of electronic and thermal Enthalpies=            -422.990621
 Sum of electronic and thermal Free Energies=         -423.035561

                     E (Thermal)             CV                S
                      KCal/Mol        Cal/Mol-Kelvin    Cal/Mol-Kelvin
 Total                  104.633             31.962             94.586
 Electronic               0.000              0.000              0.000
 Translational            0.889              2.981             40.409
 Rotational               0.889              2.981             29.111
 Vibrational            102.855             26.001             25.066
 Vibration     1          0.594              1.983              5.647
 Vibration     2          0.599              1.966              4.023
 Vibration     3          0.600              1.961              3.813
 Vibration     4          0.630              1.865              2.315
 Vibration     5          0.652              1.796              1.881
 Vibration     6          0.673              1.731              1.605
 Vibration     7          0.741              1.536              1.084
 Vibration     8          0.746              1.522              1.058
 Vibration     9          0.818              1.339              0.766
 Vibration    10          0.945              1.059              0.472

 Normal termination of Gaussian 09 at Mon Jan 27 13:52:49 2020.
