 Gaussian 09, Revision D.01,
 Gaussian 09:  ES64L-G09RevD.01 24-Apr-2013

 -----------------------------
 # b3lyp 6-31G(2df,p) opt Freq
 -----------------------------

 -----
 titel
 -----
 Symbolic Z-matrix:
 Charge =  0 Multiplicity = 1

 SCF Done:  E(RB3LYP) =  -423.156768714     A.U. after   14 cycles
 Optimization completed.
    -- Stationary point found.
 Normal termination of Gaussian 09 at Tue Jan 28 01:59:43 2020.

 ----------------------------------------------------------------------
 #N Geom=AllCheck Guess=TCheck SCRF=Check GenChk RB3LYP/6-31G(2df,p) Fr
 eq
 ----------------------------------------------------------------------

 Structure from the checkpoint file:  "/scratch/puck/g09_d09cbc98-4467-481f-96e7-8232a92d599d/Gau-26681.chk"
 -----
 titel
 -----
 Charge =  0 Multiplicity = 1

                         Standard orientation:
 ---------------------------------------------------------------------
 Center     Atomic      Atomic             Coordinates (Angstroms)
 Number     Number       Type             X           Y           Z
 ---------------------------------------------------------------------
      1          6           0       -2.921479   -0.205845   -0.443774
      2          6           0       -1.530722   -0.799912   -0.420380
      3          6           0       -0.871809   -1.167541    0.905229
      4          6           0       -0.388265    0.005370    0.113584
      5          8           0       -0.560544    1.346367    0.576185
      6          6           0        0.658850    1.752363   -0.079272
      7          6           0        0.977257    0.301112   -0.523271
      8          6           0        2.141071   -0.332391    0.193142
      9          8           0        2.980133   -1.017688   -0.331660
     10          1           0       -3.046619    0.520658    0.363575
     11          1           0       -3.109724    0.316257   -1.387916
     12          1           0       -3.684329   -0.982984   -0.330092
     13          1           0       -1.289620   -1.452882   -1.256575
     14          1           0       -1.420950   -0.938376    1.813432
     15          1           0       -0.258109   -2.061232    0.958724
     16          1           0        0.474287    2.446895   -0.905827
     17          1           0        1.367390    2.203024    0.625458
     18          1           0        1.055374    0.122966   -1.596366
     19          1           0        2.166174   -0.122696    1.287838
 ---------------------------------------------------------------------

 SCF Done:  E(RB3LYP) =  -423.156768714     A.U. after    1 cycles

 The electronic state is 1-A.
 Alpha  occ. eigenvalues --  -19.14846 -19.14562 -10.27631 -10.25400 -10.25014
 Alpha  occ. eigenvalues --  -10.20917 -10.19810 -10.19030 -10.18096  -1.05920
 Alpha  occ. eigenvalues --   -1.05093  -0.86246  -0.78016  -0.71478  -0.66064
 Alpha  occ. eigenvalues --   -0.61411  -0.57866  -0.54378  -0.52111  -0.48618
 Alpha  occ. eigenvalues --   -0.48064  -0.44090  -0.43998  -0.41750  -0.41184
 Alpha  occ. eigenvalues --   -0.40934  -0.39453  -0.36402  -0.35938  -0.34482
 Alpha  occ. eigenvalues --   -0.32669  -0.28534  -0.26000  -0.23635
 Alpha virt. eigenvalues --   -0.03147   0.06617   0.09685   0.10597   0.11439
 Alpha virt. eigenvalues --    0.12727   0.13151   0.13893   0.14336   0.15702
 Alpha virt. eigenvalues --    0.17346   0.17792   0.18652   0.19693   0.22635

 Mulliken charges:
               1
     1  C   -0.406523
     2  C   -0.077596
     3  C   -0.370730
     4  C    0.439257
     5  O   -0.298327
     6  C   -0.096814
     7  C   -0.237517
     8  C    0.171557
     9  O   -0.256172
    10  H    0.134659
    11  H    0.119350
    12  H    0.119631
    13  H    0.092785
    14  H    0.126413
    15  H    0.122960
    16  H    0.118085
    17  H    0.113159
    18  H    0.102572
    19  H    0.083252
 Sum of Mulliken charges =   0.00000

 Dipole moment (field-independent basis, Debye):
    X=             -1.2909    Y=              0.7638    Z=             -0.2303  Tot=              1.5175
 Quadrupole moment (field-independent basis, Debye-Ang):
   XX=            -60.7852   YY=            -53.6469   ZZ=            -52.1418
   XY=              6.8665   XZ=              2.7014   YZ=             -2.2047

  Exact polarizability:  88.929   0.207  74.209   1.104  -1.107  68.058
 Approx polarizability: 115.795  -5.408 109.524  -3.145   2.780 105.142

                      1                      2                      3
                      A                      A                      A
 Frequencies --     55.3385                64.3849               129.5939
 Red. masses --      5.3542                 3.4375                 2.9507
 Frc consts  --      0.0097                 0.0084                 0.0292
 IR Inten    --      4.7143                 5.4079                 0.5756

                      4                      5                      6
                      A                      A                      A
 Frequencies --    177.6765               192.9416               263.5613
 Red. masses --      1.0699                 3.2106                 2.5482
 Frc consts  --      0.0199                 0.0704                 0.1043
 IR Inten    --      0.8234                 3.2775                 1.6579

                      7                      8                      9
                      A                      A                      A
 Frequencies --    294.0825               370.5700               412.3701
 Red. masses --      2.8070                 2.4911                 2.1178
 Frc consts  --      0.1430                 0.2015                 0.2122
 IR Inten    --      4.4757                 0.9737                 0.5091

                     10                     11                     12
                      A                      A                      A
 Frequencies --    459.9564               550.7163               584.2386
 Red. masses --      5.8743                 3.5575                 3.6375
 Frc consts  --      0.7322                 0.6357                 0.7315
 IR Inten    --      8.8484                 2.6919                 1.1961

                     13                     14                     15
                      A                      A                      A
 Frequencies --    796.9319               858.6522               866.2259
 Red. masses --      2.3586                 1.5198                 1.9422
 Frc consts  --      0.8826                 0.6602                 0.8586
 IR Inten    --      5.9130                 3.1510                 9.6163

                     16                     17                     18
                      A                      A                      A
 Frequencies --    882.3393               884.7951               932.3065
 Red. masses --      1.8084                 1.9418                 2.8676
 Frc consts  --      0.8295                 0.8957                 1.4686
 IR Inten    --      4.2228                18.7216                 2.3532

                     19                     20                     21
                      A                      A                      A
 Frequencies --    984.5679               999.6304              1026.4275
 Red. masses --      2.0534                 1.6501                 3.5097
 Frc consts  --      1.1728                 0.9715                 2.1786
 IR Inten    --     10.9751                26.5273                66.6251

                     22                     23                     24
                      A                      A                      A
 Frequencies --   1054.0773              1070.6389              1111.6071
 Red. masses --      1.5525                 2.0726                 2.4484
 Frc consts  --      1.0163                 1.3997                 1.7825
 IR Inten    --     35.8660                 5.4517                 2.9370

                     25                     26                     27
                      A                      A                      A
 Frequencies --   1133.6566              1143.3758              1175.4601
 Red. masses --      1.8462                 2.1230                 1.3545
 Frc consts  --      1.3979                 1.6352                 1.1026
 IR Inten    --      2.6803                32.7479                 8.7762

                     28                     29                     30
                      A                      A                      A
 Frequencies --   1180.1165              1205.0931              1218.2124
 Red. masses --      1.6241                 2.1644                 1.3466
 Frc consts  --      1.3327                 1.8519                 1.1774
 IR Inten    --      5.2052                 8.3274                 0.6051

                     31                     32                     33
                      A                      A                      A
 Frequencies --   1282.1768              1316.0978              1351.6889
 Red. masses --      1.5219                 1.6527                 1.4711
 Frc consts  --      1.4741                 1.6866                 1.5836
 IR Inten    --     15.1951                15.2932                 8.9873

                     34                     35                     36
                      A                      A                      A
 Frequencies --   1406.2801              1421.5763              1428.6337
 Red. masses --      1.3271                 1.4402                 1.2162
 Frc consts  --      1.5463                 1.7148                 1.4625
 IR Inten    --      2.2951                 2.8920                 4.3671

                     37                     38                     39
                      A                      A                      A
 Frequencies --   1479.4991              1492.0042              1504.0299
 Red. masses --      1.4722                 1.0562                 1.1483
 Frc consts  --      1.8987                 1.3853                 1.5305
 IR Inten    --     17.9320                 1.5042                 9.7829

                     40                     41                     42
                      A                      A                      A
 Frequencies --   1524.3106              1831.0323              2865.4349
 Red. masses --      1.1839                10.2678                 1.0824
 Frc consts  --      1.6207                20.2825                 5.2365
 IR Inten    --      1.6922               195.1671                78.5636

                     43                     44                     45
                      A                      A                      A
 Frequencies --   3026.5481              3035.4955              3074.3410
 Red. masses --      1.0553                 1.0358                 1.1113
 Frc consts  --      5.6952                 5.6233                 6.1884
 IR Inten    --     68.7094                32.0803                24.7365

                     46                     47                     48
                      A                      A                      A
 Frequencies --   3096.1324              3112.2950              3113.8986
 Red. masses --      1.1015                 1.0880                 1.0953
 Frc consts  --      6.2212                 6.2090                 6.2572
 IR Inten    --     22.5153                13.7634                 3.3438

                     49                     50                     51
                      A                      A                      A
 Frequencies --   3122.7492              3133.1574              3211.7255
 Red. masses --      1.0550                 1.0915                 1.1164
 Frc consts  --      6.0615                 6.3132                 6.7849
 IR Inten    --      5.6004                21.7992                 4.5126

 - Thermochemistry -
 -------------------
 Temperature   298.150 Kelvin.  Pressure   1.00000 Atm.
 Atom     1 has atomic number  6 and mass  12.00000

 Molecular mass:   126.06808 amu.
 Principal axes and moments of inertia in atomic units:
                           1         2         3
     Eigenvalues --   597.989071583.046901904.80552
           X            0.99941   0.03221   0.01219
           Y           -0.03182   0.99900  -0.03138
           Z           -0.01319   0.03097   0.99943
 This molecule is an asymmetric top.
 Rotational symmetry number  1.
 Warning -- assumption of classical behavior for rotation
           may cause significant error
 Rotational temperatures (Kelvin)      0.14484     0.05471     0.04547
 Rotational constants (GHZ):           3.01802     1.14004     0.94747
 Zero-point vibrational energy     412165.3 (Joules/Mol)
                                   98.50986 (Kcal/Mol)
 Warning -- explicit consideration of  12 degrees of freedom as
           vibrations may cause significant error
 Vibrational temperatures:     79.62    92.64   186.46   255.64   277.60
          (Kelvin)            379.21   423.12   533.17   593.31   661.77
                              792.36   840.59  1146.61  1235.41  1246.30
                             1269.49  1273.02  1341.38  1416.57  1438.24
                             1476.80  1516.58  1540.41  1599.35  1631.08
                             1645.06  1691.22  1697.92  1733.86  1752.73
                             1844.76  1893.57  1944.78  2023.32  2045.33
                             2055.48  2128.67  2146.66  2163.96  2193.14
                             2634.44  4122.72  4354.52  4367.40  4423.29
                             4454.64  4477.89  4480.20  4492.93  4507.91
                             4620.95

 Zero-point correction=                           0.156985 (Hartree/Particle)
 Thermal correction to Energy=                    0.166182
 Thermal correction to Enthalpy=                  0.167126
 Thermal correction to Gibbs Free Energy=         0.122185
 Sum of electronic and zero-point Energies=           -422.999783
 Sum of electronic and thermal Energies=              -422.990587
 Sum of electronic and thermal Enthalpies=            -422.989642
 Sum of electronic and thermal Free Energies=         -423.034584

                     E (Thermal)             CV                S
                      KCal/Mol        Cal/Mol-Kelvin    Cal/Mol-Kelvin
 Total                  104.281             33.155             94.588
 Electronic               0.000              0.000              0.000
 Translational            0.889              2.981             40.409
 Rotational               0.889              2.981             28.979
 Vibrational            102.503             27.194             25.200
 Vibration     1          0.596              1.975              4.617
 Vibration     2          0.597              1.971              4.318
 Vibration     3          0.612              1.924              2.952
 Vibration     4          0.628              1.870              2.353
 Vibration     5          0.635              1.850              2.199
 Vibration     6          0.670              1.740              1.638
 Vibration     7          0.689              1.685              1.450
 Vibration     8          0.743              1.533              1.077
 Vibration     9          0.776              1.443              0.918
 Vibration    10          0.818              1.339              0.766
 Vibration    11          0.906              1.138              0.543
 Vibration    12          0.941              1.065              0.478

 Optimization completed.
    -- Stationary point found.
 Normal termination of Gaussian 09 at Tue Jan 28 02:44:20 2020.
