 Gaussian 09, Revision D.01,
 Gaussian 09:  ES64L-G09RevD.01 24-Apr-2013

 -----------------------------
 # b3lyp 6-31G(2df,p) opt Freq
 -----------------------------

 -----
 titel
 -----
 Symbolic Z-matrix:
 Charge =  0 Multiplicity = 1

 SCF Done:  E(RB3LYP) =  -423.124769226     A.U. after   14 cycles
 Optimization completed.
    -- Stationary point found.
 Normal termination of Gaussian 09 at Mon Jan 27 18:37:06 2020.

 ----------------------------------------------------------------------
 #N Geom=AllCheck Guess=TCheck SCRF=Check GenChk RB3LYP/6-31G(2df,p) Fr
 eq
 ----------------------------------------------------------------------

 Structure from the checkpoint file:  "/scratch/puck/g09_d74208d0-e6e7-4dd8-a4c3-81564ff847a5/Gau-43159.chk"
 -----
 titel
 -----
 Charge =  0 Multiplicity = 1

                         Standard orientation:
 ---------------------------------------------------------------------
 Center     Atomic      Atomic             Coordinates (Angstroms)
 Number     Number       Type             X           Y           Z
 ---------------------------------------------------------------------
      1          6           0        1.398549   -1.353058   -1.026416
      2          6           0        0.847690   -0.442550    0.047470
      3          6           0        1.681287    0.828513    0.388361
      4          8           0        0.617812    1.721067   -0.061363
      5          6           0       -0.256124    0.624912   -0.185758
      6          6           0       -1.460379    0.426350   -1.080395
      7          8           0       -2.027600   -0.459412   -0.073694
      8          6           0       -1.090338   -0.024642    0.950972
      9          6           0        0.030398   -1.052904    1.230746
     10          1           0        1.765622   -0.782308   -1.886561
     11          1           0        2.234050   -1.951129   -0.642779
     12          1           0        0.631255   -2.048887   -1.381643
     13          1           0        1.912295    0.978547    1.449669
     14          1           0        2.588535    0.969964   -0.208212
     15          1           0       -2.074566    1.326678   -1.220274
     16          1           0       -1.315186   -0.074263   -2.044467
     17          1           0       -1.584084    0.500991    1.772760
     18          1           0        0.500483   -0.965130    2.215272
     19          1           0       -0.286605   -2.087433    1.076819
 ---------------------------------------------------------------------

 SCF Done:  E(RB3LYP) =  -423.124769226     A.U. after    1 cycles

 The electronic state is 1-A.
 Alpha  occ. eigenvalues --  -19.14539 -19.13890 -10.23788 -10.23685 -10.23164
 Alpha  occ. eigenvalues --  -10.22760 -10.20160 -10.18634 -10.18434  -1.05975
 Alpha  occ. eigenvalues --   -1.03064  -0.82461  -0.73603  -0.71778  -0.67575
 Alpha  occ. eigenvalues --   -0.62957  -0.59730  -0.51873  -0.49702  -0.49450
 Alpha  occ. eigenvalues --   -0.47032  -0.44773  -0.43219  -0.42059  -0.41367
 Alpha  occ. eigenvalues --   -0.40442  -0.38959  -0.34871  -0.33768  -0.33482
 Alpha  occ. eigenvalues --   -0.30236  -0.28629  -0.24812  -0.23968
 Alpha virt. eigenvalues --    0.06130   0.08186   0.09652   0.10787   0.11681
 Alpha virt. eigenvalues --    0.12960   0.14187   0.14690   0.15820   0.16024
 Alpha virt. eigenvalues --    0.17444   0.17796   0.18831   0.19643   0.21096

 Mulliken charges:
               1
     1  C   -0.497654
     2  C    0.230470
     3  C   -0.144063
     4  O   -0.328148
     5  C    0.382758
     6  C   -0.173404
     7  O   -0.297691
     8  C    0.050352
     9  C   -0.319567
    10  H    0.121751
    11  H    0.121876
    12  H    0.129160
    13  H    0.104994
    14  H    0.109934
    15  H    0.110209
    16  H    0.107728
    17  H    0.077572
    18  H    0.099886
    19  H    0.113837
 Sum of Mulliken charges =   0.00000

 Dipole moment (field-independent basis, Debye):
    X=              1.6555    Y=             -0.7569    Z=              0.1350  Tot=              1.8253
 Quadrupole moment (field-independent basis, Debye-Ang):
   XX=            -54.4819   YY=            -57.0098   ZZ=            -50.0945
   XY=             -3.0934   XZ=              0.9063   YZ=              0.1670

  Exact polarizability:  79.646  -1.788  69.114   1.761  -1.053  74.679
 Approx polarizability: 111.269   1.110 104.165   2.995  -3.340 108.297

                      1                      2                      3
                      A                      A                      A
 Frequencies --    102.8336               191.4184               214.1753
 Red. masses --      3.3596                 2.3796                 1.0757
 Frc consts  --      0.0209                 0.0514                 0.0291
 IR Inten    --      0.5606                 0.2557                 0.0329

                      4                      5                      6
                      A                      A                      A
 Frequencies --    247.2740               335.6386               352.6342
 Red. masses --      3.0245                 2.0779                 3.2013
 Frc consts  --      0.1090                 0.1379                 0.2345
 IR Inten    --      7.5257                 0.2843                 3.5947

                      7                      8                      9
                      A                      A                      A
 Frequencies --    384.6903               472.3421               503.5237
 Red. masses --      2.4024                 2.0369                 4.9263
 Frc consts  --      0.2095                 0.2678                 0.7359
 IR Inten    --      3.0695                 1.7783                 1.1884

                     10                     11                     12
                      A                      A                      A
 Frequencies --    617.5236               709.0353               755.6894
 Red. masses --      3.8633                 3.6398                 2.6455
 Frc consts  --      0.8680                 1.0781                 0.8901
 IR Inten    --      0.9933                 7.3118                 1.9201

                     13                     14                     15
                      A                      A                      A
 Frequencies --    819.4230               842.3372               900.5425
 Red. masses --      3.4535                 2.4547                 2.0911
 Frc consts  --      1.3662                 1.0262                 0.9991
 IR Inten    --      5.9823                 0.6902                 5.4229

                     16                     17                     18
                      A                      A                      A
 Frequencies --    920.3773               947.9647               973.3954
 Red. masses --      1.8927                 1.6259                 5.8726
 Frc consts  --      0.9446                 0.8609                 3.2784
 IR Inten    --      8.7638                 6.0716                66.4688

                     19                     20                     21
                      A                      A                      A
 Frequencies --    978.0849               983.3038              1004.9576
 Red. masses --      3.6626                 2.4483                 2.0086
 Frc consts  --      2.0644                 1.3947                 1.1952
 IR Inten    --     37.1921                37.0669                 2.0079

                     22                     23                     24
                      A                      A                      A
 Frequencies --   1080.0478              1112.0467              1122.1305
 Red. masses --      2.1976                 1.8799                 1.7938
 Frc consts  --      1.5103                 1.3697                 1.3308
 IR Inten    --     14.6487                 1.3848                 4.8197

                     25                     26                     27
                      A                      A                      A
 Frequencies --   1133.9127              1155.3047              1164.3846
 Red. masses --      2.0844                 1.2081                 1.5472
 Frc consts  --      1.5791                 0.9501                 1.2359
 IR Inten    --     11.0990                 1.0311                12.8358

                     28                     29                     30
                      A                      A                      A
 Frequencies --   1220.8834              1248.8492              1254.1843
 Red. masses --      1.8413                 2.4611                 1.6857
 Frc consts  --      1.6171                 2.2615                 1.5623
 IR Inten    --     13.2223                21.1988                 8.4658

                     31                     32                     33
                      A                      A                      A
 Frequencies --   1273.4926              1289.0731              1315.2811
 Red. masses --      2.6855                 1.5088                 1.6155
 Frc consts  --      2.5661                 1.4772                 1.6466
 IR Inten    --      9.8460                 5.2715                22.4252

                     34                     35                     36
                      A                      A                      A
 Frequencies --   1355.0029              1373.1740              1407.9133
 Red. masses --      2.2346                 1.9548                 1.2823
 Frc consts  --      2.4173                 2.1717                 1.4976
 IR Inten    --      4.8825                29.0414                 2.9899

                     37                     38                     39
                      A                      A                      A
 Frequencies --   1462.2829              1489.9966              1494.0634
 Red. masses --      1.1150                 1.0501                 1.0574
 Frc consts  --      1.4047                 1.3735                 1.3907
 IR Inten    --      5.0370                 4.6987                 3.6537

                     40                     41                     42
                      A                      A                      A
 Frequencies --   1513.8775              1517.4460              3006.1981
 Red. masses --      1.0989                 1.1306                 1.0584
 Frc consts  --      1.4838                 1.5339                 5.6356
 IR Inten    --      1.3977                 2.5909                70.5112

                     43                     44                     45
                      A                      A                      A
 Frequencies --   3020.8467              3024.7626              3049.5863
 Red. masses --      1.0418                 1.0499                 1.0606
 Frc consts  --      5.6012                 5.6596                 5.8113
 IR Inten    --     31.5857                47.0017                28.7987

                     46                     47                     48
                      A                      A                      A
 Frequencies --   3063.5571              3074.4508              3078.3885
 Red. masses --      1.1061                 1.0887                 1.1106
 Frc consts  --      6.1166                 6.0629                 6.2006
 IR Inten    --     36.4962                39.2396                38.3341

                     49                     50                     51
                      A                      A                      A
 Frequencies --   3085.5203              3098.6737              3112.0388
 Red. masses --      1.1000                 1.1017                 1.1059
 Frc consts  --      6.1704                 6.2324                 6.3104
 IR Inten    --     21.7764                21.5198                20.6783

 - Thermochemistry -
 -------------------
 Temperature   298.150 Kelvin.  Pressure   1.00000 Atm.
 Atom     1 has atomic number  6 and mass  12.00000

 Molecular mass:   126.06808 amu.
 Principal axes and moments of inertia in atomic units:
                           1         2         3
     Eigenvalues --   721.495441027.906721170.39223
           X            0.99749  -0.07070  -0.00399
           Y            0.07081   0.99643   0.04593
           Z            0.00073  -0.04610   0.99894
 This molecule is an asymmetric top.
 Rotational symmetry number  1.
 Warning -- assumption of classical behavior for rotation
           may cause significant error
 Rotational temperatures (Kelvin)      0.12005     0.08426     0.07400
 Rotational constants (GHZ):           2.50139     1.75574     1.54200
 Zero-point vibrational energy     417822.9 (Joules/Mol)
                                   99.86207 (Kcal/Mol)
 Warning -- explicit consideration of  10 degrees of freedom as
           vibrations may cause significant error
 Vibrational temperatures:    147.95   275.41   308.15   355.77   482.91
          (Kelvin)            507.36   553.48   679.59   724.46   888.48
                             1020.14  1087.27  1178.97  1211.93  1295.68
                             1324.22  1363.91  1400.50  1407.24  1414.75
                             1445.91  1553.95  1599.99  1614.49  1631.45
                             1662.22  1675.29  1756.58  1796.81  1804.49
                             1832.27  1854.69  1892.39  1949.54  1975.69
                             2025.67  2103.90  2143.77  2149.62  2178.13
                             2183.26  4325.24  4346.32  4351.95  4387.67
                             4407.77  4423.44  4429.11  4439.37  4458.29
                             4477.52

 Zero-point correction=                           0.159140 (Hartree/Particle)
 Thermal correction to Energy=                    0.166892
 Thermal correction to Enthalpy=                  0.167836
 Thermal correction to Gibbs Free Energy=         0.127175
 Sum of electronic and zero-point Energies=           -422.965629
 Sum of electronic and thermal Energies=              -422.957878
 Sum of electronic and thermal Enthalpies=            -422.956933
 Sum of electronic and thermal Free Energies=         -422.997594

                     E (Thermal)             CV                S
                      KCal/Mol        Cal/Mol-Kelvin    Cal/Mol-Kelvin
 Total                  104.726             30.566             85.578
 Electronic               0.000              0.000              0.000
 Translational            0.889              2.981             40.409
 Rotational               0.889              2.981             28.253
 Vibrational            102.949             24.605             16.916
 Vibration     1          0.605              1.947              3.400
 Vibration     2          0.634              1.852              2.214
 Vibration     3          0.644              1.819              2.008
 Vibration     4          0.661              1.767              1.750
 Vibration     5          0.717              1.604              1.233
 Vibration     6          0.729              1.570              1.154
 Vibration     7          0.754              1.503              1.021
 Vibration     8          0.829              1.311              0.731
 Vibration     9          0.859              1.242              0.649
 Vibration    10          0.977              0.995              0.420

 Optimization completed.
    -- Stationary point found.
 Normal termination of Gaussian 09 at Mon Jan 27 19:34:10 2020.
