 Gaussian 09, Revision D.01,
 Gaussian 09:  ES64L-G09RevD.01 24-Apr-2013

 -----------------------------
 # b3lyp 6-31G(2df,p) opt Freq
 -----------------------------

 -----
 titel
 -----
 Symbolic Z-matrix:
 Charge =  0 Multiplicity = 1

 SCF Done:  E(RB3LYP) =  -423.187164082     A.U. after   14 cycles
 Optimization completed.
    -- Stationary point found.
 Normal termination of Gaussian 09 at Mon Jan 27 17:58:50 2020.

 ----------------------------------------------------------------------
 #N Geom=AllCheck Guess=TCheck SCRF=Check GenChk RB3LYP/6-31G(2df,p) Fr
 eq
 ----------------------------------------------------------------------

 Structure from the checkpoint file:  "/scratch/puck/g09_faa53c0d-8c92-430d-a726-d040706206a2/Gau-51926.chk"
 -----
 titel
 -----
 Charge =  0 Multiplicity = 1

                         Standard orientation:
 ---------------------------------------------------------------------
 Center     Atomic      Atomic             Coordinates (Angstroms)
 Number     Number       Type             X           Y           Z
 ---------------------------------------------------------------------
      1          6           0       -0.410293    2.035037   -0.287513
      2          6           0        0.322946    0.777086    0.112490
      3          6           0        1.717570    0.854551    0.692293
      4          6           0        1.497912    0.199986   -0.648248
      5          6           0        1.333301   -1.304196   -0.611097
      6          8           0        0.424596   -1.563099    0.465761
      7          6           0       -0.452587   -0.452335    0.608449
      8          6           0       -1.748515   -0.701558   -0.160503
      9          8           0       -2.743928   -0.034817   -0.045105
     10          1           0       -1.131433    1.856485   -1.089683
     11          1           0       -0.963960    2.455406    0.558511
     12          1           0        0.300559    2.792069   -0.631813
     13          1           0        2.185263    1.833146    0.702042
     14          1           0        1.971213    0.219034    1.535290
     15          1           0        1.867951    0.666252   -1.553883
     16          1           0        0.929670   -1.671493   -1.567644
     17          1           0        2.252288   -1.857431   -0.390925
     18          1           0       -0.714803   -0.373004    1.671446
     19          1           0       -1.704087   -1.588561   -0.833822
 ---------------------------------------------------------------------

 SCF Done:  E(RB3LYP) =  -423.187164082     A.U. after    1 cycles

 The electronic state is 1-A.
 Alpha  occ. eigenvalues --  -19.15104 -19.14490 -10.27114 -10.24369 -10.23789
 Alpha  occ. eigenvalues --  -10.21138 -10.20002 -10.19161 -10.18384  -1.05662
 Alpha  occ. eigenvalues --   -1.04462  -0.87318  -0.76596  -0.71004  -0.67863
 Alpha  occ. eigenvalues --   -0.60243  -0.58391  -0.55757  -0.50727  -0.48354
 Alpha  occ. eigenvalues --   -0.47816  -0.45377  -0.43780  -0.41869  -0.40922
 Alpha  occ. eigenvalues --   -0.40604  -0.39569  -0.38173  -0.36095  -0.32516
 Alpha  occ. eigenvalues --   -0.30541  -0.28481  -0.27917  -0.24078
 Alpha virt. eigenvalues --   -0.03042   0.09105   0.10509   0.10846   0.11387
 Alpha virt. eigenvalues --    0.12403   0.13668   0.14606   0.15282   0.16698
 Alpha virt. eigenvalues --    0.17504   0.18574   0.18752   0.20590   0.21371

 Mulliken charges:
               1
     1  C   -0.482046
     2  C    0.317079
     3  C   -0.332363
     4  C   -0.092906
     5  C   -0.106211
     6  O   -0.267049
     7  C   -0.040271
     8  C    0.129680
     9  O   -0.247950
    10  H    0.131970
    11  H    0.131772
    12  H    0.113912
    13  H    0.113285
    14  H    0.123663
    15  H    0.093060
    16  H    0.097380
    17  H    0.114910
    18  H    0.114432
    19  H    0.087653
 Sum of Mulliken charges =   0.00000

 Dipole moment (field-independent basis, Debye):
    X=              2.3977    Y=              0.5162    Z=             -0.8099  Tot=              2.5829
 Quadrupole moment (field-independent basis, Debye-Ang):
   XX=            -60.0048   YY=            -53.2311   ZZ=            -51.2774
   XY=              1.8745   XZ=             -1.2021   YZ=              1.4677

  Exact polarizability:  83.585  -2.893  76.004   0.087   4.697  65.380
 Approx polarizability: 120.169  -8.213 107.643  -1.611   5.987 102.129

                      1                      2                      3
                      A                      A                      A
 Frequencies --     58.2896               108.9948               181.5587
 Red. masses --      3.5325                 3.2434                 1.3226
 Frc consts  --      0.0071                 0.0227                 0.0257
 IR Inten    --     10.1624                 2.3695                 0.4033

                      4                      5                      6
                      A                      A                      A
 Frequencies --    199.3486               246.8280               321.7904
 Red. masses --      2.0545                 2.1982                 4.0165
 Frc consts  --      0.0481                 0.0789                 0.2450
 IR Inten    --      0.3768                 2.1926                 8.5002

                      7                      8                      9
                      A                      A                      A
 Frequencies --    330.9708               407.7630               429.7511
 Red. masses --      2.3100                 2.6835                 3.0737
 Frc consts  --      0.1491                 0.2629                 0.3345
 IR Inten    --      0.1669                 1.0614                12.2404

                     10                     11                     12
                      A                      A                      A
 Frequencies --    518.8642               588.1873               687.4537
 Red. masses --      3.9323                 3.7509                 3.7367
 Frc consts  --      0.6237                 0.7646                 1.0405
 IR Inten    --      8.9261                 0.3731                 3.7701

                     13                     14                     15
                      A                      A                      A
 Frequencies --    753.9685               832.1384               870.3710
 Red. masses --      3.9376                 2.0256                 2.4895
 Frc consts  --      1.3188                 0.8264                 1.1112
 IR Inten    --      4.9487                 1.3422                19.8570

                     16                     17                     18
                      A                      A                      A
 Frequencies --    900.1582               934.3391               948.5074
 Red. masses --      1.6475                 1.8169                 2.5824
 Frc consts  --      0.7865                 0.9345                 1.3688
 IR Inten    --      1.7593                 5.4497                11.7276

                     19                     20                     21
                      A                      A                      A
 Frequencies --    979.7959              1013.9831              1049.2886
 Red. masses --      1.5522                 1.7013                 1.7396
 Frc consts  --      0.8780                 1.0306                 1.1285
 IR Inten    --     11.4931                 3.6866                18.8996

                     22                     23                     24
                      A                      A                      A
 Frequencies --   1065.2475              1071.0730              1091.2160
 Red. masses --      2.3039                 1.5377                 1.9541
 Frc consts  --      1.5403                 1.0393                 1.3710
 IR Inten    --      2.9681                 4.6372                14.1868

                     25                     26                     27
                      A                      A                      A
 Frequencies --   1105.5307              1130.2113              1132.3742
 Red. masses --      2.7112                 1.8611                 2.1629
 Frc consts  --      1.9523                 1.4007                 1.6341
 IR Inten    --     39.4845                 8.8115                14.0899

                     28                     29                     30
                      A                      A                      A
 Frequencies --   1230.9705              1255.3756              1274.5526
 Red. masses --      1.1540                 1.4957                 1.9100
 Frc consts  --      1.0302                 1.3888                 1.8281
 IR Inten    --      8.4180                 3.4060                 0.3545

                     31                     32                     33
                      A                      A                      A
 Frequencies --   1291.4113              1314.0399              1371.8640
 Red. masses --      2.7736                 1.2495                 1.7504
 Frc consts  --      2.7254                 1.2711                 1.9410
 IR Inten    --      4.1324                 3.9423                 8.7289

                     34                     35                     36
                      A                      A                      A
 Frequencies --   1391.3052              1406.6248              1427.9829
 Red. masses --      1.3459                 1.3609                 1.3559
 Frc consts  --      1.5350                 1.5865                 1.6290
 IR Inten    --      2.9965                 2.3793                 2.9381

                     37                     38                     39
                      A                      A                      A
 Frequencies --   1481.6417              1488.6356              1498.0983
 Red. masses --      1.3389                 1.0453                 1.0983
 Frc consts  --      1.7317                 1.3649                 1.4523
 IR Inten    --      4.3125                 3.1971                 5.7164

                     40                     41                     42
                      A                      A                      A
 Frequencies --   1517.4283              1829.9813              2870.3234
 Red. masses --      1.0919                10.9194                 1.0835
 Frc consts  --      1.4813                21.5448                 5.2594
 IR Inten    --      0.3619               139.6052                89.5251

                     43                     44                     45
                      A                      A                      A
 Frequencies --   2983.0269              3032.0304              3039.3073
 Red. masses --      1.0695                 1.0826                 1.0372
 Frc consts  --      5.6071                 5.8637                 5.6448
 IR Inten    --     72.3115                19.1759                24.7601

                     46                     47                     48
                      A                      A                      A
 Frequencies --   3068.9764              3103.1582              3114.3466
 Red. masses --      1.0940                 1.1008                 1.1008
 Frc consts  --      6.0711                 6.2456                 6.2904
 IR Inten    --     38.2948                16.9228                15.1416

                     49                     50                     51
                      A                      A                      A
 Frequencies --   3125.5792              3181.8343              3215.1737
 Red. masses --      1.0542                 1.0921                 1.1162
 Frc consts  --      6.0680                 6.5141                 6.7981
 IR Inten    --     13.6866                 8.4610                 7.7023

 - Thermochemistry -
 -------------------
 Temperature   298.150 Kelvin.  Pressure   1.00000 Atm.
 Atom     1 has atomic number  6 and mass  12.00000

 Molecular mass:   126.06808 amu.
 Principal axes and moments of inertia in atomic units:
                           1         2         3
     Eigenvalues --   722.046431111.195861561.96419
           X            0.99999  -0.00494  -0.00008
           Y            0.00494   0.99984   0.01699
           Z            0.00000  -0.01699   0.99986
 This molecule is an asymmetric top.
 Rotational symmetry number  1.
 Warning -- assumption of classical behavior for rotation
           may cause significant error
 Rotational temperatures (Kelvin)      0.11996     0.07795     0.05545
 Rotational constants (GHZ):           2.49948     1.62414     1.15543
 Zero-point vibrational energy     415532.9 (Joules/Mol)
                                   99.31474 (Kcal/Mol)
 Warning -- explicit consideration of  11 degrees of freedom as
           vibrations may cause significant error
 Vibrational temperatures:     83.87   156.82   261.22   286.82   355.13
          (Kelvin)            462.98   476.19   586.68   618.32   746.53
                              846.27   989.09  1084.79  1197.26  1252.27
                             1295.13  1344.30  1364.69  1409.71  1458.89
                             1509.69  1532.65  1541.03  1570.01  1590.61
                             1626.12  1629.23  1771.09  1806.20  1833.79
                             1858.05  1890.61  1973.80  2001.78  2023.82
                             2054.55  2131.75  2141.81  2155.43  2183.24
                             2632.93  4129.75  4291.91  4362.41  4372.88
                             4415.57  4464.75  4480.84  4497.01  4577.94
                             4625.91

 Zero-point correction=                           0.158268 (Hartree/Particle)
 Thermal correction to Energy=                    0.166872
 Thermal correction to Enthalpy=                  0.167817
 Thermal correction to Gibbs Free Energy=         0.124736
 Sum of electronic and zero-point Energies=           -423.028896
 Sum of electronic and thermal Energies=              -423.020292
 Sum of electronic and thermal Enthalpies=            -423.019347
 Sum of electronic and thermal Free Energies=         -423.062428

                     E (Thermal)             CV                S
                      KCal/Mol        Cal/Mol-Kelvin    Cal/Mol-Kelvin
 Total                  104.714             32.178             90.672
 Electronic               0.000              0.000              0.000
 Translational            0.889              2.981             40.409
 Rotational               0.889              2.981             28.618
 Vibrational            102.937             26.216             21.645
 Vibration     1          0.596              1.974              4.514
 Vibration     2          0.606              1.942              3.287
 Vibration     3          0.630              1.865              2.312
 Vibration     4          0.637              1.841              2.139
 Vibration     5          0.661              1.768              1.753
 Vibration     6          0.707              1.632              1.301
 Vibration     7          0.713              1.614              1.255
 Vibration     8          0.772              1.453              0.935
 Vibration     9          0.791              1.405              0.859
 Vibration    10          0.874              1.208              0.613
 Vibration    11          0.945              1.057              0.470

 Optimization completed.
    -- Stationary point found.
 Normal termination of Gaussian 09 at Mon Jan 27 18:42:49 2020.
