 Gaussian 09, Revision D.01,
 Gaussian 09:  ES64L-G09RevD.01 24-Apr-2013

 -----------------------------
 # b3lyp 6-31G(2df,p) opt Freq
 -----------------------------

 -----
 titel
 -----
 Symbolic Z-matrix:
 Charge =  0 Multiplicity = 1

 SCF Done:  E(RB3LYP) =  -423.189766241     A.U. after   14 cycles
 Optimization completed.
    -- Stationary point found.
 Normal termination of Gaussian 09 at Tue Jan 28 03:15:26 2020.

 ----------------------------------------------------------------------
 #N Geom=AllCheck Guess=TCheck SCRF=Check GenChk RB3LYP/6-31G(2df,p) Fr
 eq
 ----------------------------------------------------------------------

 Structure from the checkpoint file:  "/scratch/puck/g09_1b0b4a7b-80fa-4eb2-9402-2f644cd6e083/Gau-89085.chk"
 -----
 titel
 -----
 Charge =  0 Multiplicity = 1

                         Standard orientation:
 ---------------------------------------------------------------------
 Center     Atomic      Atomic             Coordinates (Angstroms)
 Number     Number       Type             X           Y           Z
 ---------------------------------------------------------------------
      1          6           0        2.721505   -0.247055   -0.340600
      2          6           0        1.249519   -0.052729   -0.670271
      3          8           0        0.488369   -1.196054   -0.231207
      4          6           0       -0.428039   -0.651531    0.745697
      5          8           0        0.315774    0.366025    1.371829
      6          6           0        0.556672    1.092855    0.148903
      7          6           0       -0.847599    1.233746   -0.417884
      8          6           0       -1.491495    0.124556   -0.043195
      9          6           0       -2.838037   -0.405992   -0.392287
     10          1           0        3.091659   -1.173499   -0.788525
     11          1           0        3.317466    0.585004   -0.731673
     12          1           0        2.858180   -0.306744    0.742109
     13          1           0        1.100029    0.084750   -1.747334
     14          1           0       -0.730589   -1.435610    1.438321
     15          1           0        1.150694    1.987014    0.327538
     16          1           0       -1.175649    2.008677   -1.097503
     17          1           0       -2.749562   -1.353773   -0.938127
     18          1           0       -3.433259   -0.613630    0.505690
     19          1           0       -3.397264    0.294949   -1.017650
 ---------------------------------------------------------------------

 SCF Done:  E(RB3LYP) =  -423.189766241     A.U. after    1 cycles

 The electronic state is 1-A.
 Alpha  occ. eigenvalues --  -19.14463 -19.13583 -10.27493 -10.23886 -10.23195
 Alpha  occ. eigenvalues --  -10.19082 -10.18937 -10.18024 -10.17176  -1.09193
 Alpha  occ. eigenvalues --   -0.98345  -0.80575  -0.77908  -0.71911  -0.67816
 Alpha  occ. eigenvalues --   -0.60326  -0.58911  -0.54751  -0.51309  -0.49111
 Alpha  occ. eigenvalues --   -0.45926  -0.43010  -0.41566  -0.41397  -0.39866
 Alpha  occ. eigenvalues --   -0.39442  -0.38225  -0.37349  -0.36242  -0.33638
 Alpha  occ. eigenvalues --   -0.32075  -0.27575  -0.25714  -0.23619
 Alpha virt. eigenvalues --    0.00959   0.10674   0.10885   0.12115   0.12672
 Alpha virt. eigenvalues --    0.13438   0.15253   0.15299   0.16088   0.16486
 Alpha virt. eigenvalues --    0.16915   0.18808   0.19429   0.21263   0.22162

 Mulliken charges:
               1
     1  C   -0.407304
     2  C    0.152948
     3  O   -0.296179
     4  C    0.071109
     5  O   -0.234615
     6  C   -0.035317
     7  C   -0.219651
     8  C    0.356944
     9  C   -0.511334
    10  H    0.125024
    11  H    0.106997
    12  H    0.133800
    13  H    0.077141
    14  H    0.087833
    15  H    0.088391
    16  H    0.103518
    17  H    0.141036
    18  H    0.130798
    19  H    0.128860
 Sum of Mulliken charges =   0.00000

 Dipole moment (field-independent basis, Debye):
    X=             -0.7431    Y=              0.8723    Z=             -1.1368  Tot=              1.6142
 Quadrupole moment (field-independent basis, Debye-Ang):
   XX=            -49.0898   YY=            -52.6340   ZZ=            -54.6432
   XY=              2.6298   XZ=             -0.9469   YZ=             -3.1629

  Exact polarizability:  92.694   6.000  72.908  -1.462  -5.755  62.448
 Approx polarizability: 116.737  13.676 121.638  -4.511 -10.273  98.960

                      1                      2                      3
                      A                      A                      A
 Frequencies --    126.3704               174.9607               187.0443
 Red. masses --      3.0151                 1.1268                 2.5803
 Frc consts  --      0.0284                 0.0203                 0.0532
 IR Inten    --      1.8092                 0.1758                 1.2447

                      4                      5                      6
                      A                      A                      A
 Frequencies --    237.5007               268.5474               327.1201
 Red. masses --      1.0586                 2.6605                 2.6240
 Frc consts  --      0.0352                 0.1130                 0.1654
 IR Inten    --      0.0298                 0.2631                 0.3633

                      7                      8                      9
                      A                      A                      A
 Frequencies --    426.4251               450.9174               584.8170
 Red. masses --      3.5625                 3.4945                 4.3443
 Frc consts  --      0.3817                 0.4186                 0.8754
 IR Inten    --      4.6837                 0.2463                 7.4073

                     10                     11                     12
                      A                      A                      A
 Frequencies --    597.6020               673.7935               766.6615
 Red. masses --      3.9335                 4.2531                 3.8451
 Frc consts  --      0.8277                 1.1376                 1.3316
 IR Inten    --      2.8723                 4.2638                 2.8408

                     13                     14                     15
                      A                      A                      A
 Frequencies --    779.2704               808.3210               854.3037
 Red. masses --      1.9257                 3.6876                 2.9387
 Frc consts  --      0.6890                 1.4196                 1.2637
 IR Inten    --      0.8267                12.2424                18.0029

                     16                     17                     18
                      A                      A                      A
 Frequencies --    867.1495               886.0253               916.3335
 Red. masses --      2.8198                 4.3483                 2.7828
 Frc consts  --      1.2493                 2.0112                 1.3767
 IR Inten    --     23.2893               109.6201                27.2201

                     19                     20                     21
                      A                      A                      A
 Frequencies --    942.8165               974.5515              1008.9510
 Red. masses --      2.0607                 5.2200                 1.5183
 Frc consts  --      1.0793                 2.9210                 0.9107
 IR Inten    --     15.6892                25.9160                 3.6671

                     22                     23                     24
                      A                      A                      A
 Frequencies --   1056.7253              1061.6453              1075.4846
 Red. masses --      2.2239                 1.5784                 1.5597
 Frc consts  --      1.4631                 1.0481                 1.0629
 IR Inten    --     33.6078                 2.5129                 5.2250

                     25                     26                     27
                      A                      A                      A
 Frequencies --   1105.1722              1131.6374              1202.3930
 Red. masses --      3.6073                 2.3576                 2.3846
 Frc consts  --      2.5960                 1.7788                 2.0312
 IR Inten    --     27.3343                11.3269                 0.7743

                     28                     29                     30
                      A                      A                      A
 Frequencies --   1235.7667              1248.0772              1276.2335
 Red. masses --      1.3466                 1.3331                 1.2545
 Frc consts  --      1.2116                 1.2235                 1.2039
 IR Inten    --      0.5130                 0.8044                 0.9009

                     31                     32                     33
                      A                      A                      A
 Frequencies --   1297.9832              1327.6801              1345.4727
 Red. masses --      1.6634                 1.9781                 1.4691
 Frc consts  --      1.6512                 2.0544                 1.5670
 IR Inten    --      9.8786                 8.7781                11.5803

                     34                     35                     36
                      A                      A                      A
 Frequencies --   1378.4045              1401.9938              1411.6300
 Red. masses --      1.3075                 1.3185                 1.2748
 Frc consts  --      1.4637                 1.5269                 1.4967
 IR Inten    --      5.9540                 6.9650                 0.7442

                     37                     38                     39
                      A                      A                      A
 Frequencies --   1479.2513              1485.4558              1486.9552
 Red. masses --      1.0450                 1.0490                 1.0591
 Frc consts  --      1.3473                 1.3638                 1.3797
 IR Inten    --      6.2764                 4.1016                 7.2635

                     40                     41                     42
                      A                      A                      A
 Frequencies --   1498.4523              1698.9055              3019.7878
 Red. masses --      1.0467                 7.1503                 1.0376
 Frc consts  --      1.3847                12.1595                 5.5749
 IR Inten    --      3.0874                 5.5167                26.5470

                     43                     44                     45
                      A                      A                      A
 Frequencies --   3035.9580              3040.9308              3067.8809
 Red. masses --      1.0527                 1.0677                 1.0986
 Frc consts  --      5.7169                 5.8171                 6.0922
 IR Inten    --     23.2268                33.1437                14.8831

                     46                     47                     48
                      A                      A                      A
 Frequencies --   3108.7754              3112.5851              3129.7564
 Red. masses --      1.0996                 1.0993                 1.1023
 Frc consts  --      6.2611                 6.2748                 6.3618
 IR Inten    --     17.4865                16.6001                18.2139

                     49                     50                     51
                      A                      A                      A
 Frequencies --   3140.4544              3146.0136              3223.6073
 Red. masses --      1.0903                 1.0930                 1.0970
 Frc consts  --      6.3353                 6.3740                 6.7165
 IR Inten    --     46.2868                11.6014                 5.7506

 - Thermochemistry -
 -------------------
 Temperature   298.150 Kelvin.  Pressure   1.00000 Atm.
 Atom     1 has atomic number  6 and mass  12.00000

 Molecular mass:   126.06808 amu.
 Principal axes and moments of inertia in atomic units:
                           1         2         3
     Eigenvalues --   495.742761335.975141413.32953
           X            0.99990   0.01405  -0.00072
           Y           -0.01402   0.99131  -0.13082
           Z           -0.00113   0.13082   0.99141
 This molecule is an asymmetric top.
 Rotational symmetry number  1.
 Warning -- assumption of classical behavior for rotation
           may cause significant error
 Rotational temperatures (Kelvin)      0.17472     0.06483     0.06128
 Rotational constants (GHZ):           3.64048     1.35088     1.27694
 Zero-point vibrational energy     419234.6 (Joules/Mol)
                                  100.19947 (Kcal/Mol)
 Warning -- explicit consideration of  10 degrees of freedom as
           vibrations may cause significant error
 Vibrational temperatures:    181.82   251.73   269.11   341.71   386.38
          (Kelvin)            470.65   613.53   648.77   841.42   859.81
                              969.44  1103.05  1121.19  1162.99  1229.15
                             1247.63  1274.79  1318.40  1356.50  1402.16
                             1451.65  1520.39  1527.47  1547.38  1590.09
                             1628.17  1729.97  1777.99  1795.70  1836.21
                             1867.51  1910.23  1935.83  1983.21  2017.15
                             2031.02  2128.31  2137.24  2139.39  2155.94
                             2444.34  4344.80  4368.06  4375.22  4413.99
                             4472.83  4478.31  4503.02  4518.41  4526.41
                             4638.05

 Zero-point correction=                           0.159678 (Hartree/Particle)
 Thermal correction to Energy=                    0.167602
 Thermal correction to Enthalpy=                  0.168546
 Thermal correction to Gibbs Free Energy=         0.127569
 Sum of electronic and zero-point Energies=           -423.030088
 Sum of electronic and thermal Energies=              -423.022164
 Sum of electronic and thermal Enthalpies=            -423.021220
 Sum of electronic and thermal Free Energies=         -423.062197

                     E (Thermal)             CV                S
                      KCal/Mol        Cal/Mol-Kelvin    Cal/Mol-Kelvin
 Total                  105.172             31.134             86.244
 Electronic               0.000              0.000              0.000
 Translational            0.889              2.981             40.409
 Rotational               0.889              2.981             28.328
 Vibrational            103.394             25.172             17.507
 Vibration     1          0.611              1.927              3.001
 Vibration     2          0.627              1.873              2.382
 Vibration     3          0.632              1.858              2.257
 Vibration     4          0.656              1.783              1.822
 Vibration     5          0.673              1.731              1.606
 Vibration     6          0.711              1.621              1.274
 Vibration     7          0.788              1.413              0.870
 Vibration     8          0.810              1.359              0.793
 Vibration     9          0.942              1.064              0.477
 Vibration    10          0.956              1.037              0.454

 Normal termination of Gaussian 09 at Tue Jan 28 03:58:33 2020.
