 Gaussian 09, Revision D.01,
 Gaussian 09:  ES64L-G09RevD.01 24-Apr-2013

 -----------------------------
 # b3lyp 6-31G(2df,p) opt Freq
 -----------------------------

 -----
 titel
 -----
 Symbolic Z-matrix:
 Charge =  0 Multiplicity = 1

 SCF Done:  E(RB3LYP) =  -423.177902003     A.U. after   13 cycles
 Optimization completed.
    -- Stationary point found.
 Normal termination of Gaussian 09 at Tue Jan 28 02:58:49 2020.

 ----------------------------------------------------------------------
 #N Geom=AllCheck Guess=TCheck SCRF=Check GenChk RB3LYP/6-31G(2df,p) Fr
 eq
 ----------------------------------------------------------------------

 Structure from the checkpoint file:  "/scratch/puck/g09_00c6633c-a3a4-4f82-b6c4-af3e09af837b/Gau-29445.chk"
 -----
 titel
 -----
 Charge =  0 Multiplicity = 1

                         Standard orientation:
 ---------------------------------------------------------------------
 Center     Atomic      Atomic             Coordinates (Angstroms)
 Number     Number       Type             X           Y           Z
 ---------------------------------------------------------------------
      1          8           0       -2.470762   -0.536391   -0.140822
      2          6           0       -1.428551    0.165035    0.497944
      3          6           0       -0.842302    1.363190   -0.323231
      4          6           0        0.667056    1.136273   -0.254114
      5          6           0        1.198394   -0.157657   -0.954602
      6          6           0        2.183294   -0.333957    0.220519
      7          6           0        0.985136    0.254752    1.007069
      8          6           0       -0.180764   -0.708433    0.702585
      9          8           0        0.180480   -1.133308   -0.646244
     10          1           0       -2.051120   -0.991110   -0.883824
     11          1           0       -1.834236    0.504959    1.457220
     12          1           0       -1.231834    1.340195   -1.345377
     13          1           0       -1.122266    2.327508    0.110549
     14          1           0        1.311502    2.004372   -0.392483
     15          1           0        1.468570   -0.224317   -2.007818
     16          1           0        2.516860   -1.351168    0.436931
     17          1           0        3.027196    0.358332    0.185525
     18          1           0        1.060898    0.655897    2.016979
     19          1           0       -0.316895   -1.582295    1.341803
 ---------------------------------------------------------------------

 SCF Done:  E(RB3LYP) =  -423.177902003     A.U. after    1 cycles

 The electronic state is 1-A.
 Alpha  occ. eigenvalues --  -19.14284 -19.12442 -10.23889 -10.22756 -10.22577
 Alpha  occ. eigenvalues --  -10.19796 -10.19389 -10.18789 -10.17793  -1.05156
 Alpha  occ. eigenvalues --   -1.00611  -0.84666  -0.77186  -0.71959  -0.64574
 Alpha  occ. eigenvalues --   -0.61080  -0.56829  -0.54981  -0.52880  -0.50512
 Alpha  occ. eigenvalues --   -0.46833  -0.45140  -0.40719  -0.40454  -0.38811
 Alpha  occ. eigenvalues --   -0.37898  -0.36786  -0.35451  -0.34396  -0.32290
 Alpha  occ. eigenvalues --   -0.31561  -0.29543  -0.26390  -0.23844
 Alpha virt. eigenvalues --    0.07834   0.10215   0.11148   0.12520   0.12786
 Alpha virt. eigenvalues --    0.13716   0.14666   0.15461   0.15890   0.16976
 Alpha virt. eigenvalues --    0.18169   0.18555   0.20125   0.20280   0.21397

 Mulliken charges:
               1
     1  O   -0.448011
     2  C    0.163636
     3  C   -0.282917
     4  C   -0.025782
     5  C    0.091007
     6  C   -0.239595
     7  C   -0.083934
     8  C    0.057074
     9  O   -0.309874
    10  H    0.283328
    11  H    0.080197
    12  H    0.105365
    13  H    0.101495
    14  H    0.073316
    15  H    0.078884
    16  H    0.102189
    17  H    0.102391
    18  H    0.074443
    19  H    0.076788
 Sum of Mulliken charges =   0.00000

 Dipole moment (field-independent basis, Debye):
    X=              2.1703    Y=              1.2544    Z=              0.3478  Tot=              2.5308
 Quadrupole moment (field-independent basis, Debye-Ang):
   XX=            -58.0467   YY=            -53.2917   ZZ=            -50.1229
   XY=             -0.2522   XZ=             -0.0017   YZ=             -0.2728

  Exact polarizability:  81.396  -0.871  69.745  -1.119  -0.722  68.883
 Approx polarizability: 110.895   1.789 105.946  -1.803   1.892 108.532

                      1                      2                      3
                      A                      A                      A
 Frequencies --    134.8482               276.1579               350.1612
 Red. masses --      3.5942                 3.9093                 2.4461
 Frc consts  --      0.0385                 0.1757                 0.1767
 IR Inten    --      2.8981                 2.1561                 0.0780

                      4                      5                      6
                      A                      A                      A
 Frequencies --    434.7245               472.7962               493.5057
 Red. masses --      2.4634                 2.8058                 2.9085
 Frc consts  --      0.2743                 0.3695                 0.4174
 IR Inten    --      0.7881                 2.0769                 7.5371

                      7                      8                      9
                      A                      A                      A
 Frequencies --    515.3023               610.9356               684.0233
 Red. masses --      1.3276                 3.9496                 3.7087
 Frc consts  --      0.2077                 0.8685                 1.0224
 IR Inten    --     82.1561                 4.5231                 0.5531

                     10                     11                     12
                      A                      A                      A
 Frequencies --    741.9287               802.4380               838.7948
 Red. masses --      3.0863                 2.7371                 3.0914
 Frc consts  --      1.0010                 1.0384                 1.2815
 IR Inten    --     10.0865                 9.6314                 3.7875

                     13                     14                     15
                      A                      A                      A
 Frequencies --    849.8172               864.0523               885.9279
 Red. masses --      2.7609                 2.4943                 2.2437
 Frc consts  --      1.1748                 1.0972                 1.0376
 IR Inten    --      3.2169                 5.4337                 9.7434

                     16                     17                     18
                      A                      A                      A
 Frequencies --    908.6624               947.1509               967.6126
 Red. masses --      3.7541                 1.6511                 2.2160
 Frc consts  --      1.8263                 0.8727                 1.2224
 IR Inten    --     17.7184                 0.5550                22.9330

                     19                     20                     21
                      A                      A                      A
 Frequencies --    983.0945              1011.1643              1023.7061
 Red. masses --      2.4193                 1.8615                 2.3798
 Frc consts  --      1.3776                 1.1214                 1.4694
 IR Inten    --     32.7891                 9.8898                 1.1724

                     22                     23                     24
                      A                      A                      A
 Frequencies --   1057.4747              1065.1139              1075.6946
 Red. masses --      2.1017                 1.6179                 1.9231
 Frc consts  --      1.3847                 1.0814                 1.3111
 IR Inten    --     18.1534                10.2302                13.7916

                     25                     26                     27
                      A                      A                      A
 Frequencies --   1111.5376              1117.5320              1146.6438
 Red. masses --      1.4206                 2.4617                 1.3021
 Frc consts  --      1.0341                 1.8114                 1.0087
 IR Inten    --     12.6451                86.5057                18.1402

                     28                     29                     30
                      A                      A                      A
 Frequencies --   1210.6244              1226.2542              1239.5818
 Red. masses --      1.3689                 1.7424                 1.6066
 Frc consts  --      1.1821                 1.5437                 1.4545
 IR Inten    --      7.7261                 3.8974                 4.4821

                     31                     32                     33
                      A                      A                      A
 Frequencies --   1242.5912              1247.9691              1287.1003
 Red. masses --      1.4042                 1.5876                 1.3238
 Frc consts  --      1.2774                 1.4568                 1.2921
 IR Inten    --     10.3994                 2.1287                 0.4256

                     34                     35                     36
                      A                      A                      A
 Frequencies --   1288.5171              1309.7601              1323.3301
 Red. masses --      1.7807                 1.7351                 1.3979
 Frc consts  --      1.7419                 1.7537                 1.4424
 IR Inten    --      3.9901                 2.8778                 1.9920

                     37                     38                     39
                      A                      A                      A
 Frequencies --   1344.9439              1362.0580              1443.6690
 Red. masses --      1.5058                 1.5673                 1.2571
 Frc consts  --      1.6049                 1.7132                 1.5437
 IR Inten    --      8.8724                 2.0121                88.6787

                     40                     41                     42
                      A                      A                      A
 Frequencies --   1486.4175              1487.6684              3048.2421
 Red. masses --      1.0992                 1.1186                 1.0801
 Frc consts  --      1.4309                 1.4587                 5.9132
 IR Inten    --      2.2119                 1.3304                21.3412

                     43                     44                     45
                      A                      A                      A
 Frequencies --   3056.4097              3067.8660              3097.7795
 Red. masses --      1.0656                 1.0561                 1.1045
 Frc consts  --      5.8651                 5.8564                 6.2446
 IR Inten    --     31.2219                31.6366                19.8830

                     46                     47                     48
                      A                      A                      A
 Frequencies --   3105.6153              3114.9322              3126.4561
 Red. masses --      1.0891                 1.0883                 1.0892
 Frc consts  --      6.1887                 6.2214                 6.2730
 IR Inten    --     34.4999                17.4534                68.1595

                     49                     50                     51
                      A                      A                      A
 Frequencies --   3131.4137              3134.2710              3757.2329
 Red. masses --      1.1047                 1.0984                 1.0646
 Frc consts  --      6.3821                 6.3577                 8.8551
 IR Inten    --     15.6787                28.2415                22.9803

 - Thermochemistry -
 -------------------
 Temperature   298.150 Kelvin.  Pressure   1.00000 Atm.
 Atom     1 has atomic number  8 and mass  15.99491

 Molecular mass:   126.06808 amu.
 Principal axes and moments of inertia in atomic units:
                           1         2         3
     Eigenvalues --   520.952091109.840521226.16319
           X            0.99993  -0.01126   0.00351
           Y            0.01142   0.99878  -0.04800
           Z           -0.00296   0.04803   0.99884
 This molecule is an asymmetric top.
 Rotational symmetry number  1.
 Warning -- assumption of classical behavior for rotation
           may cause significant error
 Rotational temperatures (Kelvin)      0.16626     0.07804     0.07064
 Rotational constants (GHZ):           3.46431     1.62613     1.47186
 Zero-point vibrational energy     427733.8 (Joules/Mol)
                                  102.23083 (Kcal/Mol)
 Warning -- explicit consideration of   8 degrees of freedom as
           vibrations may cause significant error
 Vibrational temperatures:    194.02   397.33   503.80   625.47   680.25
          (Kelvin)            710.04   741.40   879.00   984.16  1067.47
                             1154.53  1206.84  1222.70  1243.18  1274.65
                             1307.36  1362.74  1392.18  1414.45  1454.84
                             1472.88  1521.47  1532.46  1547.68  1599.25
                             1607.88  1649.76  1741.82  1764.30  1783.48
                             1787.81  1795.55  1851.85  1853.89  1884.45
                             1903.97  1935.07  1959.70  2077.12  2138.62
                             2140.42  4385.74  4397.49  4413.97  4457.01
                             4468.28  4481.69  4498.27  4505.40  4509.51
                             5405.81

 Zero-point correction=                           0.162915 (Hartree/Particle)
 Thermal correction to Energy=                    0.169447
 Thermal correction to Enthalpy=                  0.170391
 Thermal correction to Gibbs Free Energy=         0.132288
 Sum of electronic and zero-point Energies=           -423.014987
 Sum of electronic and thermal Energies=              -423.008455
 Sum of electronic and thermal Enthalpies=            -423.007511
 Sum of electronic and thermal Free Energies=         -423.045614

                     E (Thermal)             CV                S
                      KCal/Mol        Cal/Mol-Kelvin    Cal/Mol-Kelvin
 Total                  106.329             28.026             80.195
 Electronic               0.000              0.000              0.000
 Translational            0.889              2.981             40.409
 Rotational               0.889              2.981             28.052
 Vibrational            104.552             22.065             11.734
 Vibration     1          0.613              1.919              2.876
 Vibration     2          0.678              1.717              1.557
 Vibration     3          0.727              1.575              1.165
 Vibration     4          0.795              1.395              0.843
 Vibration     5          0.830              1.310              0.730
 Vibration     6          0.849              1.264              0.675
 Vibration     7          0.870              1.216              0.621
 Vibration     8          0.970              1.009              0.431

 Optimization completed.
    -- Stationary point found.
 Normal termination of Gaussian 09 at Tue Jan 28 03:49:31 2020.
