 Gaussian 09, Revision D.01,
 Gaussian 09:  ES64L-G09RevD.01 24-Apr-2013

 -----------------------------
 # b3lyp 6-31G(2df,p) opt Freq
 -----------------------------

 -----
 titel
 -----
 Symbolic Z-matrix:
 Charge =  0 Multiplicity = 1

 SCF Done:  E(RB3LYP) =  -423.108303109     A.U. after   13 cycles
 SCF Done:  E(RB3LYP) =  -423.108302847     A.U. after    6 cycles
 SCF Done:  E(RB3LYP) =  -423.108303153     A.U. after    6 cycles
 Optimization completed.
    -- Stationary point found.
 Normal termination of Gaussian 09 at Mon Jan 27 16:08:10 2020.

 ----------------------------------------------------------------------
 #N Geom=AllCheck Guess=TCheck SCRF=Check GenChk RB3LYP/6-31G(2df,p) Fr
 eq
 ----------------------------------------------------------------------

 Structure from the checkpoint file:  "/scratch/puck/g09_156772b1-afd3-4a4b-9fd4-77b0cd5b1bde/Gau-143434.chk"
 -----
 titel
 -----
 Charge =  0 Multiplicity = 1

                         Standard orientation:
 ---------------------------------------------------------------------
 Center     Atomic      Atomic             Coordinates (Angstroms)
 Number     Number       Type             X           Y           Z
 ---------------------------------------------------------------------
      1          6           0       -1.076860    1.625659    0.027859
      2          6           0       -1.180070    0.114242   -0.007870
      3          8           0       -2.534359   -0.306901    0.012740
      4          6           0       -0.354716   -0.902658   -0.769750
      5          6           0       -0.391783   -0.873910    0.792298
      6          6           0        1.137819   -0.669722    0.783577
      7          8           0        1.683157    0.679292    0.759304
      8          6           0        1.861469    0.620904   -0.684096
      9          6           0        1.182339   -0.760930   -0.747963
     10          1           0       -1.786217    1.991020    0.777255
     11          1           0       -0.084893    1.969939    0.307798
     12          1           0       -1.358085    2.059941   -0.940008
     13          1           0       -2.954218    0.041156   -0.781878
     14          1           0       -0.879311   -1.588916   -1.424218
     15          1           0       -0.911806   -1.539698    1.471111
     16          1           0        1.696910   -1.329206    1.451729
     17          1           0        1.380416    1.456876   -1.202383
     18          1           0        2.927702    0.602738   -0.940120
     19          1           0        1.709930   -1.564482   -1.259967
 ---------------------------------------------------------------------

 SCF Done:  E(RB3LYP) =  -423.108303153     A.U. after    1 cycles

 The electronic state is 1-A.
 Alpha  occ. eigenvalues --  -19.13926 -19.13349 -10.24661 -10.23609 -10.22915
 Alpha  occ. eigenvalues --  -10.19486 -10.19467 -10.18899 -10.16997  -1.03723
 Alpha  occ. eigenvalues --   -1.02566  -0.87125  -0.74132  -0.71294  -0.68078
 Alpha  occ. eigenvalues --   -0.61462  -0.56312  -0.53174  -0.52010  -0.47149
 Alpha  occ. eigenvalues --   -0.46817  -0.45441  -0.44306  -0.42083  -0.40892
 Alpha  occ. eigenvalues --   -0.38162  -0.37442  -0.34954  -0.33608  -0.30264
 Alpha  occ. eigenvalues --   -0.29837  -0.26411  -0.24900  -0.23993
 Alpha virt. eigenvalues --    0.05680   0.07962   0.08863   0.11061   0.11537
 Alpha virt. eigenvalues --    0.14071   0.14909   0.15429   0.16336   0.17692
 Alpha virt. eigenvalues --    0.18252   0.18838   0.19539   0.20618   0.23226

 Mulliken charges:
               1
     1  C   -0.494425
     2  C    0.398899
     3  O   -0.465117
     4  C   -0.148784
     5  C   -0.117463
     6  C    0.101250
     7  O   -0.300682
     8  C   -0.116447
     9  C   -0.086208
    10  H    0.123754
    11  H    0.162165
    12  H    0.100188
    13  H    0.280317
    14  H    0.089623
    15  H    0.094849
    16  H    0.086485
    17  H    0.104323
    18  H    0.104539
    19  H    0.082734
 Sum of Mulliken charges =   0.00000

 Dipole moment (field-independent basis, Debye):
    X=              0.0662    Y=             -0.5485    Z=             -2.0835  Tot=              2.1555
 Quadrupole moment (field-independent basis, Debye-Ang):
   XX=            -53.3785   YY=            -52.7523   ZZ=            -51.9169
   XY=             -3.9737   XZ=              1.1771   YZ=             -2.0008

  Exact polarizability:  84.073  -1.815  71.700  -1.097  -3.053  67.941
 Approx polarizability: 113.601   0.011 103.660  -0.157  -3.313 111.512

                      1                      2                      3
                      A                      A                      A
 Frequencies --    170.8349               191.1105               240.6017
 Red. masses --      2.4367                 1.8155                 3.2018
 Frc consts  --      0.0419                 0.0391                 0.1092
 IR Inten    --      3.3356                 1.4001                 8.0793

                      4                      5                      6
                      A                      A                      A
 Frequencies --    270.9197               289.8216               329.6248
 Red. masses --      1.5092                 1.3045                 3.4410
 Frc consts  --      0.0653                 0.0646                 0.2203
 IR Inten    --      7.3585                80.5311                 1.8250

                      7                      8                      9
                      A                      A                      A
 Frequencies --    400.5833               426.9507               483.1575
 Red. masses --      2.9685                 4.3163                 2.3513
 Frc consts  --      0.2807                 0.4636                 0.3234
 IR Inten    --      8.0395                 8.2375                 0.1550

                     10                     11                     12
                      A                      A                      A
 Frequencies --    583.2702               666.1200               695.1990
 Red. masses --      3.7460                 4.3104                 3.9926
 Frc consts  --      0.7509                 1.1269                 1.1369
 IR Inten    --     10.7221                 2.2877                 8.7932

                     13                     14                     15
                      A                      A                      A
 Frequencies --    766.0514               809.2559               864.5841
 Red. masses --      3.5825                 1.5859                 1.7646
 Frc consts  --      1.2387                 0.6119                 0.7771
 IR Inten    --      2.9064                 4.4959                 2.3552

                     16                     17                     18
                      A                      A                      A
 Frequencies --    868.8636               904.4838               934.7299
 Red. masses --      1.7433                 3.7341                 2.7117
 Frc consts  --      0.7754                 1.7999                 1.3959
 IR Inten    --     17.9258                20.4834                33.5992

                     19                     20                     21
                      A                      A                      A
 Frequencies --    952.1456               979.9420               985.1768
 Red. masses --      2.2405                 2.8670                 2.0843
 Frc consts  --      1.1967                 1.6221                 1.1919
 IR Inten    --      6.0829                30.2263                27.5419

                     22                     23                     24
                      A                      A                      A
 Frequencies --   1000.3981              1021.5613              1062.5165
 Red. masses --      3.1193                 1.4096                 1.8409
 Frc consts  --      1.8393                 0.8667                 1.2245
 IR Inten    --     13.5820                 2.5147                13.0719

                     25                     26                     27
                      A                      A                      A
 Frequencies --   1076.2148              1101.8338              1136.0249
 Red. masses --      2.1950                 1.5798                 2.0049
 Frc consts  --      1.4979                 1.1300                 1.5245
 IR Inten    --      1.8953                30.5183                39.4338

                     28                     29                     30
                      A                      A                      A
 Frequencies --   1163.8221              1197.2605              1220.4032
 Red. masses --      1.2035                 1.6766                 1.7990
 Frc consts  --      0.9605                 1.4160                 1.5787
 IR Inten    --      6.8495                26.7912                10.4417

                     31                     32                     33
                      A                      A                      A
 Frequencies --   1251.0160              1265.2563              1295.1310
 Red. masses --      1.9073                 1.7304                 1.3813
 Frc consts  --      1.7588                 1.6321                 1.3651
 IR Inten    --      4.1147                 1.4329                 8.3931

                     34                     35                     36
                      A                      A                      A
 Frequencies --   1302.7187              1331.2699              1351.4440
 Red. masses --      1.6762                 1.5502                 1.4556
 Frc consts  --      1.6760                 1.6187                 1.5663
 IR Inten    --     63.3492                 1.6752                 5.4704

                     37                     38                     39
                      A                      A                      A
 Frequencies --   1405.8800              1446.8159              1489.6177
 Red. masses --      1.2549                 2.5215                 1.1255
 Frc consts  --      1.4613                 3.1098                 1.4715
 IR Inten    --      4.8590                19.5619                 3.6700

                     40                     41                     42
                      A                      A                      A
 Frequencies --   1508.5016              1522.6232              3022.7613
 Red. masses --      1.0975                 1.0846                 1.0556
 Frc consts  --      1.4715                 1.4815                 5.6826
 IR Inten    --      6.7946                 3.6044                56.4462

                     43                     44                     45
                      A                      A                      A
 Frequencies --   3026.1802              3073.1631              3078.6410
 Red. masses --      1.0480                 1.1078                 1.0890
 Frc consts  --      5.6548                 6.1641                 6.0811
 IR Inten    --     52.3787                43.5830                35.7881

                     46                     47                     48
                      A                      A                      A
 Frequencies --   3091.5213              3120.0501              3175.9967
 Red. masses --      1.0959                 1.0895                 1.0885
 Frc consts  --      6.1712                 6.2486                 6.4689
 IR Inten    --     19.2539                32.7759                15.7190

                     49                     50                     51
                      A                      A                      A
 Frequencies --   3183.6598              3185.6334              3797.1188
 Red. masses --      1.0942                 1.0953                 1.0660
 Frc consts  --      6.5344                 6.5491                 9.0558
 IR Inten    --      0.3646                11.8757                17.8396

 - Thermochemistry -
 -------------------
 Temperature   298.150 Kelvin.  Pressure   1.00000 Atm.
 Atom     1 has atomic number  6 and mass  12.00000

 Molecular mass:   126.06808 amu.
 Principal axes and moments of inertia in atomic units:
                           1         2         3
     Eigenvalues --   558.427521228.045001387.09466
           X            0.99961  -0.02689  -0.00759
           Y            0.02650   0.99856  -0.04658
           Z            0.00883   0.04636   0.99889
 This molecule is an asymmetric top.
 Rotational symmetry number  1.
 Warning -- assumption of classical behavior for rotation
           may cause significant error
 Rotational temperatures (Kelvin)      0.15510     0.07053     0.06244
 Rotational constants (GHZ):           3.23183     1.46961     1.30109
 Zero-point vibrational energy     417009.0 (Joules/Mol)
                                   99.66754 (Kcal/Mol)
 Warning -- explicit consideration of  10 degrees of freedom as
           vibrations may cause significant error
 Vibrational temperatures:    245.79   274.97   346.17   389.79   416.99
          (Kelvin)            474.26   576.35   614.29   695.15   839.19
                              958.40  1000.23  1102.18  1164.34  1243.94
                             1250.10  1301.35  1344.87  1369.92  1409.92
                             1417.45  1439.35  1469.80  1528.72  1548.43
                             1585.29  1634.48  1674.48  1722.59  1755.89
                             1799.93  1820.42  1863.40  1874.32  1915.40
                             1944.42  2022.75  2081.64  2143.22  2170.39
                             2190.71  4349.07  4353.99  4421.59  4429.47
                             4448.00  4489.05  4569.55  4580.57  4583.41
                             5463.20

 Zero-point correction=                           0.158830 (Hartree/Particle)
 Thermal correction to Energy=                    0.166693
 Thermal correction to Enthalpy=                  0.167637
 Thermal correction to Gibbs Free Energy=         0.127100
 Sum of electronic and zero-point Energies=           -422.949473
 Sum of electronic and thermal Energies=              -422.941611
 Sum of electronic and thermal Enthalpies=            -422.940666
 Sum of electronic and thermal Free Energies=         -422.981203

                     E (Thermal)             CV                S
                      KCal/Mol        Cal/Mol-Kelvin    Cal/Mol-Kelvin
 Total                  104.601             31.900             85.317
 Electronic               0.000              0.000              0.000
 Translational            0.889              2.981             40.409
 Rotational               0.889              2.981             28.344
 Vibrational            102.824             25.939             16.565
 Vibration     1          0.626              1.878              2.426
 Vibration     2          0.634              1.852              2.217
 Vibration     3          0.658              1.778              1.798
 Vibration     4          0.675              1.727              1.590
 Vibration     5          0.686              1.693              1.475
 Vibration     6          0.712              1.616              1.262
 Vibration     7          0.766              1.469              0.961
 Vibration     8          0.789              1.412              0.869
 Vibration     9          0.839              1.287              0.702
 Vibration    10          0.940              1.068              0.479

 Optimization completed.
    -- Stationary point found.
 Normal termination of Gaussian 09 at Mon Jan 27 17:22:47 2020.
