 Gaussian 09, Revision D.01,
 Gaussian 09:  ES64L-G09RevD.01 24-Apr-2013

 -----------------------------
 # b3lyp 6-31G(2df,p) opt Freq
 -----------------------------

 -----
 titel
 -----
 Symbolic Z-matrix:
 Charge =  0 Multiplicity = 1

 SCF Done:  E(RB3LYP) =  -423.146224999     A.U. after   13 cycles
 Optimization completed.
    -- Stationary point found.
 Normal termination of Gaussian 09 at Mon Jan 27 12:49:47 2020.

 ----------------------------------------------------------------------
 #N Geom=AllCheck Guess=TCheck SCRF=Check GenChk RB3LYP/6-31G(2df,p) Fr
 eq
 ----------------------------------------------------------------------

 Structure from the checkpoint file:  "/scratch/puck/g09_b9d3226c-a559-44a2-aecb-29260a362857/Gau-166919.chk"
 -----
 titel
 -----
 Charge =  0 Multiplicity = 1

                         Standard orientation:
 ---------------------------------------------------------------------
 Center     Atomic      Atomic             Coordinates (Angstroms)
 Number     Number       Type             X           Y           Z
 ---------------------------------------------------------------------
      1          6           0        1.914545    0.361269    0.299429
      2          6           0        1.969412   -1.143700   -0.059830
      3          6           0        0.601620   -1.640174   -0.017090
      4          6           0       -0.601640   -1.640185    0.017006
      5          6           0       -1.969420   -1.143683    0.059866
      6          6           0       -1.914562    0.361285   -0.299389
      7          8           0       -1.036427    1.048131    0.584415
      8          6           0        0.000008    1.793859   -0.000023
      9          8           0        1.036465    1.048123   -0.584421
     10          1           0        1.577980    0.465966    1.336800
     11          1           0        2.917781    0.799707    0.207826
     12          1           0        2.402648   -1.265884   -1.059794
     13          1           0        2.638903   -1.654501    0.642945
     14          1           0       -2.638999   -1.654470   -0.642836
     15          1           0       -2.402552   -1.265856    1.059877
     16          1           0       -1.578059    0.465990   -1.336780
     17          1           0       -2.917788    0.799730   -0.207723
     18          1           0       -0.378852    2.423603   -0.816038
     19          1           0        0.378857    2.423660    0.815953
 ---------------------------------------------------------------------

 SCF Done:  E(RB3LYP) =  -423.146224999     A.U. after    1 cycles

 The electronic state is 1-A.
 Alpha  occ. eigenvalues --  -19.14210 -19.14209 -10.27355 -10.23444 -10.23444
 Alpha  occ. eigenvalues --  -10.20399 -10.20399 -10.16213 -10.15965  -1.06062
 Alpha  occ. eigenvalues --   -1.00679  -0.80495  -0.77288  -0.72058  -0.65696
 Alpha  occ. eigenvalues --   -0.64623  -0.59056  -0.51789  -0.50645  -0.50014
 Alpha  occ. eigenvalues --   -0.46941  -0.45733  -0.43008  -0.42558  -0.40961
 Alpha  occ. eigenvalues --   -0.40677  -0.38864  -0.36561  -0.34090  -0.29905
 Alpha  occ. eigenvalues --   -0.27856  -0.26764  -0.24078  -0.23958
 Alpha virt. eigenvalues --    0.03719   0.06491   0.10264   0.10819   0.11683
 Alpha virt. eigenvalues --    0.12992   0.14308   0.15086   0.16398   0.16728
 Alpha virt. eigenvalues --    0.17072   0.17808   0.19293   0.20025   0.21999

 Mulliken charges:
               1
     1  C   -0.062490
     2  C   -0.341971
     3  C    0.068982
     4  C    0.068916
     5  C   -0.341963
     6  C   -0.062489
     7  O   -0.231576
     8  C    0.011297
     9  O   -0.231577
    10  H    0.113719
    11  H    0.097392
    12  H    0.132095
    13  H    0.119841
    14  H    0.119838
    15  H    0.132097
    16  H    0.113718
    17  H    0.097392
    18  H    0.098390
    19  H    0.098389
 Sum of Mulliken charges =   0.00000

 Dipole moment (field-independent basis, Debye):
    X=              0.0000    Y=              0.7407    Z=              0.0001  Tot=              0.7407
 Quadrupole moment (field-independent basis, Debye-Ang):
   XX=            -45.5059   YY=            -54.5675   ZZ=            -54.1156
   XY=             -0.0002   XZ=              2.9721   YZ=             -0.0002

  Exact polarizability: 103.661   0.000  74.008   1.993   0.000  58.348
 Approx polarizability: 157.264   0.000  98.082  -0.117   0.000  92.835

                      1                      2                      3
                      A                      A                      A
 Frequencies --    128.3896               146.0278               164.6563
 Red. masses --      2.5789                 2.4614                 7.7838
 Frc consts  --      0.0250                 0.0309                 0.1243
 IR Inten    --      3.3845                 0.1376                 2.3350

                      4                      5                      6
                      A                      A                      A
 Frequencies --    244.0796               262.6334               335.8631
 Red. masses --      4.3846                 1.9530                 5.2569
 Frc consts  --      0.1539                 0.0794                 0.3494
 IR Inten    --      1.3942                 8.9317                 0.1067

                      7                      8                      9
                      A                      A                      A
 Frequencies --    362.1576               372.2719               429.9560
 Red. masses --      4.1195                 2.9512                 2.0872
 Frc consts  --      0.3183                 0.2410                 0.2273
 IR Inten    --     17.0895                 2.7213                 6.4453

                     10                     11                     12
                      A                      A                      A
 Frequencies --    533.7133               567.0778               597.4517
 Red. masses --      3.2739                 3.3554                 5.1983
 Frc consts  --      0.5495                 0.6357                 1.0932
 IR Inten    --     17.4742                 3.7569                 0.0109

                     13                     14                     15
                      A                      A                      A
 Frequencies --    736.7124               826.1539               827.9044
 Red. masses --      3.0570                 2.0790                 2.3723
 Frc consts  --      0.9775                 0.8360                 0.9580
 IR Inten    --      4.7204                 9.4535                 0.0019

                     16                     17                     18
                      A                      A                      A
 Frequencies --    902.3523               946.7175               973.2721
 Red. masses --      2.0729                 2.0789                 3.7212
 Frc consts  --      0.9944                 1.0978                 2.0768
 IR Inten    --      1.1511                 3.9240                 3.1170

                     19                     20                     21
                      A                      A                      A
 Frequencies --    990.6756              1035.0085              1077.3685
 Red. masses --      4.0050                 2.9064                 1.8742
 Frc consts  --      2.3159                 1.8344                 1.2817
 IR Inten    --     58.5926               142.1137                 7.6309

                     22                     23                     24
                      A                      A                      A
 Frequencies --   1089.0820              1144.0612              1164.3879
 Red. masses --      2.9069                 4.7727                 2.4875
 Frc consts  --      2.0315                 3.6806                 1.9871
 IR Inten    --    108.4183               136.8028                 5.7614

                     25                     26                     27
                      A                      A                      A
 Frequencies --   1172.1840              1225.7755              1243.6768
 Red. masses --      1.6443                 1.1931                 1.3606
 Frc consts  --      1.3312                 1.0562                 1.2400
 IR Inten    --     17.3840                 1.5633                19.3285

                     28                     29                     30
                      A                      A                      A
 Frequencies --   1271.9431              1277.4153              1327.3076
 Red. masses --      1.3129                 1.2861                 1.1188
 Frc consts  --      1.2515                 1.2365                 1.1613
 IR Inten    --      9.9778                 1.3557                 9.6455

                     31                     32                     33
                      A                      A                      A
 Frequencies --   1350.6045              1352.8582              1399.7787
 Red. masses --      1.3945                 1.2566                 1.2254
 Frc consts  --      1.4987                 1.3550                 1.4147
 IR Inten    --     23.0523                 0.0073                 0.9586

                     34                     35                     36
                      A                      A                      A
 Frequencies --   1412.0251              1443.6854              1469.2191
 Red. masses --      1.2354                 1.1670                 1.1025
 Frc consts  --      1.4513                 1.4331                 1.4022
 IR Inten    --     14.1558                 9.8642                 1.2951

                     37                     38                     39
                      A                      A                      A
 Frequencies --   1471.0369              1490.4584              1498.6659
 Red. masses --      1.0980                 1.0781                 1.1010
 Frc consts  --      1.3998                 1.4111                 1.4570
 IR Inten    --      2.9679                 0.6745                 2.6220

                     40                     41                     42
                      A                      A                      A
 Frequencies --   1500.0456              2359.9098              2998.9113
 Red. masses --      1.1023                11.7576                 1.0535
 Frc consts  --      1.4614                38.5797                 5.5824
 IR Inten    --      2.1197                 1.6305                28.0277

                     43                     44                     45
                      A                      A                      A
 Frequencies --   3005.2022              3009.4286              3030.0693
 Red. masses --      1.0601                 1.0595                 1.0587
 Frc consts  --      5.6411                 5.6537                 5.7273
 IR Inten    --     90.3862                69.9194                88.4844

                     46                     47                     48
                      A                      A                      A
 Frequencies --   3031.0377              3053.0790              3058.9098
 Red. masses --      1.0586                 1.1110                 1.1024
 Frc consts  --      5.7303                 6.1018                 6.0777
 IR Inten    --      1.4425                45.3633                 0.4076

                     49                     50                     51
                      A                      A                      A
 Frequencies --   3059.2176              3076.0237              3076.8903
 Red. masses --      1.1036                 1.1031                 1.1032
 Frc consts  --      6.0855                 6.1493                 6.1537
 IR Inten    --     10.7346                 0.6488                72.6983

 - Thermochemistry -
 -------------------
 Temperature   298.150 Kelvin.  Pressure   1.00000 Atm.
 Atom     1 has atomic number  6 and mass  12.00000

 Molecular mass:   126.06808 amu.
 Principal axes and moments of inertia in atomic units:
                           1         2         3
     Eigenvalues --   772.664201048.285021669.35996
           X            0.99985   0.00000   0.01717
           Y            0.00000   1.00000   0.00000
           Z           -0.01717   0.00000   0.99985
 This molecule is an asymmetric top.
 Rotational symmetry number  1.
 Warning -- assumption of classical behavior for rotation
           may cause significant error
 Rotational temperatures (Kelvin)      0.11210     0.08262     0.05188
 Rotational constants (GHZ):           2.33574     1.72161     1.08110
 Zero-point vibrational energy     421823.2 (Joules/Mol)
                                  100.81817 (Kcal/Mol)
 Warning -- explicit consideration of  12 degrees of freedom as
           vibrations may cause significant error
 Vibrational temperatures:    184.72   210.10   236.90   351.18   377.87
          (Kelvin)            483.23   521.06   535.62   618.61   767.89
                              815.90   859.60  1059.96  1188.65  1191.17
                             1298.28  1362.11  1400.32  1425.36  1489.14
                             1550.09  1566.94  1646.05  1675.29  1686.51
                             1763.62  1789.37  1830.04  1837.91  1909.70
                             1943.22  1946.46  2013.97  2031.59  2077.14
                             2113.88  2116.49  2144.43  2156.24  2158.23
                             3395.38  4314.76  4323.81  4329.89  4359.59
                             4360.98  4392.69  4401.08  4401.53  4425.71
                             4426.95

 Zero-point correction=                           0.160664 (Hartree/Particle)
 Thermal correction to Energy=                    0.168987
 Thermal correction to Enthalpy=                  0.169931
 Thermal correction to Gibbs Free Energy=         0.127980
 Sum of electronic and zero-point Energies=           -422.985561
 Sum of electronic and thermal Energies=              -422.977238
 Sum of electronic and thermal Enthalpies=            -422.976294
 Sum of electronic and thermal Free Energies=         -423.018245

                     E (Thermal)             CV                S
                      KCal/Mol        Cal/Mol-Kelvin    Cal/Mol-Kelvin
 Total                  106.041             31.700             88.293
 Electronic               0.000              0.000              0.000
 Translational            0.889              2.981             40.409
 Rotational               0.889              2.981             28.693
 Vibrational            104.264             25.738             19.191
 Vibration     1          0.611              1.925              2.970
 Vibration     2          0.617              1.907              2.723
 Vibration     3          0.623              1.886              2.496
 Vibration     4          0.659              1.773              1.773
 Vibration     5          0.670              1.741              1.644
 Vibration     6          0.717              1.604              1.232
 Vibration     7          0.736              1.550              1.113
 Vibration     8          0.744              1.529              1.070
 Vibration     9          0.791              1.405              0.859
 Vibration    10          0.889              1.175              0.579
 Vibration    11          0.923              1.102              0.510
 Vibration    12          0.955              1.037              0.454

 Normal termination of Gaussian 09 at Mon Jan 27 13:29:29 2020.
