 Gaussian 09, Revision D.01,
 Gaussian 09:  ES64L-G09RevD.01 24-Apr-2013

 -----------------------------
 # b3lyp 6-31G(2df,p) opt Freq
 -----------------------------

 -----
 titel
 -----
 Symbolic Z-matrix:
 Charge =  0 Multiplicity = 1

 SCF Done:  E(RB3LYP) =  -423.183015827     A.U. after   14 cycles
 Optimization completed.
    -- Stationary point found.
 Normal termination of Gaussian 09 at Tue Jan 28 09:49:45 2020.

 ----------------------------------------------------------------------
 #N Geom=AllCheck Guess=TCheck SCRF=Check GenChk RB3LYP/6-31G(2df,p) Fr
 eq
 ----------------------------------------------------------------------

 Structure from the checkpoint file:  "/scratch/puck/g09_e3253597-d721-4bb5-80d1-6305c59529fa/Gau-96482.chk"
 -----
 titel
 -----
 Charge =  0 Multiplicity = 1

                         Standard orientation:
 ---------------------------------------------------------------------
 Center     Atomic      Atomic             Coordinates (Angstroms)
 Number     Number       Type             X           Y           Z
 ---------------------------------------------------------------------
      1          8           0        2.852657    0.395810    0.225230
      2          6           0        1.940241   -0.267647   -0.634576
      3          6           0        0.513632   -0.088787   -0.160545
      4          6           0       -0.014588    1.332726   -0.131258
      5          6           0       -1.499915    1.431163    0.072761
      6          6           0       -2.338614    0.399624    0.027732
      7          6           0       -1.917456   -1.020429   -0.231236
      8          6           0       -0.420532   -1.225471   -0.191233
      9          8           0        0.237098   -0.860597    1.029312
     10          1           0        2.716235    0.023891    1.104585
     11          1           0        2.077454    0.174892   -1.627185
     12          1           0        2.164823   -1.342313   -0.706691
     13          1           0        0.520545    1.889481    0.648401
     14          1           0        0.262147    1.826719   -1.074398
     15          1           0       -1.889534    2.428939    0.258578
     16          1           0       -3.402233    0.564932    0.178496
     17          1           0       -2.387079   -1.695402    0.498035
     18          1           0       -2.287270   -1.350647   -1.213438
     19          1           0       -0.069739   -2.169279   -0.612577
 ---------------------------------------------------------------------

 SCF Done:  E(RB3LYP) =  -423.183015827     A.U. after    1 cycles

 The electronic state is 1-A.
 Alpha  occ. eigenvalues --  -19.14709 -19.13629 -10.23878 -10.23817 -10.22990
 Alpha  occ. eigenvalues --  -10.19398 -10.18942 -10.18274 -10.18184  -1.06973
 Alpha  occ. eigenvalues --   -1.01598  -0.81394  -0.76309  -0.72279  -0.67463
 Alpha  occ. eigenvalues --   -0.61780  -0.58897  -0.52699  -0.50492  -0.48055
 Alpha  occ. eigenvalues --   -0.47201  -0.44740  -0.44227  -0.42379  -0.40844
 Alpha  occ. eigenvalues --   -0.39980  -0.37855  -0.36245  -0.34205  -0.32495
 Alpha  occ. eigenvalues --   -0.29546  -0.27926  -0.25832  -0.24446
 Alpha virt. eigenvalues --    0.02510   0.07975   0.09582   0.09948   0.11807
 Alpha virt. eigenvalues --    0.12294   0.13431   0.14744   0.16538   0.17687
 Alpha virt. eigenvalues --    0.18136   0.18624   0.19211   0.21180   0.22893

 Mulliken charges:
               1
     1  O   -0.417894
     2  C   -0.129768
     3  C    0.344957
     4  C   -0.318621
     5  C   -0.043187
     6  C   -0.061618
     7  C   -0.291025
     8  C   -0.002419
     9  O   -0.305206
    10  H    0.293411
    11  H    0.108620
    12  H    0.090024
    13  H    0.124939
    14  H    0.113462
    15  H    0.088293
    16  H    0.088082
    17  H    0.120486
    18  H    0.114120
    19  H    0.083343
 Sum of Mulliken charges =   0.00000

 Dipole moment (field-independent basis, Debye):
    X=             -1.3281    Y=             -0.5883    Z=             -1.1465  Tot=              1.8505
 Quadrupole moment (field-independent basis, Debye-Ang):
   XX=            -55.6315   YY=            -50.8713   ZZ=            -53.1225
   XY=             -1.3244   XZ=              1.0739   YZ=              1.6525

  Exact polarizability:  88.438   7.575  81.370  -0.995   2.496  57.969
 Approx polarizability: 117.838  20.710 123.720   0.935   1.554  96.314

                      1                      2                      3
                      A                      A                      A
 Frequencies --     66.3671               114.8314               169.7158
 Red. masses --      3.7586                 2.3177                 3.7708
 Frc consts  --      0.0098                 0.0180                 0.0640
 IR Inten    --      4.7938                 0.6516                 0.0245

                      4                      5                      6
                      A                      A                      A
 Frequencies --    281.7196               318.4004               384.6899
 Red. masses --      3.1422                 2.0174                 2.9272
 Frc consts  --      0.1469                 0.1205                 0.2552
 IR Inten    --      3.4576                 7.6363                25.8432

                      7                      8                      9
                      A                      A                      A
 Frequencies --    391.6293               408.6211               442.5903
 Red. masses --      2.8164                 2.7537                 1.3413
 Frc consts  --      0.2545                 0.2709                 0.1548
 IR Inten    --     13.3288                 0.5418                86.6361

                     10                     11                     12
                      A                      A                      A
 Frequencies --    566.7795               607.2124               677.0626
 Red. masses --      5.0368                 4.5773                 1.1878
 Frc consts  --      0.9533                 0.9944                 0.3208
 IR Inten    --      2.0499                12.7840                21.3990

                     13                     14                     15
                      A                      A                      A
 Frequencies --    707.5231               785.9879               882.5614
 Red. masses --      4.6836                 4.5720                 3.9138
 Frc consts  --      1.3814                 1.6641                 1.7961
 IR Inten    --      9.8308                 8.2004                25.9505

                     16                     17                     18
                      A                      A                      A
 Frequencies --    888.4472               915.2505               942.5592
 Red. masses --      3.2431                 2.0979                 2.0671
 Frc consts  --      1.5083                 1.0354                 1.0820
 IR Inten    --     13.9601                 8.6768                 1.3951

                     19                     20                     21
                      A                      A                      A
 Frequencies --    965.9508               993.2259              1009.8389
 Red. masses --      1.8504                 1.7417                 1.5002
 Frc consts  --      1.0172                 1.0123                 0.9014
 IR Inten    --      3.7755                42.6546                 9.6493

                     22                     23                     24
                      A                      A                      A
 Frequencies --   1033.3895              1053.0033              1072.7735
 Red. masses --      2.2303                 2.8750                 1.9523
 Frc consts  --      1.4033                 1.8782                 1.3238
 IR Inten    --      3.5973                40.1462                16.2128

                     25                     26                     27
                      A                      A                      A
 Frequencies --   1119.2154              1178.6904              1200.9875
 Red. masses --      2.1892                 1.2445                 1.0951
 Frc consts  --      1.6157                 1.0187                 0.9306
 IR Inten    --      8.1827                 5.5988                 1.1988

                     28                     29                     30
                      A                      A                      A
 Frequencies --   1228.7459              1246.1981              1259.1180
 Red. masses --      1.1538                 1.5581                 1.2776
 Frc consts  --      1.0263                 1.4256                 1.1934
 IR Inten    --      8.2706                 5.3778                 8.2440

                     31                     32                     33
                      A                      A                      A
 Frequencies --   1315.0846              1371.6990              1378.2027
 Red. masses --      1.3696                 1.7509                 1.5353
 Frc consts  --      1.3956                 1.9410                 1.7182
 IR Inten    --      2.5097                 5.4304                 1.9715

                     34                     35                     36
                      A                      A                      A
 Frequencies --   1394.1436              1420.2630              1427.9663
 Red. masses --      1.7383                 1.3881                 1.3906
 Frc consts  --      1.9907                 1.6497                 1.6707
 IR Inten    --      2.2117                25.5571                31.1888

                     37                     38                     39
                      A                      A                      A
 Frequencies --   1461.4802              1465.7327              1490.8285
 Red. masses --      1.2183                 1.0827                 2.1437
 Frc consts  --      1.5332                 1.3704                 2.8071
 IR Inten    --      3.3643                 5.7812                 9.3260

                     40                     41                     42
                      A                      A                      A
 Frequencies --   1492.8942              1739.1812              2993.0018
 Red. masses --      1.2009                 6.6194                 1.0674
 Frc consts  --      1.5769                11.7967                 5.6335
 IR Inten    --      3.7299                 3.1693                45.6715

                     43                     44                     45
                      A                      A                      A
 Frequencies --   3001.1658              3005.7270              3026.9131
 Red. masses --      1.0618                 1.0676                 1.0973
 Frc consts  --      5.6348                 5.6829                 5.9234
 IR Inten    --     30.3084                22.0206                18.6380

                     46                     47                     48
                      A                      A                      A
 Frequencies --   3044.1324              3073.7932              3091.7735
 Red. masses --      1.0911                 1.0957                 1.0876
 Frc consts  --      5.9570                 6.0993                 6.1256
 IR Inten    --     12.9306                28.9780                44.0466

                     49                     50                     51
                      A                      A                      A
 Frequencies --   3147.8715              3170.9341              3794.3667
 Red. masses --      1.0832                 1.0968                 1.0658
 Frc consts  --      6.3240                 6.4975                 9.0406
 IR Inten    --      5.8906                35.5590                22.0436

 - Thermochemistry -
 -------------------
 Temperature   298.150 Kelvin.  Pressure   1.00000 Atm.
 Atom     1 has atomic number  8 and mass  15.99491

 Molecular mass:   126.06808 amu.
 Principal axes and moments of inertia in atomic units:
                           1         2         3
     Eigenvalues --   537.763001405.875371712.84316
           X            0.99999  -0.00081  -0.00385
           Y            0.00094   0.99948   0.03228
           Z            0.00382  -0.03228   0.99947
 This molecule is an asymmetric top.
 Rotational symmetry number  1.
 Warning -- assumption of classical behavior for rotation
           may cause significant error
 Rotational temperatures (Kelvin)      0.16106     0.06161     0.05057
 Rotational constants (GHZ):           3.35602     1.28371     1.05365
 Zero-point vibrational energy     420010.3 (Joules/Mol)
                                  100.38487 (Kcal/Mol)
 Warning -- explicit consideration of  11 degrees of freedom as
           vibrations may cause significant error
 Vibrational temperatures:     95.49   165.22   244.18   405.33   458.11
          (Kelvin)            553.48   563.47   587.91   636.79   815.47
                              873.64   974.14  1017.97  1130.86  1269.81
                             1278.28  1316.84  1356.13  1389.79  1429.03
                             1452.93  1486.82  1515.04  1543.48  1610.30
                             1695.87  1727.95  1767.89  1793.00  1811.59
                             1892.11  1973.57  1982.92  2005.86  2043.44
                             2054.52  2102.74  2108.86  2144.97  2147.94
                             2502.29  4306.26  4318.00  4324.57  4355.05
                             4379.82  4422.50  4448.37  4529.08  4562.26
                             5459.24

 Zero-point correction=                           0.159973 (Hartree/Particle)
 Thermal correction to Energy=                    0.168216
 Thermal correction to Enthalpy=                  0.169160
 Thermal correction to Gibbs Free Energy=         0.126953
 Sum of electronic and zero-point Energies=           -423.023042
 Sum of electronic and thermal Energies=              -423.014800
 Sum of electronic and thermal Enthalpies=            -423.013856
 Sum of electronic and thermal Free Energies=         -423.056063

                     E (Thermal)             CV                S
                      KCal/Mol        Cal/Mol-Kelvin    Cal/Mol-Kelvin
 Total                  105.557             31.749             88.831
 Electronic               0.000              0.000              0.000
 Translational            0.889              2.981             40.409
 Rotational               0.889              2.981             28.650
 Vibrational            103.779             25.787             19.772
 Vibration     1          0.598              1.970              4.258
 Vibration     2          0.608              1.937              3.186
 Vibration     3          0.625              1.880              2.439
 Vibration     4          0.681              1.707              1.523
 Vibration     5          0.705              1.638              1.318
 Vibration     6          0.754              1.503              1.021
 Vibration     7          0.759              1.488              0.994
 Vibration     8          0.773              1.452              0.932
 Vibration     9          0.802              1.377              0.819
 Vibration    10          0.923              1.103              0.510
 Vibration    11          0.966              1.017              0.437

 Optimization completed.
    -- Stationary point found.
 Normal termination of Gaussian 09 at Tue Jan 28 10:33:05 2020.
