 Gaussian 09, Revision D.01,
 Gaussian 09:  ES64L-G09RevD.01 24-Apr-2013

 -----------------------------
 # b3lyp 6-31G(2df,p) opt Freq
 -----------------------------

 -----
 titel
 -----
 Symbolic Z-matrix:
 Charge =  0 Multiplicity = 1

 SCF Done:  E(RB3LYP) =  -423.180579387     A.U. after   14 cycles
 Optimization completed.
    -- Stationary point found.
 Normal termination of Gaussian 09 at Tue Jan 28 02:30:39 2020.

 ----------------------------------------------------------------------
 #N Geom=AllCheck Guess=TCheck SCRF=Check GenChk RB3LYP/6-31G(2df,p) Fr
 eq
 ----------------------------------------------------------------------

 Structure from the checkpoint file:  "/scratch/puck/g09_b02d09c2-9a07-4c4c-bd26-e2a4e9977f45/Gau-76490.chk"
 -----
 titel
 -----
 Charge =  0 Multiplicity = 1

                         Standard orientation:
 ---------------------------------------------------------------------
 Center     Atomic      Atomic             Coordinates (Angstroms)
 Number     Number       Type             X           Y           Z
 ---------------------------------------------------------------------
      1          8           0        2.533732   -0.487971   -0.199238
      2          6           0        1.278705   -0.814187    0.355352
      3          6           0        0.650989    0.317921    1.220935
      4          6           0       -0.248495    0.720381    0.009509
      5          8           0        0.280106    1.799161   -0.742028
      6          6           0       -1.768292    0.749016    0.253292
      7          6           0       -2.150370   -0.704742    0.078765
      8          6           0       -1.152396   -1.448468   -0.406637
      9          6           0        0.095849   -0.650608   -0.652056
     10          1           0        2.434818    0.364781   -0.640989
     11          1           0        1.395272   -1.791005    0.830853
     12          1           0        0.076954   -0.056000    2.072329
     13          1           0        1.358576    1.077602    1.564399
     14          1           0        0.229584    2.594946   -0.200490
     15          1           0       -2.028267    1.140719    1.245541
     16          1           0       -2.266567    1.389444   -0.487264
     17          1           0       -3.142955   -1.075234    0.312387
     18          1           0       -1.217022   -2.510066   -0.621010
     19          1           0        0.412959   -0.640585   -1.700591
 ---------------------------------------------------------------------

 SCF Done:  E(RB3LYP) =  -423.180579387     A.U. after    1 cycles

 The electronic state is 1-A.
 Alpha  occ. eigenvalues --  -19.14747 -19.12840 -10.23694 -10.22755 -10.18551
 Alpha  occ. eigenvalues --  -10.18493 -10.18266 -10.17987 -10.17609  -1.03112
 Alpha  occ. eigenvalues --   -1.01125  -0.85739  -0.76992  -0.71146  -0.65571
 Alpha  occ. eigenvalues --   -0.62194  -0.56198  -0.54166  -0.51192  -0.48719
 Alpha  occ. eigenvalues --   -0.46451  -0.45058  -0.42185  -0.40481  -0.39736
 Alpha  occ. eigenvalues --   -0.37878  -0.36952  -0.35602  -0.35039  -0.32312
 Alpha  occ. eigenvalues --   -0.29064  -0.27264  -0.25597  -0.23517
 Alpha virt. eigenvalues --    0.01708   0.06777   0.10196   0.10902   0.11372
 Alpha virt. eigenvalues --    0.13731   0.14273   0.14676   0.15414   0.16961
 Alpha virt. eigenvalues --    0.17918   0.19007   0.20127   0.21735   0.22533

 Mulliken charges:
               1
     1  O   -0.440052
     2  C    0.136428
     3  C   -0.310911
     4  C    0.396242
     5  O   -0.498034
     6  C   -0.345013
     7  C   -0.061768
     8  C   -0.094308
     9  C   -0.107254
    10  H    0.283315
    11  H    0.080860
    12  H    0.103872
    13  H    0.094163
    14  H    0.277871
    15  H    0.098347
    16  H    0.111250
    17  H    0.095152
    18  H    0.096391
    19  H    0.083450
 Sum of Mulliken charges =   0.00000

 Dipole moment (field-independent basis, Debye):
    X=             -1.7880    Y=              1.2394    Z=              1.0784  Tot=              2.4282
 Quadrupole moment (field-independent basis, Debye-Ang):
   XX=            -57.3546   YY=            -48.1169   ZZ=            -54.0652
   XY=              2.8592   XZ=             -0.7751   YZ=              1.9465

  Exact polarizability:  86.186  -1.553  78.369  -3.874   3.388  62.910
 Approx polarizability: 123.722  -8.206 117.392 -10.876   5.913  98.862

                      1                      2                      3
                      A                      A                      A
 Frequencies --     76.5989               197.6960               255.6936
 Red. masses --      4.1315                 2.9718                 3.2642
 Frc consts  --      0.0143                 0.0684                 0.1257
 IR Inten    --      2.0382                 0.4523                 2.1894

                      4                      5                      6
                      A                      A                      A
 Frequencies --    310.6649               350.2673               370.7834
 Red. masses --      1.2990                 2.9700                 3.8299
 Frc consts  --      0.0739                 0.2147                 0.3102
 IR Inten    --     37.3688                20.3423                10.2235

                      7                      8                      9
                      A                      A                      A
 Frequencies --    403.0469               431.0718               451.8485
 Red. masses --      1.7347                 2.0868                 1.3993
 Frc consts  --      0.1660                 0.2285                 0.1683
 IR Inten    --      8.7430                 5.1214                99.6017

                     10                     11                     12
                      A                      A                      A
 Frequencies --    470.4110               586.9862               671.1271
 Red. masses --      2.3003                 4.1219                 3.3583
 Frc consts  --      0.2999                 0.8368                 0.8912
 IR Inten    --      9.4580                 4.0484                 5.7799

                     13                     14                     15
                      A                      A                      A
 Frequencies --    734.4643               781.9216               823.5248
 Red. masses --      1.3124                 4.9468                 2.4116
 Frc consts  --      0.4171                 1.7820                 0.9636
 IR Inten    --     35.0288                 1.2420                 5.9412

                     16                     17                     18
                      A                      A                      A
 Frequencies --    848.3813               914.4907               952.8374
 Red. masses --      2.7825                 2.2670                 2.1533
 Frc consts  --      1.1800                 1.1170                 1.1518
 IR Inten    --     10.7065                 2.4437                10.8048

                     19                     20                     21
                      A                      A                      A
 Frequencies --    957.5013               971.7551               982.4381
 Red. masses --      2.1705                 1.4774                 1.7577
 Frc consts  --      1.1725                 0.8220                 0.9995
 IR Inten    --      6.5762                 1.7144                 2.2465

                     22                     23                     24
                      A                      A                      A
 Frequencies --   1012.3671              1032.7168              1044.0973
 Red. masses --      2.4714                 2.3028                 1.8626
 Frc consts  --      1.4923                 1.4470                 1.1963
 IR Inten    --     24.3291                 8.7149                20.6223

                     25                     26                     27
                      A                      A                      A
 Frequencies --   1094.5622              1122.0068              1136.3914
 Red. masses --      1.4518                 1.8058                 1.3950
 Frc consts  --      1.0248                 1.3394                 1.0614
 IR Inten    --     12.4397               123.4041                33.5151

                     28                     29                     30
                      A                      A                      A
 Frequencies --   1169.9084              1193.3153              1223.2971
 Red. masses --      1.5842                 1.7005                 1.3849
 Frc consts  --      1.2775                 1.4267                 1.2211
 IR Inten    --     12.9545                 3.5748                 7.8699

                     31                     32                     33
                      A                      A                      A
 Frequencies --   1241.2587              1265.0870              1273.6358
 Red. masses --      1.6455                 1.9274                 1.5432
 Frc consts  --      1.4937                 1.8174                 1.4749
 IR Inten    --      3.2937                26.4000                 5.6269

                     34                     35                     36
                      A                      A                      A
 Frequencies --   1296.8347              1330.4737              1359.0231
 Red. masses --      1.6618                 1.4927                 1.8691
 Frc consts  --      1.6467                 1.5568                 2.0339
 IR Inten    --     67.6925                 3.2917                 4.2153

                     37                     38                     39
                      A                      A                      A
 Frequencies --   1386.5721              1438.9299              1456.3253
 Red. masses --      1.7595                 1.1962                 1.1516
 Frc consts  --      1.9931                 1.4593                 1.4390
 IR Inten    --      8.1340                73.2828                18.5034

                     40                     41                     42
                      A                      A                      A
 Frequencies --   1480.6485              1670.2693              3010.8868
 Red. masses --      1.0993                 6.2521                 1.0585
 Frc consts  --      1.4199                10.2766                 5.6536
 IR Inten    --      1.9895                 1.7728                37.5442

                     43                     44                     45
                      A                      A                      A
 Frequencies --   3043.8347              3051.0045              3057.2414
 Red. masses --      1.1029                 1.0837                 1.0602
 Frc consts  --      6.0202                 5.9436                 5.8386
 IR Inten    --     22.0474                27.9006                15.2367

                     46                     47                     48
                      A                      A                      A
 Frequencies --   3083.0496              3119.3478              3176.5916
 Red. masses --      1.0885                 1.1077                 1.0843
 Frc consts  --      6.0958                 6.3506                 6.4465
 IR Inten    --     38.5960                20.7003                 5.7784

                     49                     50                     51
                      A                      A                      A
 Frequencies --   3200.9964              3776.5150              3793.8180
 Red. masses --      1.1030                 1.0658                 1.0659
 Frc consts  --      6.6585                 8.9557                 9.0392
 IR Inten    --     26.4445                23.6701                16.7185

 - Thermochemistry -
 -------------------
 Temperature   298.150 Kelvin.  Pressure   1.00000 Atm.
 Atom     1 has atomic number  8 and mass  15.99491

 Molecular mass:   126.06808 amu.
 Principal axes and moments of inertia in atomic units:
                           1         2         3
     Eigenvalues --   665.322331139.217671448.74347
           X            0.99996   0.00861  -0.00243
           Y           -0.00854   0.99959   0.02730
           Z            0.00266  -0.02727   0.99962
 This molecule is an asymmetric top.
 Rotational symmetry number  1.
 Warning -- assumption of classical behavior for rotation
           may cause significant error
 Rotational temperatures (Kelvin)      0.13018     0.07603     0.05979
 Rotational constants (GHZ):           2.71258     1.58419     1.24573
 Zero-point vibrational energy     419198.5 (Joules/Mol)
                                  100.19085 (Kcal/Mol)
 Warning -- explicit consideration of  11 degrees of freedom as
           vibrations may cause significant error
 Vibrational temperatures:    110.21   284.44   367.89   446.98   503.96
          (Kelvin)            533.47   579.89   620.22   650.11   676.82
                              844.54   965.60  1056.73  1125.01  1184.87
                             1220.63  1315.75  1370.92  1377.63  1398.14
                             1413.51  1456.57  1485.85  1502.22  1574.83
                             1614.32  1635.01  1683.24  1716.91  1760.05
                             1785.89  1820.18  1832.48  1865.85  1914.25
                             1955.33  1994.97  2070.30  2095.32  2130.32
                             2403.14  4331.99  4379.39  4389.71  4398.68
                             4435.82  4488.04  4570.40  4605.51  5433.56
                             5458.45

 Zero-point correction=                           0.159664 (Hartree/Particle)
 Thermal correction to Energy=                    0.167672
 Thermal correction to Enthalpy=                  0.168616
 Thermal correction to Gibbs Free Energy=         0.127439
 Sum of electronic and zero-point Energies=           -423.020915
 Sum of electronic and thermal Energies=              -423.012907
 Sum of electronic and thermal Enthalpies=            -423.011963
 Sum of electronic and thermal Free Energies=         -423.053140

                     E (Thermal)             CV                S
                      KCal/Mol        Cal/Mol-Kelvin    Cal/Mol-Kelvin
 Total                  105.216             32.328             86.664
 Electronic               0.000              0.000              0.000
 Translational            0.889              2.981             40.409
 Rotational               0.889              2.981             28.487
 Vibrational            103.438             26.366             17.769
 Vibration     1          0.599              1.965              3.976
 Vibration     2          0.637              1.843              2.154
 Vibration     3          0.666              1.753              1.691
 Vibration     4          0.700              1.653              1.359
 Vibration     5          0.727              1.575              1.165
 Vibration     6          0.743              1.532              1.077
 Vibration     7          0.768              1.464              0.952
 Vibration     8          0.792              1.403              0.855
 Vibration     9          0.811              1.357              0.790
 Vibration    10          0.827              1.316              0.736
 Vibration    11          0.944              1.060              0.473

 Optimization completed.
    -- Stationary point found.
 Normal termination of Gaussian 09 at Tue Jan 28 03:15:34 2020.
