 Gaussian 09, Revision D.01,
 Gaussian 09:  ES64L-G09RevD.01 24-Apr-2013

 -----------------------------
 # b3lyp 6-31G(2df,p) opt Freq
 -----------------------------

 -----
 titel
 -----
 Symbolic Z-matrix:
 Charge =  0 Multiplicity = 1

 SCF Done:  E(RB3LYP) =  -423.121172120     A.U. after   12 cycles
 Optimization completed.
    -- Stationary point found.
 Normal termination of Gaussian 09 at Mon Jan 27 23:08:59 2020.

 ----------------------------------------------------------------------
 #N Geom=AllCheck Guess=TCheck SCRF=Check GenChk RB3LYP/6-31G(2df,p) Fr
 eq
 ----------------------------------------------------------------------

 Structure from the checkpoint file:  "/scratch/puck/g09_d98c1f7a-9f55-43a6-8cf3-8a3bc5295eed/Gau-162090.chk"
 -----
 titel
 -----
 Charge =  0 Multiplicity = 1

                         Standard orientation:
 ---------------------------------------------------------------------
 Center     Atomic      Atomic             Coordinates (Angstroms)
 Number     Number       Type             X           Y           Z
 ---------------------------------------------------------------------
      1          8           0       -0.530676    2.117943   -0.124225
      2          6           0       -0.759446    0.796673   -0.562604
      3          6           0       -1.843853    0.028830    0.213464
      4          6           0       -1.816406   -1.416062   -0.194447
      5          6           0       -0.784573   -0.913413    0.779718
      6          6           0        0.317749   -0.163028    0.033901
      7          6           0        1.403566   -0.871261   -0.798799
      8          8           0        2.458553   -0.287544   -0.011092
      9          6           0        1.510636    0.435833    0.804460
     10          1           0       -1.277182    2.657382   -0.403806
     11          1           0       -0.861701    0.758869   -1.658834
     12          1           0       -2.694793    0.486170    0.704249
     13          1           0       -2.596883   -2.037938    0.231899
     14          1           0       -1.530529   -1.698444   -1.206140
     15          1           0       -0.688628   -1.323074    1.778761
     16          1           0        1.398223   -1.967874   -0.740670
     17          1           0        1.462862   -0.569920   -1.853688
     18          1           0        1.573577    0.146698    1.861661
     19          1           0        1.626005    1.519512    0.714953
 ---------------------------------------------------------------------

 SCF Done:  E(RB3LYP) =  -423.121172120     A.U. after    1 cycles

 The electronic state is 1-A.
 Alpha  occ. eigenvalues --  -19.14567 -19.12142 -10.23916 -10.22084 -10.21837
 Alpha  occ. eigenvalues --  -10.19629 -10.19585 -10.19446 -10.19392  -1.03227
 Alpha  occ. eigenvalues --   -1.02412  -0.89615  -0.74286  -0.68326  -0.67185
 Alpha  occ. eigenvalues --   -0.60784  -0.57822  -0.53679  -0.51589  -0.50375
 Alpha  occ. eigenvalues --   -0.48462  -0.45719  -0.42954  -0.41741  -0.40372
 Alpha  occ. eigenvalues --   -0.39214  -0.36724  -0.33923  -0.32119  -0.31496
 Alpha  occ. eigenvalues --   -0.29111  -0.26548  -0.25838  -0.23816
 Alpha virt. eigenvalues --    0.06688   0.08094   0.09591   0.10440   0.11630
 Alpha virt. eigenvalues --    0.12735   0.13848   0.15136   0.16032   0.16944
 Alpha virt. eigenvalues --    0.17866   0.18685   0.20342   0.20738   0.22604

 Mulliken charges:
               1
     1  O   -0.431815
     2  C    0.045256
     3  C   -0.087059
     4  C   -0.300296
     5  C   -0.120778
     6  C    0.286359
     7  C   -0.137395
     8  O   -0.277929
     9  C   -0.138417
    10  H    0.286608
    11  H    0.062239
    12  H    0.088171
    13  H    0.116553
    14  H    0.108048
    15  H    0.089034
    16  H    0.097102
    17  H    0.095670
    18  H    0.094678
    19  H    0.123970
 Sum of Mulliken charges =   0.00000

 Dipole moment (field-independent basis, Debye):
    X=             -3.2097    Y=              0.0414    Z=             -0.3639  Tot=              3.2305
 Quadrupole moment (field-independent basis, Debye-Ang):
   XX=            -57.4111   YY=            -50.8003   ZZ=            -50.8437
   XY=             -1.9705   XZ=              0.3915   YZ=             -1.1802

  Exact polarizability:  78.682   1.100  76.531   0.903   1.796  68.761
 Approx polarizability: 108.206  -0.714 110.811   3.122   2.915 104.065

                      1                      2                      3
                      A                      A                      A
 Frequencies --     62.6346               107.2764               219.4288
 Red. masses --      3.7981                 3.1276                 2.4124
 Frc consts  --      0.0088                 0.0212                 0.0684
 IR Inten    --      2.7805                 0.2456                 4.2804

                      4                      5                      6
                      A                      A                      A
 Frequencies --    252.2361               270.8760               301.5673
 Red. masses --      1.9412                 1.5892                 2.6769
 Frc consts  --      0.0728                 0.0687                 0.1434
 IR Inten    --     11.2139                67.6388                30.3593

                      7                      8                      9
                      A                      A                      A
 Frequencies --    351.7753               487.4837               507.9977
 Red. masses --      2.6506                 3.2788                 4.1393
 Frc consts  --      0.1933                 0.4591                 0.6294
 IR Inten    --      0.0536                 2.5620                 5.8967

                     10                     11                     12
                      A                      A                      A
 Frequencies --    538.0383               758.9667               786.5773
 Red. masses --      3.7481                 2.2044                 1.5832
 Frc consts  --      0.6393                 0.7482                 0.5771
 IR Inten    --      5.9537                 9.4428                 6.7150

                     13                     14                     15
                      A                      A                      A
 Frequencies --    834.1260               855.0324               916.5147
 Red. masses --      2.1826                 3.6126                 1.9097
 Frc consts  --      0.8947                 1.5561                 0.9451
 IR Inten    --      2.1866                10.5073                13.5459

                     16                     17                     18
                      A                      A                      A
 Frequencies --    932.9234               946.9378               975.7171
 Red. masses --      1.9116                 2.3219                 1.6278
 Frc consts  --      0.9803                 1.2267                 0.9131
 IR Inten    --      9.0246                 8.0806                 7.7820

                     19                     20                     21
                      A                      A                      A
 Frequencies --    986.2160              1004.7015              1038.8281
 Red. masses --      3.6647                 1.7000                10.2798
 Frc consts  --      2.1001                 1.0111                 6.5362
 IR Inten    --     17.6081                 1.5073                73.4744

                     22                     23                     24
                      A                      A                      A
 Frequencies --   1044.0463              1061.5286              1079.9198
 Red. masses --      1.5048                 1.3352                 1.7661
 Frc consts  --      0.9664                 0.8865                 1.2135
 IR Inten    --     11.6273                 3.1381                20.0542

                     25                     26                     27
                      A                      A                      A
 Frequencies --   1087.1024              1147.7740              1152.7721
 Red. masses --      2.0689                 1.9972                 1.6874
 Frc consts  --      1.4405                 1.5502                 1.3212
 IR Inten    --     25.6595                13.2096                21.4785

                     28                     29                     30
                      A                      A                      A
 Frequencies --   1159.1895              1172.6919              1210.3132
 Red. masses --      1.0822                 1.8367                 1.4765
 Frc consts  --      0.8568                 1.4882                 1.2743
 IR Inten    --      0.9576                 3.7093                21.8036

                     31                     32                     33
                      A                      A                      A
 Frequencies --   1223.0764              1235.7919              1286.4303
 Red. masses --      2.2304                 2.0978                 1.4979
 Frc consts  --      1.9658                 1.8876                 1.4605
 IR Inten    --      4.1451                21.3455                13.9508

                     34                     35                     36
                      A                      A                      A
 Frequencies --   1305.5457              1316.3069              1351.4044
 Red. masses --      1.2937                 2.1028                 1.7715
 Frc consts  --      1.2991                 2.1466                 1.9062
 IR Inten    --      1.1253                32.2034                10.2140

                     37                     38                     39
                      A                      A                      A
 Frequencies --   1381.7044              1418.9276              1489.3185
 Red. masses --      1.7763                 1.5320                 1.2109
 Frc consts  --      1.9980                 1.8173                 1.5825
 IR Inten    --      3.8774                 5.2626                 2.6572

                     40                     41                     42
                      A                      A                      A
 Frequencies --   1505.8601              1532.5369              2967.4216
 Red. masses --      1.0784                 1.1083                 1.0838
 Frc consts  --      1.4407                 1.5336                 5.6229
 IR Inten    --      0.9304                 0.8436                57.1087

                     43                     44                     45
                      A                      A                      A
 Frequencies --   2995.3574              3016.4206              3038.7146
 Red. masses --      1.0542                 1.0653                 1.1101
 Frc consts  --      5.5730                 5.7107                 6.0396
 IR Inten    --     98.1391                30.9380                45.7386

                     46                     47                     48
                      A                      A                      A
 Frequencies --   3089.8394              3100.9186              3171.6553
 Red. masses --      1.1005                 1.0584                 1.0896
 Frc consts  --      6.1904                 5.9965                 6.4578
 IR Inten    --     22.6669                20.8917                18.0858

                     49                     50                     51
                      A                      A                      A
 Frequencies --   3182.6446              3199.6394              3817.4456
 Red. masses --      1.0993                 1.1083                 1.0661
 Frc consts  --      6.5608                 6.6850                 9.1540
 IR Inten    --      7.6617                18.2307                26.4289

 - Thermochemistry -
 -------------------
 Temperature   298.150 Kelvin.  Pressure   1.00000 Atm.
 Atom     1 has atomic number  8 and mass  15.99491

 Molecular mass:   126.06808 amu.
 Principal axes and moments of inertia in atomic units:
                           1         2         3
     Eigenvalues --   691.761531145.028831522.99864
           X            0.99979   0.02036   0.00194
           Y           -0.02038   0.99974   0.01049
           Z           -0.00172  -0.01053   0.99994
 This molecule is an asymmetric top.
 Rotational symmetry number  1.
 Warning -- assumption of classical behavior for rotation
           may cause significant error
 Rotational temperatures (Kelvin)      0.12521     0.07564     0.05687
 Rotational constants (GHZ):           2.60891     1.57615     1.18499
 Zero-point vibrational energy     417964.2 (Joules/Mol)
                                   99.89583 (Kcal/Mol)
 Warning -- explicit consideration of  10 degrees of freedom as
           vibrations may cause significant error
 Vibrational temperatures:     90.12   154.35   315.71   362.91   389.73
          (Kelvin)            433.89   506.13   701.38   730.89   774.12
                             1091.98  1131.71  1200.12  1230.20  1318.66
                             1342.27  1362.43  1403.84  1418.94  1445.54
                             1494.64  1502.15  1527.30  1553.76  1564.10
                             1651.39  1658.58  1667.81  1687.24  1741.37
                             1759.73  1778.03  1850.88  1878.39  1893.87
                             1944.37  1987.96  2041.52  2142.79  2166.59
                             2204.98  4269.45  4309.65  4339.95  4372.03
                             4445.58  4461.52  4563.30  4579.11  4603.56
                             5492.45

 Zero-point correction=                           0.159194 (Hartree/Particle)
 Thermal correction to Energy=                    0.167362
 Thermal correction to Enthalpy=                  0.168306
 Thermal correction to Gibbs Free Energy=         0.126147
 Sum of electronic and zero-point Energies=           -422.961978
 Sum of electronic and thermal Energies=              -422.953810
 Sum of electronic and thermal Enthalpies=            -422.952866
 Sum of electronic and thermal Free Energies=         -422.995026

                     E (Thermal)             CV                S
                      KCal/Mol        Cal/Mol-Kelvin    Cal/Mol-Kelvin
 Total                  105.021             31.265             88.733
 Electronic               0.000              0.000              0.000
 Translational            0.889              2.981             40.409
 Rotational               0.889              2.981             28.580
 Vibrational            103.244             25.303             19.744
 Vibration     1          0.597              1.972              4.372
 Vibration     2          0.606              1.943              3.318
 Vibration     3          0.647              1.811              1.964
 Vibration     4          0.664              1.759              1.715
 Vibration     5          0.675              1.727              1.591
 Vibration     6          0.694              1.671              1.408
 Vibration     7          0.728              1.572              1.158
 Vibration     8          0.843              1.278              0.690
 Vibration     9          0.863              1.232              0.638
 Vibration    10          0.893              1.166              0.570

 Normal termination of Gaussian 09 at Mon Jan 27 23:55:27 2020.
