 Gaussian 09, Revision D.01,
 Gaussian 09:  ES64L-G09RevD.01 24-Apr-2013

 -----------------------------
 # b3lyp 6-31G(2df,p) opt Freq
 -----------------------------

 -----
 titel
 -----
 Symbolic Z-matrix:
 Charge =  0 Multiplicity = 1

 SCF Done:  E(RB3LYP) =  -423.132953457     A.U. after   13 cycles
 Optimization completed.
    -- Stationary point found.
 Normal termination of Gaussian 09 at Mon Jan 27 22:06:00 2020.

 ----------------------------------------------------------------------
 #N Geom=AllCheck Guess=TCheck SCRF=Check GenChk RB3LYP/6-31G(2df,p) Fr
 eq
 ----------------------------------------------------------------------

 Structure from the checkpoint file:  "/scratch/puck/g09_1f12c62d-e888-4b3a-8595-c9c3cc2d4882/Gau-111373.chk"
 -----
 titel
 -----
 Charge =  0 Multiplicity = 1

                         Standard orientation:
 ---------------------------------------------------------------------
 Center     Atomic      Atomic             Coordinates (Angstroms)
 Number     Number       Type             X           Y           Z
 ---------------------------------------------------------------------
      1          8           0        2.514638   -0.555653   -0.039161
      2          6           0        1.153285   -0.761007   -0.334291
      3          6           0        0.195736   -0.575957    0.840911
      4          6           0       -1.314351   -0.830592    0.671174
      5          6           0       -1.842819    0.647443    0.622196
      6          6           0       -1.049884    0.648428   -0.733417
      7          6           0       -1.530968   -0.821920   -0.869435
      8          6           0        0.384546    0.525182   -0.203316
      9          8           0        1.062119    1.718674   -0.013826
     10          1           0        2.803627   -1.241119    0.571783
     11          1           0        0.986527   -1.495538   -1.119269
     12          1           0        0.625704   -0.495617    1.834059
     13          1           0       -1.772513   -1.591069    1.304784
     14          1           0       -2.925852    0.714225    0.486721
     15          1           0       -1.504355    1.335749    1.400310
     16          1           0       -1.214371    1.391848   -1.512633
     17          1           0       -2.592128   -0.868339   -1.122448
     18          1           0       -0.982825   -1.520692   -1.502794
     19          1           0        1.988864    1.476921    0.120456
 ---------------------------------------------------------------------

 SCF Done:  E(RB3LYP) =  -423.132953457     A.U. after    1 cycles

 The electronic state is 1-A.
 Alpha  occ. eigenvalues --  -19.15751 -19.13209 -10.23532 -10.23036 -10.19623
 Alpha  occ. eigenvalues --  -10.19169 -10.18350 -10.18016 -10.17864  -1.04768
 Alpha  occ. eigenvalues --   -1.01297  -0.89837  -0.78916  -0.67615  -0.66099
 Alpha  occ. eigenvalues --   -0.61684  -0.55623  -0.53874  -0.52144  -0.51732
 Alpha  occ. eigenvalues --   -0.48021  -0.46809  -0.40887  -0.39136  -0.38252
 Alpha  occ. eigenvalues --   -0.36895  -0.35263  -0.34431  -0.33806  -0.31795
 Alpha  occ. eigenvalues --   -0.30961  -0.30015  -0.26529  -0.21297
 Alpha virt. eigenvalues --    0.06548   0.10110   0.10785   0.12146   0.13086
 Alpha virt. eigenvalues --    0.13651   0.14205   0.15490   0.16704   0.16962
 Alpha virt. eigenvalues --    0.18743   0.19645   0.21601   0.23086   0.23260

 Mulliken charges:
               1
     1  O   -0.447982
     2  C   -0.043513
     3  C   -0.178493
     4  C   -0.046264
     5  C   -0.213355
     6  C   -0.089121
     7  C   -0.238739
     8  C    0.469647
     9  O   -0.487882
    10  H    0.293856
    11  H    0.089582
    12  H    0.084973
    13  H    0.060122
    14  H    0.089932
    15  H    0.103672
    16  H    0.069646
    17  H    0.098765
    18  H    0.095413
    19  H    0.289739
 Sum of Mulliken charges =   0.00000

 Dipole moment (field-independent basis, Debye):
    X=              0.0019    Y=             -2.1111    Z=              0.7682  Tot=              2.2465
 Quadrupole moment (field-independent basis, Debye-Ang):
   XX=            -49.6993   YY=            -54.6961   ZZ=            -52.1221
   XY=             -2.7772   XZ=              3.4776   YZ=             -0.5904

  Exact polarizability:  85.589  -1.737  70.725   1.105   0.200  66.702
 Approx polarizability: 116.847  -1.734 110.434  -0.075  -1.959 104.223

                      1                      2                      3
                      A                      A                      A
 Frequencies --    203.9081               234.0014               268.6712
 Red. masses --      2.7521                 3.8078                 4.3937
 Frc consts  --      0.0674                 0.1228                 0.1869
 IR Inten    --     10.7016                 0.2467                17.5413

                      4                      5                      6
                      A                      A                      A
 Frequencies --    274.9873               359.1554               412.6054
 Red. masses --      1.3832                 3.7253                 1.8020
 Frc consts  --      0.0616                 0.2831                 0.1807
 IR Inten    --     36.5479                12.7833                17.7132

                      7                      8                      9
                      A                      A                      A
 Frequencies --    427.5355               472.9459               504.7496
 Red. masses --      1.4103                 3.6323                 2.6745
 Frc consts  --      0.1519                 0.4787                 0.4015
 IR Inten    --     82.9951                12.9199                13.6775

                     10                     11                     12
                      A                      A                      A
 Frequencies --    575.2579               663.8369               715.2395
 Red. masses --      2.1368                 3.8683                 2.9243
 Frc consts  --      0.4166                 1.0044                 0.8814
 IR Inten    --      2.8910                 5.8401                 7.3169

                     13                     14                     15
                      A                      A                      A
 Frequencies --    801.7797               829.5186               838.6994
 Red. masses --      4.4833                 2.2709                 2.4711
 Frc consts  --      1.6981                 0.9207                 1.0241
 IR Inten    --      4.8845                 1.7957                 0.1884

                     16                     17                     18
                      A                      A                      A
 Frequencies --    864.0106               906.4936               946.2099
 Red. masses --      2.3891                 3.7075                 1.8259
 Frc consts  --      1.0508                 1.7950                 0.9632
 IR Inten    --      2.1736                13.5628                 4.0728

                     19                     20                     21
                      A                      A                      A
 Frequencies --    967.0930               990.7086              1005.6701
 Red. masses --      1.7566                 1.9310                 1.7488
 Frc consts  --      0.9680                 1.1167                 1.0421
 IR Inten    --      2.6691                15.0206                 2.3955

                     22                     23                     24
                      A                      A                      A
 Frequencies --   1025.0034              1049.4804              1064.5029
 Red. masses --      2.2772                 1.2888                 1.2632
 Frc consts  --      1.4096                 0.8363                 0.8434
 IR Inten    --      0.3226                22.1858                 1.0868

                     25                     26                     27
                      A                      A                      A
 Frequencies --   1074.4486              1104.1709              1106.2835
 Red. masses --      1.6810                 1.6636                 1.3230
 Frc consts  --      1.1434                 1.1950                 0.9540
 IR Inten    --     30.1773                 7.1270                 2.9838

                     28                     29                     30
                      A                      A                      A
 Frequencies --   1128.9430              1160.3183              1218.2537
 Red. masses --      2.5962                 2.0009                 1.3629
 Frc consts  --      1.9495                 1.5872                 1.1918
 IR Inten    --     48.7107                39.0709                 2.0419

                     31                     32                     33
                      A                      A                      A
 Frequencies --   1230.3341              1241.5635              1258.3321
 Red. masses --      1.6731                 1.6252                 1.8001
 Frc consts  --      1.4921                 1.4760                 1.6793
 IR Inten    --      7.1383                 6.6678                40.6232

                     34                     35                     36
                      A                      A                      A
 Frequencies --   1272.2662              1277.8570              1298.6527
 Red. masses --      1.7657                 1.2760                 1.4528
 Frc consts  --      1.6839                 1.2276                 1.4436
 IR Inten    --      4.4004                41.8484                16.1937

                     37                     38                     39
                      A                      A                      A
 Frequencies --   1335.1980              1415.3111              1441.2684
 Red. masses --      1.6373                 1.8883                 2.4699
 Frc consts  --      1.7198                 2.2286                 3.0229
 IR Inten    --     82.6260                11.1769                54.3998

                     40                     41                     42
                      A                      A                      A
 Frequencies --   1490.4530              1533.6613              3056.3701
 Red. masses --      1.1050                 1.1132                 1.0560
 Frc consts  --      1.4462                 1.5428                 5.8118
 IR Inten    --      1.0828                 2.9305                39.6094

                     43                     44                     45
                      A                      A                      A
 Frequencies --   3073.8142              3102.6154              3107.5451
 Red. masses --      1.0589                 1.0899                 1.0918
 Frc consts  --      5.8948                 6.1816                 6.2122
 IR Inten    --     16.1741                49.9303                28.8133

                     46                     47                     48
                      A                      A                      A
 Frequencies --   3121.7717              3125.1969              3129.2336
 Red. masses --      1.1057                 1.0928                 1.1031
 Frc consts  --      6.3487                 6.2883                 6.3640
 IR Inten    --     34.3109                47.1100                46.5428

                     49                     50                     51
                      A                      A                      A
 Frequencies --   3165.9193              3753.6242              3812.9530
 Red. masses --      1.0903                 1.0645                 1.0665
 Frc consts  --      6.4385                 8.8372                 9.1356
 IR Inten    --     12.0667                59.4075                30.9753

 - Thermochemistry -
 -------------------
 Temperature   298.150 Kelvin.  Pressure   1.00000 Atm.
 Atom     1 has atomic number  8 and mass  15.99491

 Molecular mass:   126.06808 amu.
 Principal axes and moments of inertia in atomic units:
                           1         2         3
     Eigenvalues --   570.206131168.891991377.38820
           X            0.99991  -0.00902   0.00970
           Y            0.00877   0.99963   0.02562
           Z           -0.00993  -0.02553   0.99962
 This molecule is an asymmetric top.
 Rotational symmetry number  1.
 Warning -- assumption of classical behavior for rotation
           may cause significant error
 Rotational temperatures (Kelvin)      0.15190     0.07410     0.06288
 Rotational constants (GHZ):           3.16507     1.54398     1.31026
 Zero-point vibrational energy     421315.3 (Joules/Mol)
                                  100.69678 (Kcal/Mol)
 Warning -- explicit consideration of  10 degrees of freedom as
           vibrations may cause significant error
 Vibrational temperatures:    293.38   336.68   386.56   395.64   516.74
          (Kelvin)            593.65   615.13   680.46   726.22   827.67
                              955.11  1029.07  1153.58  1193.49  1206.70
                             1243.12  1304.24  1361.38  1391.43  1425.41
                             1446.93  1474.75  1509.97  1531.58  1545.89
                             1588.65  1591.69  1624.30  1669.44  1752.79
                             1770.17  1786.33  1810.46  1830.51  1838.55
                             1868.47  1921.05  2036.31  2073.66  2144.43
                             2206.59  4397.43  4422.53  4463.97  4471.06
                             4491.53  4496.46  4502.26  4555.05  5400.62
                             5485.98

 Zero-point correction=                           0.160471 (Hartree/Particle)
 Thermal correction to Energy=                    0.167916
 Thermal correction to Enthalpy=                  0.168860
 Thermal correction to Gibbs Free Energy=         0.129250
 Sum of electronic and zero-point Energies=           -422.972483
 Sum of electronic and thermal Energies=              -422.965038
 Sum of electronic and thermal Enthalpies=            -422.964094
 Sum of electronic and thermal Free Energies=         -423.003704

                     E (Thermal)             CV                S
                      KCal/Mol        Cal/Mol-Kelvin    Cal/Mol-Kelvin
 Total                  105.369             31.273             83.366
 Electronic               0.000              0.000              0.000
 Translational            0.889              2.981             40.409
 Rotational               0.889              2.981             28.309
 Vibrational            103.591             25.311             14.649
 Vibration     1          0.640              1.834              2.098
 Vibration     2          0.654              1.789              1.848
 Vibration     3          0.673              1.731              1.605
 Vibration     4          0.677              1.720              1.565
 Vibration     5          0.734              1.556              1.126
 Vibration     6          0.776              1.443              0.917
 Vibration     7          0.789              1.410              0.867
 Vibration     8          0.830              1.310              0.729
 Vibration     9          0.860              1.239              0.646
 Vibration    10          0.932              1.085              0.494

 Normal termination of Gaussian 09 at Mon Jan 27 23:04:01 2020.
