 Gaussian 09, Revision D.01,
 Gaussian 09:  ES64L-G09RevD.01 24-Apr-2013

 -----------------------------
 # b3lyp 6-31G(2df,p) opt Freq
 -----------------------------

 -----
 titel
 -----
 Symbolic Z-matrix:
 Charge =  0 Multiplicity = 1

 SCF Done:  E(RB3LYP) =  -423.142584866     A.U. after   14 cycles
 Optimization completed.
    -- Stationary point found.
 Normal termination of Gaussian 09 at Mon Jan 27 16:04:09 2020.

 ----------------------------------------------------------------------
 #N Geom=AllCheck Guess=TCheck SCRF=Check GenChk RB3LYP/6-31G(2df,p) Fr
 eq
 ----------------------------------------------------------------------

 Structure from the checkpoint file:  "/scratch/puck/g09_321af697-8653-484b-8c6b-b23eb31cdcb9/Gau-46235.chk"
 -----
 titel
 -----
 Charge =  0 Multiplicity = 1

                         Standard orientation:
 ---------------------------------------------------------------------
 Center     Atomic      Atomic             Coordinates (Angstroms)
 Number     Number       Type             X           Y           Z
 ---------------------------------------------------------------------
      1          6           0        0.726648    1.647551   -1.041299
      2          6           0        0.600490    0.607875    0.066600
      3          8           0        0.517182    1.274882    1.311202
      4          6           0        1.521913   -0.651831    0.101113
      5          6           0        0.697617   -1.238730   -1.087521
      6          6           0       -0.352522   -0.624758   -0.109755
      7          6           0        0.470302   -1.324852    1.035824
      8          6           0       -1.832289   -0.554547   -0.212628
      9          8           0       -2.454197    0.460787    0.006355
     10          1           0        1.568238    2.308178   -0.814005
     11          1           0        0.879554    1.226318   -2.036064
     12          1           0       -0.181375    2.259345   -1.076604
     13          1           0       -0.317791    1.757011    1.314315
     14          1           0        2.606372   -0.666391    0.215716
     15          1           0        0.801835   -0.784387   -2.072080
     16          1           0        0.697172   -2.328236   -1.158202
     17          1           0        0.353280   -0.907108    2.031888
     18          1           0        0.452809   -2.416633    1.028060
     19          1           0       -2.356926   -1.497708   -0.487485
 ---------------------------------------------------------------------

 SCF Done:  E(RB3LYP) =  -423.142584866     A.U. after    1 cycles

 The electronic state is 1-A.
 Alpha  occ. eigenvalues --  -19.14621 -19.13516 -10.27470 -10.24688 -10.21204
 Alpha  occ. eigenvalues --  -10.20896 -10.20198 -10.19749 -10.17646  -1.05072
 Alpha  occ. eigenvalues --   -1.02541  -0.91258  -0.73490  -0.69220  -0.67254
 Alpha  occ. eigenvalues --   -0.63224  -0.58319  -0.54139  -0.50828  -0.48463
 Alpha  occ. eigenvalues --   -0.46784  -0.44871  -0.43307  -0.41364  -0.39875
 Alpha  occ. eigenvalues --   -0.38340  -0.36832  -0.34778  -0.34014  -0.33340
 Alpha  occ. eigenvalues --   -0.32551  -0.30162  -0.26912  -0.24882
 Alpha virt. eigenvalues --   -0.03499   0.08143   0.10828   0.11644   0.12489
 Alpha virt. eigenvalues --    0.12875   0.13826   0.14509   0.15548   0.16320
 Alpha virt. eigenvalues --    0.17245   0.18356   0.19196   0.20912   0.21835

 Mulliken charges:
               1
     1  C   -0.484998
     2  C    0.433005
     3  O   -0.488672
     4  C   -0.097419
     5  C   -0.295219
     6  C    0.188764
     7  C   -0.267939
     8  C    0.024777
     9  O   -0.266886
    10  H    0.129287
    11  H    0.117530
    12  H    0.128901
    13  H    0.289080
    14  H    0.079992
    15  H    0.104636
    16  H    0.103029
    17  H    0.128348
    18  H    0.094422
    19  H    0.079360
 Sum of Mulliken charges =   0.00000

 Dipole moment (field-independent basis, Debye):
    X=              0.9159    Y=             -1.4846    Z=             -1.1197  Tot=              2.0729
 Quadrupole moment (field-independent basis, Debye-Ang):
   XX=            -58.4388   YY=            -50.6972   ZZ=            -53.5974
   XY=              1.3428   XZ=             -1.5948   YZ=             -0.4275

  Exact polarizability:  78.692  -2.298  81.776  -0.499   0.352  68.597
 Approx polarizability: 117.459  -9.864 121.304  -0.267   4.497 104.401

                      1                      2                      3
                      A                      A                      A
 Frequencies --     56.3333               120.7353               175.5443
 Red. masses --      4.1761                 4.7041                 2.0939
 Frc consts  --      0.0078                 0.0404                 0.0380
 IR Inten    --      7.0961                11.3103                 1.7958

                      4                      5                      6
                      A                      A                      A
 Frequencies --    200.8816               283.5058               340.7636
 Red. masses --      1.1352                 1.8858                 1.3713
 Frc consts  --      0.0270                 0.0893                 0.0938
 IR Inten    --      1.1398                16.7960                68.9535

                      7                      8                      9
                      A                      A                      A
 Frequencies --    351.8805               415.1730               427.9112
 Red. masses --      2.9562                 5.7730                 2.6196
 Frc consts  --      0.2157                 0.5863                 0.2826
 IR Inten    --      0.9911                15.9631                13.9716

                     10                     11                     12
                      A                      A                      A
 Frequencies --    472.6623               554.6334               574.6740
 Red. masses --      3.9828                 2.4049                 2.8588
 Frc consts  --      0.5243                 0.4359                 0.5563
 IR Inten    --      4.0970                 4.9381                 3.0867

                     13                     14                     15
                      A                      A                      A
 Frequencies --    674.7023               743.3636               783.3749
 Red. masses --      3.3072                 3.0041                 3.3820
 Frc consts  --      0.8870                 0.9781                 1.2228
 IR Inten    --      6.5820                 8.1801                 2.7919

                     16                     17                     18
                      A                      A                      A
 Frequencies --    819.6271               896.1778               923.7463
 Red. masses --      3.2960                 2.3397                 2.5315
 Frc consts  --      1.3046                 1.1071                 1.2727
 IR Inten    --     11.1401                 1.5085                 0.4843

                     19                     20                     21
                      A                      A                      A
 Frequencies --    969.5246               978.3561               999.5746
 Red. masses --      1.7689                 2.0965                 1.3924
 Frc consts  --      0.9797                 1.1823                 0.8197
 IR Inten    --     22.7266                13.9904                 4.2572

                     22                     23                     24
                      A                      A                      A
 Frequencies --   1017.8095              1059.2760              1071.8819
 Red. masses --      1.1283                 1.4468                 1.5662
 Frc consts  --      0.6887                 0.9565                 1.0602
 IR Inten    --      0.5590                 2.9602                 2.3502

                     25                     26                     27
                      A                      A                      A
 Frequencies --   1102.0724              1144.0765              1155.2359
 Red. masses --      1.5135                 1.6297                 1.7071
 Frc consts  --      1.0831                 1.2568                 1.3423
 IR Inten    --     23.0940                 1.6938                 3.0828

                     28                     29                     30
                      A                      A                      A
 Frequencies --   1169.3037              1198.1474              1216.0044
 Red. masses --      2.0917                 2.4866                 1.7620
 Frc consts  --      1.6850                 2.1032                 1.5350
 IR Inten    --     35.8341                38.3571                18.0638

                     31                     32                     33
                      A                      A                      A
 Frequencies --   1217.5370              1240.6408              1314.2240
 Red. masses --      2.0696                 1.7978                 3.6503
 Frc consts  --      1.8076                 1.6304                 3.7147
 IR Inten    --     19.0474                33.5681                32.3907

                     34                     35                     36
                      A                      A                      A
 Frequencies --   1363.5441              1410.6092              1420.3361
 Red. masses --      1.7098                 1.2748                 1.3154
 Frc consts  --      1.8730                 1.4945                 1.5635
 IR Inten    --     25.5434                10.4579                15.9661

                     37                     38                     39
                      A                      A                      A
 Frequencies --   1483.0791              1494.0673              1502.1534
 Red. masses --      1.0784                 1.0625                 1.0881
 Frc consts  --      1.3975                 1.3974                 1.4466
 IR Inten    --      1.8614                 6.0033                 2.7441

                     40                     41                     42
                      A                      A                      A
 Frequencies --   1537.8811              1793.0884              2872.8921
 Red. masses --      1.1353                10.5602                 1.0829
 Frc consts  --      1.5819                20.0044                 5.2661
 IR Inten    --      6.8991               150.9085               136.4810

                     43                     44                     45
                      A                      A                      A
 Frequencies --   3043.0348              3077.0497              3081.4596
 Red. masses --      1.0380                 1.0588                 1.0594
 Frc consts  --      5.6632                 5.9067                 5.9267
 IR Inten    --     16.3952                25.0360                38.7592

                     46                     47                     48
                      A                      A                      A
 Frequencies --   3107.1846              3110.5816              3128.5008
 Red. masses --      1.0995                 1.0915                 1.1031
 Frc consts  --      6.2544                 6.2225                 6.3613
 IR Inten    --      6.6171                61.3516                25.6323

                     49                     50                     51
                      A                      A                      A
 Frequencies --   3149.8913              3181.9426              3799.8866
 Red. masses --      1.1043                 1.1051                 1.0658
 Frc consts  --      6.4554                 6.5921                 9.0671
 IR Inten    --     34.2498                11.6697                31.4182

 - Thermochemistry -
 -------------------
 Temperature   298.150 Kelvin.  Pressure   1.00000 Atm.
 Atom     1 has atomic number  6 and mass  12.00000

 Molecular mass:   126.06808 amu.
 Principal axes and moments of inertia in atomic units:
                           1         2         3
     Eigenvalues --   846.984421048.553051274.15815
           X            0.99926   0.02867  -0.02552
           Y           -0.03020   0.99763  -0.06179
           Z            0.02369   0.06251   0.99776
 This molecule is an asymmetric top.
 Rotational symmetry number  1.
 Warning -- assumption of classical behavior for rotation
           may cause significant error
 Rotational temperatures (Kelvin)      0.10226     0.08260     0.06798
 Rotational constants (GHZ):           2.13078     1.72117     1.41642
 Zero-point vibrational energy     414066.6 (Joules/Mol)
                                   98.96430 (Kcal/Mol)
 Warning -- explicit consideration of  12 degrees of freedom as
           vibrations may cause significant error
 Vibrational temperatures:     81.05   173.71   252.57   289.02   407.90
          (Kelvin)            490.28   506.28   597.34   615.67   680.05
                              797.99   826.83   970.74  1069.53  1127.10
                             1179.26  1289.40  1329.06  1394.93  1407.63
                             1438.16  1464.40  1524.06  1542.20  1585.63
                             1646.07  1662.12  1682.37  1723.86  1749.56
                             1751.76  1785.00  1890.87  1961.83  2029.55
                             2043.54  2133.82  2149.63  2161.26  2212.67
                             2579.85  4133.45  4378.24  4427.18  4433.53
                             4470.54  4475.43  4501.21  4531.99  4578.10
                             5467.18

 Zero-point correction=                           0.157710 (Hartree/Particle)
 Thermal correction to Energy=                    0.166466
 Thermal correction to Enthalpy=                  0.167411
 Thermal correction to Gibbs Free Energy=         0.124262
 Sum of electronic and zero-point Energies=           -422.984875
 Sum of electronic and thermal Energies=              -422.976118
 Sum of electronic and thermal Enthalpies=            -422.975174
 Sum of electronic and thermal Free Energies=         -423.018323

                     E (Thermal)             CV                S
                      KCal/Mol        Cal/Mol-Kelvin    Cal/Mol-Kelvin
 Total                  104.459             33.435             90.813
 Electronic               0.000              0.000              0.000
 Translational            0.889              2.981             40.409
 Rotational               0.889              2.981             28.516
 Vibrational            102.682             27.473             21.888
 Vibration     1          0.596              1.975              4.582
 Vibration     2          0.609              1.932              3.089
 Vibration     3          0.628              1.873              2.375
 Vibration     4          0.638              1.839              2.125
 Vibration     5          0.682              1.704              1.512
 Vibration     6          0.720              1.594              1.209
 Vibration     7          0.728              1.571              1.158
 Vibration     8          0.779              1.437              0.909
 Vibration     9          0.789              1.409              0.866
 Vibration    10          0.830              1.311              0.730
 Vibration    11          0.910              1.130              0.535
 Vibration    12          0.931              1.086              0.495

 Optimization completed.
    -- Stationary point found.
 Normal termination of Gaussian 09 at Mon Jan 27 16:48:47 2020.
