 Gaussian 09, Revision D.01,
 Gaussian 09:  ES64L-G09RevD.01 24-Apr-2013

 -----------------------------
 # b3lyp 6-31G(2df,p) opt Freq
 -----------------------------

 -----
 titel
 -----
 Symbolic Z-matrix:
 Charge =  0 Multiplicity = 1

 SCF Done:  E(RB3LYP) =  -423.206630087     A.U. after   14 cycles
 Optimization completed.
    -- Stationary point found.
 Normal termination of Gaussian 09 at Tue Jan 28 03:13:00 2020.

 ----------------------------------------------------------------------
 #N Geom=AllCheck Guess=TCheck SCRF=Check GenChk RB3LYP/6-31G(2df,p) Fr
 eq
 ----------------------------------------------------------------------

 Structure from the checkpoint file:  "/scratch/puck/g09_3f777356-84aa-4bed-a4d2-10cc8f6a5d8b/Gau-115100.chk"
 -----
 titel
 -----
 Charge =  0 Multiplicity = 1

                         Standard orientation:
 ---------------------------------------------------------------------
 Center     Atomic      Atomic             Coordinates (Angstroms)
 Number     Number       Type             X           Y           Z
 ---------------------------------------------------------------------
      1          6           0       -2.322008    0.786001   -0.542710
      2          6           0       -1.087596    0.093243   -0.020343
      3          6           0       -1.189468   -0.896432    1.135150
      4          6           0       -0.725351   -1.377592   -0.204968
      5          6           0        0.795495   -1.527400   -0.351164
      6          6           0        1.335580   -0.090110   -0.476823
      7          8           0        2.546654    0.141924    0.192608
      8          6           0        0.211649    0.837006   -0.001117
      9          8           0        0.402695    1.990362    0.309671
     10          1           0       -2.210316    1.063879   -1.596196
     11          1           0       -3.200994    0.140571   -0.455314
     12          1           0       -2.511432    1.701963    0.025613
     13          1           0       -0.471045   -0.848974    1.948347
     14          1           0       -2.201969   -1.128539    1.449028
     15          1           0       -1.375764   -2.024774   -0.782054
     16          1           0        1.241226   -2.010191    0.523914
     17          1           0        1.055073   -2.127172   -1.225691
     18          1           0        1.430007    0.143929   -1.555627
     19          1           0        2.540621    1.082718    0.421594
 ---------------------------------------------------------------------

 SCF Done:  E(RB3LYP) =  -423.206630087     A.U. after    1 cycles

 The electronic state is 1-A.
 Alpha  occ. eigenvalues --  -19.13748 -19.13706 -10.26655 -10.23777 -10.21077
 Alpha  occ. eigenvalues --  -10.20655 -10.20291 -10.19296 -10.18926  -1.05208
 Alpha  occ. eigenvalues --   -1.01671  -0.89651  -0.76688  -0.72706  -0.67413
 Alpha  occ. eigenvalues --   -0.61573  -0.58015  -0.54064  -0.50417  -0.49260
 Alpha  occ. eigenvalues --   -0.47024  -0.44157  -0.42417  -0.41993  -0.40730
 Alpha  occ. eigenvalues --   -0.39605  -0.38380  -0.37603  -0.36551  -0.34225
 Alpha  occ. eigenvalues --   -0.30409  -0.28902  -0.27197  -0.24244
 Alpha virt. eigenvalues --   -0.02253   0.08358   0.09924   0.10624   0.11648
 Alpha virt. eigenvalues --    0.12053   0.13465   0.14481   0.15597   0.16570
 Alpha virt. eigenvalues --    0.18059   0.18439   0.20352   0.22169   0.23391

 Mulliken charges:
               1
     1  C   -0.486029
     2  C    0.232675
     3  C   -0.309396
     4  C   -0.092637
     5  C   -0.274503
     6  C    0.077165
     7  O   -0.437296
     8  C    0.295472
     9  O   -0.350880
    10  H    0.124014
    11  H    0.117906
    12  H    0.143160
    13  H    0.127139
    14  H    0.121676
    15  H    0.093675
    16  H    0.122177
    17  H    0.110903
    18  H    0.093457
    19  H    0.291325
 Sum of Mulliken charges =   0.00000

 Dipole moment (field-independent basis, Debye):
    X=             -1.9828    Y=             -1.7429    Z=             -0.7845  Tot=              2.7540
 Quadrupole moment (field-independent basis, Debye-Ang):
   XX=            -54.5580   YY=            -56.6865   ZZ=            -51.2459
   XY=              1.8622   XZ=             -0.5195   YZ=             -0.5171

  Exact polarizability:  82.116   0.792  78.733  -0.677   0.612  64.927
 Approx polarizability: 108.933   3.929 123.551  -0.071   3.395 101.056

                      1                      2                      3
                      A                      A                      A
 Frequencies --     43.6196               153.7864               181.0989
 Red. masses --      4.8013                 2.1671                 1.2426
 Frc consts  --      0.0054                 0.0302                 0.0240
 IR Inten    --      1.2917                 1.1859                 0.6096

                      4                      5                      6
                      A                      A                      A
 Frequencies --    232.3785               257.4322               292.7880
 Red. masses --      3.4888                 2.5921                 3.8575
 Frc consts  --      0.1110                 0.1012                 0.1948
 IR Inten    --     16.2716                 0.9594                 9.5390

                      7                      8                      9
                      A                      A                      A
 Frequencies --    389.8108               405.3961               426.2415
 Red. masses --      2.4882                 2.1648                 1.4253
 Frc consts  --      0.2228                 0.2096                 0.1526
 IR Inten    --     50.2533                 3.4291                29.6594

                     10                     11                     12
                      A                      A                      A
 Frequencies --    484.1890               530.2898               615.0726
 Red. masses --      2.9280                 4.0350                 4.7048
 Frc consts  --      0.4044                 0.6685                 1.0487
 IR Inten    --     20.2715                 3.6350                 0.2636

                     13                     14                     15
                      A                      A                      A
 Frequencies --    652.1727               785.4651               824.1790
 Red. masses --      4.2830                 2.9663                 3.2223
 Frc consts  --      1.0733                 1.0782                 1.2896
 IR Inten    --      3.9150                 2.4464                 8.4576

                     16                     17                     18
                      A                      A                      A
 Frequencies --    838.3205               865.1492               929.9278
 Red. masses --      2.5124                 1.5468                 1.7428
 Frc consts  --      1.0403                 0.6821                 0.8880
 IR Inten    --      0.4257                 2.0254                 2.0765

                     19                     20                     21
                      A                      A                      A
 Frequencies --    973.3040               982.7117              1034.4511
 Red. masses --      1.8257                 1.9027                 2.2567
 Frc consts  --      1.0190                 1.0826                 1.4228
 IR Inten    --      6.3401                42.7277                63.9883

                     22                     23                     24
                      A                      A                      A
 Frequencies --   1050.2829              1063.1976              1094.6478
 Red. masses --      2.0306                 1.3726                 1.6967
 Frc consts  --      1.3197                 0.9141                 1.1978
 IR Inten    --      7.1575                 7.5760                 1.0824

                     25                     26                     27
                      A                      A                      A
 Frequencies --   1103.0076              1126.9887              1159.8881
 Red. masses --      1.6989                 1.6590                 2.5413
 Frc consts  --      1.2178                 1.2414                 2.0144
 IR Inten    --     21.8866                10.7667                30.4067

                     28                     29                     30
                      A                      A                      A
 Frequencies --   1205.3574              1252.4470              1271.0110
 Red. masses --      1.5058                 1.3294                 1.5472
 Frc consts  --      1.2889                 1.2286                 1.4726
 IR Inten    --      7.2991                 7.6246                 8.6096

                     31                     32                     33
                      A                      A                      A
 Frequencies --   1288.0985              1327.8728              1356.0713
 Red. masses --      1.4692                 2.4173                 1.7286
 Frc consts  --      1.4362                 2.5113                 1.8729
 IR Inten    --     34.0154                11.2275                15.6395

                     34                     35                     36
                      A                      A                      A
 Frequencies --   1391.6232              1413.4233              1416.5187
 Red. masses --      1.9410                 1.3360                 1.5771
 Frc consts  --      2.2147                 1.5726                 1.8645
 IR Inten    --      6.6139                 2.2854                34.9973

                     37                     38                     39
                      A                      A                      A
 Frequencies --   1485.1308              1487.6477              1499.2785
 Red. masses --      1.1529                 1.1008                 1.0534
 Frc consts  --      1.4981                 1.4353                 1.3952
 IR Inten    --      7.4530                 0.5135                 8.6975

                     40                     41                     42
                      A                      A                      A
 Frequencies --   1502.9662              1819.6249              2907.7634
 Red. masses --      1.1147                12.6831                 1.0793
 Frc consts  --      1.4836                24.7422                 5.3766
 IR Inten    --      1.6947               204.9372                36.3123

                     43                     44                     45
                      A                      A                      A
 Frequencies --   3034.3832              3060.7822              3099.8331
 Red. masses --      1.0351                 1.0618                 1.1010
 Frc consts  --      5.6151                 5.8606                 6.2330
 IR Inten    --     28.0049                24.7887                16.3825

                     46                     47                     48
                      A                      A                      A
 Frequencies --   3109.6049              3111.5446              3120.4852
 Red. masses --      1.1035                 1.1015                 1.0546
 Frc consts  --      6.2869                 6.2835                 6.0506
 IR Inten    --     15.3745                11.6691                12.4068

                     49                     50                     51
                      A                      A                      A
 Frequencies --   3175.8029              3207.4847              3733.5270
 Red. masses --      1.0920                 1.1160                 1.0652
 Frc consts  --      6.4890                 6.7645                 8.7479
 IR Inten    --     11.6570                 6.6257                32.7263

 - Thermochemistry -
 -------------------
 Temperature   298.150 Kelvin.  Pressure   1.00000 Atm.
 Atom     1 has atomic number  6 and mass  12.00000

 Molecular mass:   126.06808 amu.
 Principal axes and moments of inertia in atomic units:
                           1         2         3
     Eigenvalues --   712.610281133.071741563.18913
           X            0.99968  -0.02530   0.00079
           Y            0.02531   0.99959  -0.01315
           Z           -0.00046   0.01317   0.99991
 This molecule is an asymmetric top.
 Rotational symmetry number  1.
 Warning -- assumption of classical behavior for rotation
           may cause significant error
 Rotational temperatures (Kelvin)      0.12154     0.07644     0.05541
 Rotational constants (GHZ):           2.53258     1.59279     1.15453
 Zero-point vibrational energy     417341.7 (Joules/Mol)
                                   99.74705 (Kcal/Mol)
 Warning -- explicit consideration of  12 degrees of freedom as
           vibrations may cause significant error
 Vibrational temperatures:     62.76   221.26   260.56   334.34   370.39
          (Kelvin)            421.26   560.85   583.27   613.27   696.64
                              762.97   884.95   938.33  1130.11  1185.81
                             1206.15  1244.76  1337.96  1400.37  1413.90
                             1488.34  1511.12  1529.70  1574.95  1586.98
                             1621.48  1668.82  1734.24  1801.99  1828.70
                             1853.28  1910.51  1951.08  2002.23  2033.60
                             2038.05  2136.77  2140.39  2157.12  2162.43
                             2618.03  4183.62  4365.80  4403.78  4459.96
                             4474.02  4476.81  4489.68  4569.27  4614.85
                             5371.71

 Zero-point correction=                           0.158957 (Hartree/Particle)
 Thermal correction to Energy=                    0.167627
 Thermal correction to Enthalpy=                  0.168571
 Thermal correction to Gibbs Free Energy=         0.125443
 Sum of electronic and zero-point Energies=           -423.047673
 Sum of electronic and thermal Energies=              -423.039003
 Sum of electronic and thermal Enthalpies=            -423.038059
 Sum of electronic and thermal Free Energies=         -423.081187

                     E (Thermal)             CV                S
                      KCal/Mol        Cal/Mol-Kelvin    Cal/Mol-Kelvin
 Total                  105.188             33.001             90.771
 Electronic               0.000              0.000              0.000
 Translational            0.889              2.981             40.409
 Rotational               0.889              2.981             28.625
 Vibrational            103.410             27.040             21.738
 Vibration     1          0.595              1.980              5.088
 Vibration     2          0.619              1.898              2.625
 Vibration     3          0.630              1.865              2.317
 Vibration     4          0.653              1.791              1.860
 Vibration     5          0.667              1.750              1.679
 Vibration     6          0.688              1.687              1.458
 Vibration     7          0.758              1.492              1.001
 Vibration     8          0.770              1.458              0.943
 Vibration     9          0.788              1.413              0.871
 Vibration    10          0.840              1.285              0.699
 Vibration    11          0.885              1.183              0.587
 Vibration    12          0.975              1.000              0.424

 Optimization completed.
    -- Stationary point found.
 Normal termination of Gaussian 09 at Tue Jan 28 03:57:32 2020.
