 Gaussian 09, Revision D.01,
 Gaussian 09:  ES64L-G09RevD.01 24-Apr-2013

 -----------------------------
 # b3lyp 6-31G(2df,p) opt Freq
 -----------------------------

 -----
 titel
 -----
 Symbolic Z-matrix:
 Charge =  0 Multiplicity = 1

 SCF Done:  E(RB3LYP) =  -423.148346498     A.U. after   14 cycles
 Optimization completed.
    -- Stationary point found.
 Normal termination of Gaussian 09 at Mon Jan 27 22:00:08 2020.

 ----------------------------------------------------------------------
 #N Geom=AllCheck Guess=TCheck SCRF=Check GenChk RB3LYP/6-31G(2df,p) Fr
 eq
 ----------------------------------------------------------------------

 Structure from the checkpoint file:  "/scratch/puck/g09_5b1c7a28-f383-4e6f-abe5-6a02440a0cfb/Gau-99235.chk"
 -----
 titel
 -----
 Charge =  0 Multiplicity = 1

                         Standard orientation:
 ---------------------------------------------------------------------
 Center     Atomic      Atomic             Coordinates (Angstroms)
 Number     Number       Type             X           Y           Z
 ---------------------------------------------------------------------
      1          6           0       -2.686964    0.522503   -0.514689
      2          6           0       -1.397527   -0.031430   -0.018617
      3          6           0       -0.957668   -0.341939    1.210095
      4          6           0        0.465220   -0.795422    0.936902
      5          8           0        0.297184   -1.619992   -0.276180
      6          6           0       -0.163257   -0.350764   -0.860271
      7          6           0        1.014048    0.336842   -0.038197
      8          6           0        1.015369    1.805494    0.326849
      9          8           0        2.276065    0.038230   -0.558853
     10          1           0       -2.539167    1.484284   -1.022335
     11          1           0       -3.155109   -0.147863   -1.246232
     12          1           0       -3.394597    0.679398    0.304068
     13          1           0       -1.447974   -0.258565    2.169282
     14          1           0        1.075151   -1.255884    1.713581
     15          1           0       -0.209162   -0.344196   -1.949880
     16          1           0        1.235057    2.403166   -0.563126
     17          1           0        0.062841    2.126397    0.747284
     18          1           0        1.808669    1.999080    1.055286
     19          1           0        2.242972   -0.903416   -0.780102
 ---------------------------------------------------------------------

 SCF Done:  E(RB3LYP) =  -423.148346498     A.U. after    1 cycles

 The electronic state is 1-A.
 Alpha  occ. eigenvalues --  -19.13674 -19.13563 -10.24731 -10.23681 -10.23631
 Alpha  occ. eigenvalues --  -10.19326 -10.19151 -10.17985 -10.17448  -1.06190
 Alpha  occ. eigenvalues --   -1.00776  -0.81855  -0.75127  -0.71886  -0.68119
 Alpha  occ. eigenvalues --   -0.64166  -0.55494  -0.53468  -0.52186  -0.48663
 Alpha  occ. eigenvalues --   -0.44356  -0.43723  -0.42195  -0.41620  -0.39009
 Alpha  occ. eigenvalues --   -0.38822  -0.38400  -0.36032  -0.35355  -0.34727
 Alpha  occ. eigenvalues --   -0.33364  -0.25631  -0.25522  -0.23282
 Alpha virt. eigenvalues --    0.00374   0.08867   0.09931   0.11221   0.12309
 Alpha virt. eigenvalues --    0.13630   0.14315   0.15433   0.16003   0.16116
 Alpha virt. eigenvalues --    0.17173   0.18334   0.19144   0.20398   0.22851

 Mulliken charges:
               1
     1  C   -0.517550
     2  C    0.354288
     3  C   -0.202962
     4  C   -0.057076
     5  O   -0.314908
     6  C   -0.120856
     7  C    0.482097
     8  C   -0.461320
     9  O   -0.486561
    10  H    0.131683
    11  H    0.135378
    12  H    0.129963
    13  H    0.106833
    14  H    0.080024
    15  H    0.076864
    16  H    0.127637
    17  H    0.121995
    18  H    0.129232
    19  H    0.285240
 Sum of Mulliken charges =   0.00000

 Dipole moment (field-independent basis, Debye):
    X=             -1.5055    Y=              1.0480    Z=              0.4227  Tot=              1.8824
 Quadrupole moment (field-independent basis, Debye-Ang):
   XX=            -54.1790   YY=            -55.8040   ZZ=            -49.4568
   XY=             -2.9080   XZ=              1.4813   YZ=             -0.4022

  Exact polarizability:  86.152  -3.027  67.153   2.798  -2.899  75.869
 Approx polarizability: 119.125  -5.315 101.627   6.004  -6.353 126.780

                      1                      2                      3
                      A                      A                      A
 Frequencies --    139.6295               164.2057               192.6795
 Red. masses --      2.5801                 1.0800                 1.0708
 Frc consts  --      0.0296                 0.0172                 0.0234
 IR Inten    --      1.2254                 0.1581                 0.2716

                      4                      5                      6
                      A                      A                      A
 Frequencies --    212.3534               293.3667               316.7278
 Red. masses --      3.1303                 2.6895                 3.6264
 Frc consts  --      0.0832                 0.1364                 0.2143
 IR Inten    --      0.2276                 0.9707                 2.3405

                      7                      8                      9
                      A                      A                      A
 Frequencies --    398.5208               415.9639               516.4658
 Red. masses --      3.4819                 3.1047                 3.8484
 Frc consts  --      0.3258                 0.3165                 0.6048
 IR Inten    --     13.3781                 0.9064                 2.2065

                     10                     11                     12
                      A                      A                      A
 Frequencies --    565.1955               586.4398               617.5651
 Red. masses --      2.9981                 4.2563                 1.0962
 Frc consts  --      0.5643                 0.8624                 0.2463
 IR Inten    --      0.9810                 6.9372                69.2229

                     13                     14                     15
                      A                      A                      A
 Frequencies --    633.6570               684.2793               786.5416
 Red. masses --      3.7410                 3.6953                 1.8973
 Frc consts  --      0.8850                 1.0194                 0.6916
 IR Inten    --      1.3252                 3.6497                20.3318

                     16                     17                     18
                      A                      A                      A
 Frequencies --    794.0304               839.5805               867.9188
 Red. masses --      2.7509                 2.9214                 4.7388
 Frc consts  --      1.0219                 1.2133                 2.1032
 IR Inten    --      6.1052                25.1354                34.8759

                     19                     20                     21
                      A                      A                      A
 Frequencies --    916.0960               928.7633               970.0975
 Red. masses --      2.9162                 2.0144                 2.0985
 Frc consts  --      1.4419                 1.0238                 1.1636
 IR Inten    --     11.5004                 5.4975                26.2988

                     22                     23                     24
                      A                      A                      A
 Frequencies --   1003.3056              1032.7583              1060.3981
 Red. masses --      1.5448                 4.0307                 1.5128
 Frc consts  --      0.9162                 2.5329                 1.0022
 IR Inten    --      3.0407                 1.0496                 2.0058

                     25                     26                     27
                      A                      A                      A
 Frequencies --   1099.1466              1115.9816              1147.0892
 Red. masses --      1.8165                 1.8709                 1.5120
 Frc consts  --      1.2930                 1.3728                 1.1722
 IR Inten    --     42.5368                 0.7379                 4.0681

                     28                     29                     30
                      A                      A                      A
 Frequencies --   1166.5445              1196.9823              1235.2295
 Red. masses --      1.9954                 1.8962                 1.4491
 Frc consts  --      1.5999                 1.6007                 1.3027
 IR Inten    --     67.3220                 3.7563                 5.7081

                     31                     32                     33
                      A                      A                      A
 Frequencies --   1264.0827              1297.0420              1310.6846
 Red. masses --      2.4242                 1.4449                 2.3773
 Frc consts  --      2.2823                 1.4321                 2.4062
 IR Inten    --     86.5939                 4.0147                 0.7227

                     34                     35                     36
                      A                      A                      A
 Frequencies --   1384.4011              1414.0458              1434.3535
 Red. masses --      1.2895                 1.2720                 1.7908
 Frc consts  --      1.4561                 1.4986                 2.1707
 IR Inten    --     73.4619                 0.8696                80.9712

                     37                     38                     39
                      A                      A                      A
 Frequencies --   1478.2924              1485.5979              1488.1233
 Red. masses --      1.0449                 1.0574                 1.0523
 Frc consts  --      1.3453                 1.3750                 1.3730
 IR Inten    --      5.8151                 9.8695                 0.2435

                     40                     41                     42
                      A                      A                      A
 Frequencies --   1493.9031              1674.9903              3017.8594
 Red. masses --      1.0636                 6.8277                 1.0379
 Frc consts  --      1.3985                11.2862                 5.5694
 IR Inten    --      4.3483                 7.0144                26.3437

                     43                     44                     45
                      A                      A                      A
 Frequencies --   3050.2199              3064.3329              3109.5790
 Red. masses --      1.0380                 1.0985                 1.0991
 Frc consts  --      5.6900                 6.0772                 6.2615
 IR Inten    --     16.8345                14.7185                13.0982

                     46                     47                     48
                      A                      A                      A
 Frequencies --   3110.4517              3120.7839              3131.9617
 Red. masses --      1.1005                 1.0903                 1.0920
 Frc consts  --      6.2729                 6.2566                 6.3112
 IR Inten    --     13.5588                41.6159                26.8829

                     49                     50                     51
                      A                      A                      A
 Frequencies --   3155.0411              3235.8057              3743.5319
 Red. masses --      1.0990                 1.0983                 1.0636
 Frc consts  --      6.4454                 6.7754                 8.7822
 IR Inten    --     13.5904                 4.6548                31.6270

 - Thermochemistry -
 -------------------
 Temperature   298.150 Kelvin.  Pressure   1.00000 Atm.
 Atom     1 has atomic number  6 and mass  12.00000

 Molecular mass:   126.06808 amu.
 Principal axes and moments of inertia in atomic units:
                           1         2         3
     Eigenvalues --   643.265021209.814671392.64589
           X            0.99973  -0.01256   0.01939
           Y            0.01262   0.99992  -0.00263
           Z           -0.01935   0.00288   0.99981
 This molecule is an asymmetric top.
 Rotational symmetry number  1.
 Warning -- assumption of classical behavior for rotation
           may cause significant error
 Rotational temperatures (Kelvin)      0.13465     0.07159     0.06219
 Rotational constants (GHZ):           2.80560     1.49175     1.29591
 Zero-point vibrational energy     414880.5 (Joules/Mol)
                                   99.15881 (Kcal/Mol)
 Warning -- explicit consideration of  12 degrees of freedom as
           vibrations may cause significant error
 Vibrational temperatures:    200.90   236.26   277.22   305.53   422.09
          (Kelvin)            455.70   573.38   598.48   743.08   813.19
                              843.75   888.54   911.69   984.52  1131.66
                             1142.43  1207.97  1248.74  1318.06  1336.28
                             1395.75  1443.53  1485.91  1525.67  1581.42
                             1605.65  1650.40  1678.40  1722.19  1777.22
                             1818.73  1866.15  1885.78  1991.84  2034.49
                             2063.71  2126.93  2137.44  2141.07  2149.39
                             2409.93  4342.02  4388.58  4408.89  4473.99
                             4475.24  4490.11  4506.19  4539.39  4655.60
                             5386.10

 Zero-point correction=                           0.158020 (Hartree/Particle)
 Thermal correction to Energy=                    0.166381
 Thermal correction to Enthalpy=                  0.167325
 Thermal correction to Gibbs Free Energy=         0.125663
 Sum of electronic and zero-point Energies=           -422.990327
 Sum of electronic and thermal Energies=              -422.981966
 Sum of electronic and thermal Enthalpies=            -422.981022
 Sum of electronic and thermal Free Energies=         -423.022683

                     E (Thermal)             CV                S
                      KCal/Mol        Cal/Mol-Kelvin    Cal/Mol-Kelvin
 Total                  104.406             33.245             87.684
 Electronic               0.000              0.000              0.000
 Translational            0.889              2.981             40.409
 Rotational               0.889              2.981             28.474
 Vibrational            102.628             27.284             18.802
 Vibration     1          0.615              1.914              2.809
 Vibration     2          0.623              1.886              2.501
 Vibration     3          0.635              1.850              2.202
 Vibration     4          0.643              1.822              2.023
 Vibration     5          0.688              1.686              1.454
 Vibration     6          0.704              1.642              1.327
 Vibration     7          0.765              1.473              0.968
 Vibration     8          0.779              1.436              0.906
 Vibration     9          0.871              1.214              0.618
 Vibration    10          0.921              1.107              0.514
 Vibration    11          0.944              1.061              0.474
 Vibration    12          0.977              0.995              0.420

 Normal termination of Gaussian 09 at Mon Jan 27 22:42:55 2020.
