 Gaussian 09, Revision D.01,
 Gaussian 09:  ES64L-G09RevD.01 24-Apr-2013

 -----------------------------
 # b3lyp 6-31G(2df,p) opt Freq
 -----------------------------

 -----
 titel
 -----
 Symbolic Z-matrix:
 Charge =  0 Multiplicity = 1

 SCF Done:  E(RB3LYP) =  -423.073105002     A.U. after   14 cycles
 Optimization completed.
    -- Stationary point found.
 Normal termination of Gaussian 09 at Tue Jan 28 14:12:36 2020.

 ----------------------------------------------------------------------
 #N Geom=AllCheck Guess=TCheck SCRF=Check GenChk RB3LYP/6-31G(2df,p) Fr
 eq
 ----------------------------------------------------------------------

 Structure from the checkpoint file:  "/scratch/puck/g09_f3b50e9b-3334-46db-94f1-9a52b9038f25/Gau-44173.chk"
 -----
 titel
 -----
 Charge =  0 Multiplicity = 1

                         Standard orientation:
 ---------------------------------------------------------------------
 Center     Atomic      Atomic             Coordinates (Angstroms)
 Number     Number       Type             X           Y           Z
 ---------------------------------------------------------------------
      1          6           0        3.544879   -0.200014    0.019516
      2          6           0        2.116344    0.176378    0.418221
      3          6           0        1.069639   -0.320929   -0.589814
      4          6           0       -0.322821    0.084549   -0.233395
      5          8           0       -0.671258    1.504866   -0.139318
      6          6           0       -1.928632    0.854047    0.183900
      7          6           0       -1.722963   -0.328133   -0.810387
      8          8           0       -1.954879   -1.364116    0.185261
      9          6           0       -1.271041   -0.332007    0.950061
     10          1           0        3.810012    0.228792   -0.953161
     11          1           0        4.269895    0.165454    0.753020
     12          1           0        3.664208   -1.286747   -0.054677
     13          1           0        1.886289   -0.238278    1.407638
     14          1           0        2.025952    1.264074    0.512677
     15          1           0        1.300383    0.064925   -1.591236
     16          1           0        1.089964   -1.416295   -0.658421
     17          1           0       -2.801250    1.465442    0.409555
     18          1           0       -2.066114   -0.484568   -1.832951
     19          1           0       -1.082664   -0.492148    2.011389
 ---------------------------------------------------------------------

 SCF Done:  E(RB3LYP) =  -423.073105002     A.U. after    1 cycles

 The electronic state is 1-A.
 Alpha  occ. eigenvalues --  -19.14083 -19.13833 -10.25329 -10.25072 -10.24955
 Alpha  occ. eigenvalues --  -10.24944 -10.19274 -10.18637 -10.17720  -1.09617
 Alpha  occ. eigenvalues --   -1.01794  -0.80048  -0.75476  -0.71811  -0.66719
 Alpha  occ. eigenvalues --   -0.63344  -0.59311  -0.53472  -0.49692  -0.48593
 Alpha  occ. eigenvalues --   -0.46651  -0.44985  -0.44165  -0.41750  -0.39632
 Alpha  occ. eigenvalues --   -0.38055  -0.37120  -0.35104  -0.34501  -0.33618
 Alpha  occ. eigenvalues --   -0.31252  -0.30453  -0.24295  -0.24244
 Alpha virt. eigenvalues --    0.05441   0.08992   0.09665   0.11293   0.12147
 Alpha virt. eigenvalues --    0.12802   0.13369   0.13770   0.15768   0.16062
 Alpha virt. eigenvalues --    0.17321   0.17746   0.18654   0.19145   0.19168

 Mulliken charges:
               1
     1  C   -0.385003
     2  C   -0.164358
     3  C   -0.357149
     4  C    0.457559
     5  O   -0.354201
     6  C    0.036663
     7  C   -0.017408
     8  O   -0.327319
     9  C   -0.001208
    10  H    0.117157
    11  H    0.115007
    12  H    0.115310
    13  H    0.098785
    14  H    0.121732
    15  H    0.113649
    16  H    0.118986
    17  H    0.104635
    18  H    0.103231
    19  H    0.103931
 Sum of Mulliken charges =   0.00000

 Dipole moment (field-independent basis, Debye):
    X=              0.6337    Y=              0.0024    Z=             -0.0453  Tot=              0.6354
 Quadrupole moment (field-independent basis, Debye-Ang):
   XX=            -51.7900   YY=            -59.0894   ZZ=            -49.6954
   XY=             -4.0246   XZ=              0.5886   YZ=              0.9945

  Exact polarizability:  89.191  -2.035  66.769   0.295   0.841  70.004
 Approx polarizability: 110.677   1.066 109.278  -0.100  -0.499 108.215

                      1                      2                      3
                      A                      A                      A
 Frequencies --     73.7543                79.8602               124.6372
 Red. masses --      3.1712                 1.8438                 3.3490
 Frc consts  --      0.0102                 0.0069                 0.0307
 IR Inten    --      0.0084                 0.0206                 0.0883

                      4                      5                      6
                      A                      A                      A
 Frequencies --    240.1640               257.7994               314.4577
 Red. masses --      1.4554                 1.8505                 2.8900
 Frc consts  --      0.0495                 0.0725                 0.1684
 IR Inten    --      0.3171                 0.5775                 0.1766

                      7                      8                      9
                      A                      A                      A
 Frequencies --    344.8450               530.6833               573.5209
 Red. masses --      3.3961                 4.5136                 4.4188
 Frc consts  --      0.2379                 0.7489                 0.8564
 IR Inten    --      2.8797                 7.2878                16.2102

                     10                     11                     12
                      A                      A                      A
 Frequencies --    699.2351               725.4490               767.6097
 Red. masses --      2.9782                 1.4799                 2.3034
 Frc consts  --      0.8579                 0.4589                 0.7997
 IR Inten    --      0.7439                 3.5573                 1.5054

                     13                     14                     15
                      A                      A                      A
 Frequencies --    778.0304               782.8467               828.1653
 Red. masses --      3.2314                 2.0092                 4.2921
 Frc consts  --      1.1525                 0.7255                 1.7344
 IR Inten    --     19.9697                 6.9227                 9.1144

                     16                     17                     18
                      A                      A                      A
 Frequencies --    847.4936               885.7221               901.8712
 Red. masses --      4.1652                 2.5751                 1.6451
 Frc consts  --      1.7626                 1.1903                 0.7884
 IR Inten    --      7.3706                 2.9748                12.8030

                     19                     20                     21
                      A                      A                      A
 Frequencies --    919.2474               938.2640               992.5770
 Red. masses --      1.8978                 3.3659                 2.1628
 Frc consts  --      0.9449                 1.7458                 1.2554
 IR Inten    --      1.9380                13.5748                55.4683

                     22                     23                     24
                      A                      A                      A
 Frequencies --   1029.3311              1050.2637              1106.3401
 Red. masses --      1.4669                 2.6983                 3.6876
 Frc consts  --      0.9157                 1.7536                 2.6593
 IR Inten    --      1.3640                 0.7068                 0.4861

                     25                     26                     27
                      A                      A                      A
 Frequencies --   1115.5674              1132.3661              1146.9771
 Red. masses --      1.6847                 1.7166                 1.5271
 Frc consts  --      1.2353                 1.2969                 1.1836
 IR Inten    --      2.3324                 5.8775                 1.5178

                     28                     29                     30
                      A                      A                      A
 Frequencies --   1165.8779              1181.0809              1236.4877
 Red. masses --      1.6790                 2.2555                 1.7126
 Frc consts  --      1.3446                 1.8537                 1.5427
 IR Inten    --      3.1018                 2.6210                15.7976

                     31                     32                     33
                      A                      A                      A
 Frequencies --   1270.0712              1284.7396              1311.1208
 Red. masses --      1.4644                 1.7773                 1.4702
 Frc consts  --      1.3917                 1.7283                 1.4891
 IR Inten    --     17.3049                14.4206                 0.0990

                     34                     35                     36
                      A                      A                      A
 Frequencies --   1331.5760              1376.1552              1412.8241
 Red. masses --      1.1523                 1.6867                 1.3177
 Frc consts  --      1.2038                 1.8821                 1.5497
 IR Inten    --      1.1254                 1.1761                 2.2073

                     37                     38                     39
                      A                      A                      A
 Frequencies --   1417.2454              1466.9316              1492.6584
 Red. masses --      2.6616                 1.0940                 1.0536
 Frc consts  --      3.1498                 1.3871                 1.3830
 IR Inten    --      9.1790                 3.0715                 1.3066

                     40                     41                     42
                      A                      A                      A
 Frequencies --   1499.4444              1509.4610              3020.1994
 Red. masses --      1.0402                 1.0821                 1.0587
 Frc consts  --      1.3779                 1.4527                 5.6898
 IR Inten    --      5.5756                 3.6246                 3.3256

                     43                     44                     45
                      A                      A                      A
 Frequencies --   3029.4465              3033.3498              3055.4700
 Red. masses --      1.0424                 1.0570                 1.0972
 Frc consts  --      5.6363                 5.7303                 6.0351
 IR Inten    --     14.2490                45.0406                 4.3490

                     46                     47                     48
                      A                      A                      A
 Frequencies --   3075.2074              3100.2471              3105.0517
 Red. masses --      1.1014                 1.1027                 1.1007
 Frc consts  --      6.1369                 6.2444                 6.2528
 IR Inten    --      4.9534                50.9649                31.7310

                     49                     50                     51
                      A                      A                      A
 Frequencies --   3122.6703              3124.5254              3142.9584
 Red. masses --      1.0890                 1.0913                 1.1021
 Frc consts  --      6.2567                 6.2770                 6.4143
 IR Inten    --     16.2222                65.1462                28.5001

 - Thermochemistry -
 -------------------
 Temperature   298.150 Kelvin.  Pressure   1.00000 Atm.
 Atom     1 has atomic number  6 and mass  12.00000

 Molecular mass:   126.06808 amu.
 Principal axes and moments of inertia in atomic units:
                           1         2         3
     Eigenvalues --   460.035501779.132881944.72632
           X            0.99990  -0.01381   0.00137
           Y            0.01375   0.99931   0.03437
           Z           -0.00185  -0.03435   0.99941
 This molecule is an asymmetric top.
 Rotational symmetry number  1.
 Warning -- assumption of classical behavior for rotation
           may cause significant error
 Rotational temperatures (Kelvin)      0.18828     0.04868     0.04454
 Rotational constants (GHZ):           3.92305     1.01439     0.92802
 Zero-point vibrational energy     412423.8 (Joules/Mol)
                                   98.57166 (Kcal/Mol)
 Warning -- explicit consideration of   9 degrees of freedom as
           vibrations may cause significant error
 Vibrational temperatures:    106.12   114.90   179.32   345.54   370.92
          (Kelvin)            452.43   496.15   763.53   825.17  1006.04
                             1043.76  1104.42  1119.41  1126.34  1191.54
                             1219.35  1274.35  1297.59  1322.59  1349.95
                             1428.10  1480.98  1511.09  1591.77  1605.05
                             1629.22  1650.24  1677.44  1699.31  1779.03
                             1827.35  1848.45  1886.41  1915.84  1979.98
                             2032.74  2039.10  2110.58  2147.60  2157.36
                             2171.78  4345.39  4358.69  4364.31  4396.13
                             4424.53  4460.56  4467.47  4492.82  4495.49
                             4522.01

 Zero-point correction=                           0.157084 (Hartree/Particle)
 Thermal correction to Energy=                    0.165435
 Thermal correction to Enthalpy=                  0.166380
 Thermal correction to Gibbs Free Energy=         0.123471
 Sum of electronic and zero-point Energies=           -422.916021
 Sum of electronic and thermal Energies=              -422.907670
 Sum of electronic and thermal Enthalpies=            -422.906725
 Sum of electronic and thermal Free Energies=         -422.949634

                     E (Thermal)             CV                S
                      KCal/Mol        Cal/Mol-Kelvin    Cal/Mol-Kelvin
 Total                  103.812             31.600             90.308
 Electronic               0.000              0.000              0.000
 Translational            0.889              2.981             40.409
 Rotational               0.889              2.981             28.855
 Vibrational            102.035             25.639             21.044
 Vibration     1          0.599              1.966              4.051
 Vibration     2          0.600              1.963              3.894
 Vibration     3          0.610              1.928              3.027
 Vibration     4          0.657              1.779              1.802
 Vibration     5          0.667              1.750              1.677
 Vibration     6          0.702              1.646              1.339
 Vibration     7          0.723              1.586              1.190
 Vibration     8          0.886              1.182              0.586
 Vibration     9          0.930              1.089              0.498

 Normal termination of Gaussian 09 at Tue Jan 28 14:57:00 2020.
