 Gaussian 09, Revision D.01,
 Gaussian 09:  ES64L-G09RevD.01 24-Apr-2013

 -----------------------------
 # b3lyp 6-31G(2df,p) opt Freq
 -----------------------------

 -----
 titel
 -----
 Symbolic Z-matrix:
 Charge =  0 Multiplicity = 1

 SCF Done:  E(RB3LYP) =  -423.173450347     A.U. after   14 cycles
 Optimization completed.
    -- Stationary point found.
 Normal termination of Gaussian 09 at Tue Jan 28 12:40:38 2020.

 ----------------------------------------------------------------------
 #N Geom=AllCheck Guess=TCheck SCRF=Check GenChk RB3LYP/6-31G(2df,p) Fr
 eq
 ----------------------------------------------------------------------

 Structure from the checkpoint file:  "/scratch/puck/g09_35ed7129-be02-4751-9953-3c42507d8811/Gau-30220.chk"
 -----
 titel
 -----
 Charge =  0 Multiplicity = 1

                         Standard orientation:
 ---------------------------------------------------------------------
 Center     Atomic      Atomic             Coordinates (Angstroms)
 Number     Number       Type             X           Y           Z
 ---------------------------------------------------------------------
      1          8           0       -2.449857   -0.479226   -0.616945
      2          6           0       -1.651713   -0.886802    0.497995
      3          6           0       -0.206284   -0.687466    0.171224
      4          6           0        0.727481   -1.631862    0.038780
      5          6           0        2.100928   -1.072887   -0.242380
      6          6           0        1.918131    0.456969   -0.060490
      7          6           0        0.402816    0.669411    0.013279
      8          6           0       -0.300964    1.820927   -0.573528
      9          8           0       -0.096117    1.730803    0.842657
     10          1           0       -3.360006   -0.409220   -0.312765
     11          1           0       -1.896332   -0.282412    1.383909
     12          1           0       -1.831574   -1.943543    0.744507
     13          1           0        0.535788   -2.698011    0.103888
     14          1           0        2.862849   -1.489651    0.426219
     15          1           0        2.420663   -1.325703   -1.261818
     16          1           0        2.356964    0.792076    0.884176
     17          1           0        2.383743    1.037024   -0.860630
     18          1           0        0.282038    2.593415   -1.075723
     19          1           0       -1.328704    1.703663   -0.906737
 ---------------------------------------------------------------------

 SCF Done:  E(RB3LYP) =  -423.173450347     A.U. after    1 cycles

 The electronic state is 1-A.
 Alpha  occ. eigenvalues --  -19.13965 -19.13781 -10.23382 -10.23090 -10.21852
 Alpha  occ. eigenvalues --  -10.18807 -10.18521 -10.18291 -10.18225  -1.05762
 Alpha  occ. eigenvalues --   -1.01574  -0.84012  -0.74343  -0.68810  -0.65655
 Alpha  occ. eigenvalues --   -0.64096  -0.57337  -0.52260  -0.50975  -0.48484
 Alpha  occ. eigenvalues --   -0.46702  -0.45275  -0.44238  -0.42078  -0.38211
 Alpha  occ. eigenvalues --   -0.37459  -0.35759  -0.35162  -0.34933  -0.32782
 Alpha  occ. eigenvalues --   -0.31177  -0.27046  -0.25634  -0.23675
 Alpha virt. eigenvalues --    0.00742   0.07890   0.10218   0.10634   0.12354
 Alpha virt. eigenvalues --    0.13244   0.14098   0.15785   0.17010   0.17357
 Alpha virt. eigenvalues --    0.17758   0.18487   0.20651   0.21791   0.23091

 Mulliken charges:
               1
     1  O   -0.414684
     2  C   -0.214944
     3  C    0.297001
     4  C   -0.184913
     5  C   -0.267394
     6  C   -0.316003
     7  C    0.366544
     8  C   -0.245646
     9  O   -0.291276
    10  H    0.288693
    11  H    0.111527
    12  H    0.092311
    13  H    0.095263
    14  H    0.109224
    15  H    0.114338
    16  H    0.122800
    17  H    0.106302
    18  H    0.104167
    19  H    0.126691
 Sum of Mulliken charges =   0.00000

 Dipole moment (field-independent basis, Debye):
    X=             -0.2013    Y=             -1.2301    Z=             -0.2290  Tot=              1.2673
 Quadrupole moment (field-independent basis, Debye-Ang):
   XX=            -44.6768   YY=            -53.0587   ZZ=            -55.4070
   XY=              0.2028   XZ=             -2.7264   YZ=             -4.3250

  Exact polarizability:  91.816  -8.534  85.529  -2.128  -4.404  58.060
 Approx polarizability: 124.418 -19.795 126.250  -2.762  -2.188  94.712

                      1                      2                      3
                      A                      A                      A
 Frequencies --     54.8107                88.8670               179.6723
 Red. masses --      2.4962                 3.2188                 4.1729
 Frc consts  --      0.0044                 0.0150                 0.0794
 IR Inten    --      0.5771                 0.7308                 8.4651

                      4                      5                      6
                      A                      A                      A
 Frequencies --    223.3373               269.2380               276.6094
 Red. masses --      2.2243                 1.4259                 1.9955
 Frc consts  --      0.0654                 0.0609                 0.0900
 IR Inten    --     32.1357                60.4401                 8.2404

                      7                      8                      9
                      A                      A                      A
 Frequencies --    327.4917               384.0592               404.9232
 Red. masses --      2.9482                 3.2869                 3.0295
 Frc consts  --      0.1863                 0.2856                 0.2927
 IR Inten    --      1.3803                 6.5687                 2.7818

                     10                     11                     12
                      A                      A                      A
 Frequencies --    544.0452               608.5127               702.7675
 Red. masses --      5.4477                 3.8259                 3.2963
 Frc consts  --      0.9500                 0.8347                 0.9592
 IR Inten    --      7.6867                 0.8938                 4.3669

                     13                     14                     15
                      A                      A                      A
 Frequencies --    726.6572               792.7840               840.4357
 Red. masses --      2.8447                 2.2522                 2.2995
 Frc consts  --      0.8850                 0.8340                 0.9569
 IR Inten    --      3.7224                11.7153                18.6669

                     16                     17                     18
                      A                      A                      A
 Frequencies --    882.9395               901.3052               924.6904
 Red. masses --      1.3898                 1.7245                 2.6096
 Frc consts  --      0.6384                 0.8254                 1.3147
 IR Inten    --     13.8910                 8.0610                13.9097

                     19                     20                     21
                      A                      A                      A
 Frequencies --    952.5084               998.3926              1026.1748
 Red. masses --      3.3308                 1.8095                 2.3652
 Frc consts  --      1.7805                 1.0627                 1.4675
 IR Inten    --     12.5936                 4.7404                13.2476

                     22                     23                     24
                      A                      A                      A
 Frequencies --   1048.5465              1058.1060              1109.2661
 Red. masses --      3.4841                 2.1300                 2.5251
 Frc consts  --      2.2569                 1.4050                 1.8306
 IR Inten    --     45.7216                15.3439                14.2659

                     25                     26                     27
                      A                      A                      A
 Frequencies --   1137.3982              1167.1914              1172.9553
 Red. masses --      1.2809                 1.3283                 1.2628
 Frc consts  --      0.9763                 1.0662                 1.0236
 IR Inten    --      2.3169                 1.0632                 1.9958

                     28                     29                     30
                      A                      A                      A
 Frequencies --   1224.2189              1239.1319              1254.8340
 Red. masses --      1.3750                 1.1778                 1.2394
 Frc consts  --      1.2142                 1.0655                 1.1498
 IR Inten    --     16.0535                29.9773                10.7827

                     31                     32                     33
                      A                      A                      A
 Frequencies --   1261.3515              1292.5290              1328.0857
 Red. masses --      1.2187                 1.5041                 1.6730
 Frc consts  --      1.1424                 1.4805                 1.7386
 IR Inten    --     17.3381                 1.4522                 1.6432

                     34                     35                     36
                      A                      A                      A
 Frequencies --   1352.7383              1419.8284              1455.4287
 Red. masses --      2.4771                 2.9752                 1.4877
 Frc consts  --      2.6707                 3.5338                 1.8567
 IR Inten    --      5.4939                12.5747                17.2924

                     37                     38                     39
                      A                      A                      A
 Frequencies --   1478.3972              1497.7879              1502.6219
 Red. masses --      1.0818                 1.0966                 1.0869
 Frc consts  --      1.3931                 1.4494                 1.4459
 IR Inten    --      0.7772                 2.7659                 3.2626

                     40                     41                     42
                      A                      A                      A
 Frequencies --   1522.1887              1719.3701              2984.3493
 Red. masses --      1.3052                 7.7755                 1.0549
 Frc consts  --      1.7819                13.5430                 5.5355
 IR Inten    --      4.5416                 5.0162                50.4971

                     43                     44                     45
                      A                      A                      A
 Frequencies --   3020.6302              3022.0635              3051.3648
 Red. masses --      1.1066                 1.0642                 1.0930
 Frc consts  --      5.9489                 5.7265                 5.9960
 IR Inten    --     37.4100                36.3652                14.3423

                     46                     47                     48
                      A                      A                      A
 Frequencies --   3063.2537              3080.7420              3106.6222
 Red. masses --      1.0655                 1.0537                 1.1042
 Frc consts  --      5.8909                 5.8920                 6.2788
 IR Inten    --     27.7103                32.6559                22.2629

                     49                     50                     51
                      A                      A                      A
 Frequencies --   3185.9552              3188.5891              3822.7231
 Red. masses --      1.0937                 1.1157                 1.0663
 Frc consts  --      6.5409                 6.6834                 9.1810
 IR Inten    --     13.2213                10.2385                20.0059

 - Thermochemistry -
 -------------------
 Temperature   298.150 Kelvin.  Pressure   1.00000 Atm.
 Atom     1 has atomic number  8 and mass  15.99491

 Molecular mass:   126.06808 amu.
 Principal axes and moments of inertia in atomic units:
                           1         2         3
     Eigenvalues --   786.571431125.204101674.99897
           X            0.99985  -0.00846  -0.01502
           Y            0.00792   0.99935  -0.03511
           Z            0.01530   0.03499   0.99927
 This molecule is an asymmetric top.
 Rotational symmetry number  1.
 Warning -- assumption of classical behavior for rotation
           may cause significant error
 Rotational temperatures (Kelvin)      0.11012     0.07698     0.05171
 Rotational constants (GHZ):           2.29444     1.60392     1.07746
 Zero-point vibrational energy     417966.2 (Joules/Mol)
                                   99.89632 (Kcal/Mol)
 Warning -- explicit consideration of  11 degrees of freedom as
           vibrations may cause significant error
 Vibrational temperatures:     78.86   127.86   258.51   321.33   387.37
          (Kelvin)            397.98   471.19   552.57   582.59   782.76
                              875.51  1011.12  1045.50  1140.64  1209.20
                             1270.35  1296.78  1330.42  1370.45  1436.46
                             1476.43  1508.62  1522.38  1595.98  1636.46
                             1679.33  1687.62  1761.38  1782.83  1805.42
                             1814.80  1859.66  1910.82  1946.29  2042.81
                             2094.03  2127.08  2154.98  2161.94  2190.09
                             2473.79  4293.81  4346.01  4348.07  4390.23
                             4407.33  4432.50  4469.73  4583.87  4587.66
                             5500.04

 Zero-point correction=                           0.159195 (Hartree/Particle)
 Thermal correction to Energy=                    0.167904
 Thermal correction to Enthalpy=                  0.168848
 Thermal correction to Gibbs Free Energy=         0.125377
 Sum of electronic and zero-point Energies=           -423.014255
 Sum of electronic and thermal Energies=              -423.005546
 Sum of electronic and thermal Enthalpies=            -423.004602
 Sum of electronic and thermal Free Energies=         -423.048074

                     E (Thermal)             CV                S
                      KCal/Mol        Cal/Mol-Kelvin    Cal/Mol-Kelvin
 Total                  105.361             32.526             91.493
 Electronic               0.000              0.000              0.000
 Translational            0.889              2.981             40.409
 Rotational               0.889              2.981             28.785
 Vibrational            103.584             26.564             22.300
 Vibration     1          0.596              1.976              4.636
 Vibration     2          0.602              1.957              3.685
 Vibration     3          0.629              1.867              2.332
 Vibration     4          0.649              1.806              1.932
 Vibration     5          0.674              1.730              1.601
 Vibration     6          0.678              1.717              1.555
 Vibration     7          0.711              1.621              1.272
 Vibration     8          0.753              1.504              1.023
 Vibration     9          0.770              1.460              0.945
 Vibration    10          0.899              1.153              0.557
 Vibration    11          0.967              1.014              0.435

 Optimization completed.
    -- Stationary point found.
 Normal termination of Gaussian 09 at Tue Jan 28 13:24:13 2020.
