 Gaussian 09, Revision D.01,
 Gaussian 09:  ES64L-G09RevD.01 24-Apr-2013

 -----------------------------
 # b3lyp 6-31G(2df,p) opt Freq
 -----------------------------

 -----
 titel
 -----
 Symbolic Z-matrix:
 Charge =  0 Multiplicity = 1

 SCF Done:  E(RB3LYP) =  -423.190972804     A.U. after   14 cycles
 SCF Done:  E(RB3LYP) =  -423.190972914     A.U. after    7 cycles
 SCF Done:  E(RB3LYP) =  -423.190971347     A.U. after    8 cycles
 SCF Done:  E(RB3LYP) =  -423.190972977     A.U. after    8 cycles
 Optimization completed.
    -- Stationary point found.
 Normal termination of Gaussian 09 at Tue Jan 28 09:22:32 2020.

 ----------------------------------------------------------------------
 #N Geom=AllCheck Guess=TCheck SCRF=Check GenChk RB3LYP/6-31G(2df,p) Fr
 eq
 ----------------------------------------------------------------------

 Structure from the checkpoint file:  "/scratch/puck/g09_b485895c-3d21-4ef8-bc49-f6d024d78b6b/Gau-20093.chk"
 -----
 titel
 -----
 Charge =  0 Multiplicity = 1

                         Standard orientation:
 ---------------------------------------------------------------------
 Center     Atomic      Atomic             Coordinates (Angstroms)
 Number     Number       Type             X           Y           Z
 ---------------------------------------------------------------------
      1          6           0        2.411039   -0.818198    0.397676
      2          8           0        1.313758   -0.982245   -0.482714
      3          6           0        0.203798   -0.132124   -0.222235
      4          6           0       -0.481708   -0.315501    1.153608
      5          6           0       -2.003991   -0.249453    0.869283
      6          6           0       -2.091364   -0.507620   -0.613524
      7          6           0       -0.900640   -0.459219   -1.207164
      8          6           0        0.623910    1.320334   -0.492410
      9          8           0        0.328156    2.267743    0.188714
     10          1           0        2.155927   -1.091126    1.430638
     11          1           0        3.199878   -1.485189    0.043017
     12          1           0        2.797302    0.211853    0.400779
     13          1           0       -0.214457   -1.307895    1.527463
     14          1           0       -0.159256    0.433748    1.878038
     15          1           0       -2.578865   -0.971664    1.459470
     16          1           0       -2.407937    0.742211    1.109786
     17          1           0       -3.031284   -0.687459   -1.124181
     18          1           0       -0.691150   -0.586929   -2.262132
     19          1           0        1.228256    1.429147   -1.422289
 ---------------------------------------------------------------------

 SCF Done:  E(RB3LYP) =  -423.190972977     A.U. after    1 cycles

 The electronic state is 1-A.
 Alpha  occ. eigenvalues --  -19.14898 -19.14450 -10.26875 -10.24551 -10.23002
 Alpha  occ. eigenvalues --  -10.19458 -10.19115 -10.18810 -10.18474  -1.05376
 Alpha  occ. eigenvalues --   -1.03654  -0.84914  -0.73864  -0.71852  -0.67239
 Alpha  occ. eigenvalues --   -0.62815  -0.55713  -0.53883  -0.51525  -0.50001
 Alpha  occ. eigenvalues --   -0.45705  -0.45055  -0.43986  -0.43433  -0.40026
 Alpha  occ. eigenvalues --   -0.39405  -0.37514  -0.35956  -0.35748  -0.34758
 Alpha  occ. eigenvalues --   -0.32239  -0.28246  -0.26805  -0.23402
 Alpha virt. eigenvalues --   -0.03728   0.02875   0.09398   0.11244   0.12091
 Alpha virt. eigenvalues --    0.13391   0.14000   0.14363   0.15236   0.16128
 Alpha virt. eigenvalues --    0.17181   0.18314   0.19427   0.20857   0.21597

 Mulliken charges:
               1
     1  C   -0.256060
     2  O   -0.290569
     3  C    0.298536
     4  C   -0.277245
     5  C   -0.269919
     6  C   -0.051339
     7  C   -0.142574
     8  C    0.109667
     9  O   -0.248666
    10  H    0.115346
    11  H    0.132457
    12  H    0.115728
    13  H    0.113347
    14  H    0.118291
    15  H    0.108418
    16  H    0.128356
    17  H    0.104306
    18  H    0.106934
    19  H    0.084985
 Sum of Mulliken charges =   0.00000

 Dipole moment (field-independent basis, Debye):
    X=             -0.1161    Y=             -1.4613    Z=              0.0618  Tot=              1.4672
 Quadrupole moment (field-independent basis, Debye-Ang):
   XX=            -47.1391   YY=            -60.9890   ZZ=            -51.2193
   XY=              0.4063   XZ=              1.0209   YZ=             -2.7456

  Exact polarizability:  92.853   2.625  66.947  -4.627   0.977  73.143
 Approx polarizability: 129.106   2.685 104.976 -12.300   8.197 111.724

                      1                      2                      3
                      A                      A                      A
 Frequencies --     70.4094               102.4807               130.8064
 Red. masses --      3.7974                 3.1118                 1.9039
 Frc consts  --      0.0111                 0.0193                 0.0192
 IR Inten    --      2.4084                 4.1585                 2.4479

                      4                      5                      6
                      A                      A                      A
 Frequencies --    185.2687               200.8678               261.8308
 Red. masses --      1.5871                 2.0844                 2.2327
 Frc consts  --      0.0321                 0.0496                 0.0902
 IR Inten    --      0.2489                 2.3369                 3.1659

                      7                      8                      9
                      A                      A                      A
 Frequencies --    279.4225               362.3586               439.0465
 Red. masses --      2.9484                 3.3407                 3.5687
 Frc consts  --      0.1356                 0.2584                 0.4053
 IR Inten    --      8.4421                 4.9647                 4.4292

                     10                     11                     12
                      A                      A                      A
 Frequencies --    460.2257               570.5606               587.5314
 Red. masses --      2.9454                 3.5127                 3.2422
 Frc consts  --      0.3676                 0.6738                 0.6594
 IR Inten    --      1.6303                 5.8709                 2.4519

                     13                     14                     15
                      A                      A                      A
 Frequencies --    736.5759               769.8920               799.8089
 Red. masses --      1.5310                 4.0735                 2.8054
 Frc consts  --      0.4894                 1.4226                 1.0574
 IR Inten    --     56.4488                 1.7271                 1.8486

                     16                     17                     18
                      A                      A                      A
 Frequencies --    851.1674               924.7903               945.2206
 Red. masses --      1.6978                 2.4264                 2.3963
 Frc consts  --      0.7247                 1.2226                 1.2614
 IR Inten    --      5.2314                 3.7392                 7.9246

                     19                     20                     21
                      A                      A                      A
 Frequencies --    970.5822               990.6073               997.4637
 Red. masses --      1.3787                 2.1086                 2.0605
 Frc consts  --      0.7652                 1.2191                 1.2079
 IR Inten    --      1.7719                 4.6904                 7.6934

                     22                     23                     24
                      A                      A                      A
 Frequencies --   1065.2872              1097.4938              1109.6928
 Red. masses --      2.7695                 1.8010                 1.7300
 Frc consts  --      1.8518                 1.2781                 1.2552
 IR Inten    --     19.6874                 3.4625                53.4736

                     25                     26                     27
                      A                      A                      A
 Frequencies --   1153.7825              1178.2087              1182.3375
 Red. masses --      3.2530                 1.5663                 1.3409
 Frc consts  --      2.5514                 1.2811                 1.1044
 IR Inten    --     93.3275                 9.9526                 6.7078

                     28                     29                     30
                      A                      A                      A
 Frequencies --   1212.8213              1236.7373              1263.8423
 Red. masses --      1.7960                 1.8916                 1.3940
 Frc consts  --      1.5565                 1.7047                 1.3118
 IR Inten    --     18.7169                 8.0651                 2.0473

                     31                     32                     33
                      A                      A                      A
 Frequencies --   1300.4974              1323.8520              1372.2142
 Red. masses --      1.3226                 1.5087                 1.6274
 Frc consts  --      1.3179                 1.5579                 1.8055
 IR Inten    --      5.2173                 0.2302                 4.0021

                     34                     35                     36
                      A                      A                      A
 Frequencies --   1401.8924              1467.2748              1481.7028
 Red. masses --      1.2678                 1.0849                 1.1274
 Frc consts  --      1.4680                 1.3762                 1.4583
 IR Inten    --     14.4820                 2.3695                 0.6203

                     37                     38                     39
                      A                      A                      A
 Frequencies --   1487.4443              1492.3014              1509.3608
 Red. masses --      1.0791                 1.0735                 1.0593
 Frc consts  --      1.4067                 1.4086                 1.4219
 IR Inten    --      6.7771                 1.6756                 8.6100

                     40                     41                     42
                      A                      A                      A
 Frequencies --   1680.1005              1824.9204              2871.4256
 Red. masses --      6.4365                10.8296                 1.0837
 Frc consts  --     10.7046                21.2495                 5.2643
 IR Inten    --      5.8039               122.8260               110.8478

                     43                     44                     45
                      A                      A                      A
 Frequencies --   2989.5310              3029.0929              3043.3980
 Red. masses --      1.0379                 1.0617                 1.1003
 Frc consts  --      5.4650                 5.7394                 6.0044
 IR Inten    --     44.4759                27.7128                40.1818

                     46                     47                     48
                      A                      A                      A
 Frequencies --   3058.8449              3072.0160              3120.9980
 Red. masses --      1.0908                 1.0714                 1.0978
 Frc consts  --      6.0135                 5.9571                 6.3004
 IR Inten    --     10.9570                33.2365                24.4776

                     49                     50                     51
                      A                      A                      A
 Frequencies --   3129.7198              3188.5796              3218.9297
 Red. masses --      1.1028                 1.0863                 1.1028
 Frc consts  --      6.3644                 6.5070                 6.7326
 IR Inten    --     10.3437                 6.9066                11.9468

 - Thermochemistry -
 -------------------
 Temperature   298.150 Kelvin.  Pressure   1.00000 Atm.
 Atom     1 has atomic number  6 and mass  12.00000

 Molecular mass:   126.06808 amu.
 Principal axes and moments of inertia in atomic units:
                           1         2         3
     Eigenvalues --   788.275491216.771751458.72041
           X            0.99994  -0.01093   0.00303
           Y            0.01106   0.99875  -0.04879
           Z           -0.00250   0.04882   0.99880
 This molecule is an asymmetric top.
 Rotational symmetry number  1.
 Warning -- assumption of classical behavior for rotation
           may cause significant error
 Rotational temperatures (Kelvin)      0.10988     0.07118     0.05938
 Rotational constants (GHZ):           2.28948     1.48322     1.23721
 Zero-point vibrational energy     413915.2 (Joules/Mol)
                                   98.92811 (Kcal/Mol)
 Warning -- explicit consideration of  12 degrees of freedom as
           vibrations may cause significant error
 Vibrational temperatures:    101.30   147.45   188.20   266.56   289.00
          (Kelvin)            376.72   402.03   521.35   631.69   662.16
                              820.91   845.33  1059.77  1107.70  1150.75
                             1224.64  1330.57  1359.96  1396.45  1425.26
                             1435.13  1532.71  1579.05  1596.60  1660.03
                             1695.18  1701.12  1744.98  1779.39  1818.38
                             1871.12  1904.73  1974.31  2017.01  2111.08
                             2131.84  2140.10  2147.09  2171.63  2417.29
                             2625.65  4131.34  4301.26  4358.18  4378.77
                             4400.99  4419.94  4490.41  4502.96  4587.65
                             4631.32

 Zero-point correction=                           0.157652 (Hartree/Particle)
 Thermal correction to Energy=                    0.166750
 Thermal correction to Enthalpy=                  0.167694
 Thermal correction to Gibbs Free Energy=         0.123552
 Sum of electronic and zero-point Energies=           -423.033321
 Sum of electronic and thermal Energies=              -423.024223
 Sum of electronic and thermal Enthalpies=            -423.023279
 Sum of electronic and thermal Free Energies=         -423.067421

                     E (Thermal)             CV                S
                      KCal/Mol        Cal/Mol-Kelvin    Cal/Mol-Kelvin
 Total                  104.637             33.194             92.904
 Electronic               0.000              0.000              0.000
 Translational            0.889              2.981             40.409
 Rotational               0.889              2.981             28.727
 Vibrational            102.860             27.233             23.768
 Vibration     1          0.598              1.968              4.142
 Vibration     2          0.605              1.947              3.407
 Vibration     3          0.612              1.923              2.934
 Vibration     4          0.631              1.860              2.275
 Vibration     5          0.638              1.839              2.125
 Vibration     6          0.669              1.743              1.650
 Vibration     7          0.680              1.712              1.537
 Vibration     8          0.736              1.550              1.112
 Vibration     9          0.799              1.385              0.830
 Vibration    10          0.818              1.338              0.765
 Vibration    11          0.927              1.095              0.503
 Vibration    12          0.945              1.058              0.472

 Optimization completed.
    -- Stationary point found.
 Normal termination of Gaussian 09 at Tue Jan 28 10:05:22 2020.
