 Gaussian 09, Revision D.01,
 Gaussian 09:  ES64L-G09RevD.01 24-Apr-2013

 -----------------------------
 # b3lyp 6-31G(2df,p) opt Freq
 -----------------------------

 -----
 titel
 -----
 Symbolic Z-matrix:
 Charge =  0 Multiplicity = 1

 SCF Done:  E(RB3LYP) =  -423.206018858     A.U. after   14 cycles
 Optimization completed.
    -- Stationary point found.
 Normal termination of Gaussian 09 at Tue Jan 28 02:27:15 2020.

 ----------------------------------------------------------------------
 #N Geom=AllCheck Guess=TCheck SCRF=Check GenChk RB3LYP/6-31G(2df,p) Fr
 eq
 ----------------------------------------------------------------------

 Structure from the checkpoint file:  "/scratch/puck/g09_d6851502-221d-4b71-bca8-c7fa8fdb0a5d/Gau-194573.chk"
 -----
 titel
 -----
 Charge =  0 Multiplicity = 1

                         Standard orientation:
 ---------------------------------------------------------------------
 Center     Atomic      Atomic             Coordinates (Angstroms)
 Number     Number       Type             X           Y           Z
 ---------------------------------------------------------------------
      1          6           0        2.645344   -0.438618   -0.547100
      2          6           0        1.295363   -0.159523    0.068762
      3          6           0        1.146273    0.874506    1.139618
      4          6           0        0.518130    1.120054   -0.230898
      5          6           0       -0.927798    0.767140   -0.303196
      6          8           0       -1.887816    1.501439   -0.336337
      7          6           0       -1.056278   -0.761061   -0.337550
      8          8           0       -2.189577   -1.219913    0.349924
      9          6           0        0.282332   -1.318355    0.179778
     10          1           0        2.543477   -0.845534   -1.559389
     11          1           0        3.249961    0.471687   -0.610482
     12          1           0        3.205074   -1.168120    0.049282
     13          1           0        0.496172    0.676330    1.986455
     14          1           0        1.999589    1.503339    1.371056
     15          1           0        0.900506    1.940670   -0.826361
     16          1           0       -1.128368   -0.995994   -1.417804
     17          1           0       -2.840786   -0.506509    0.278834
     18          1           0        0.164146   -1.655652    1.214000
     19          1           0        0.609169   -2.177285   -0.410781
 ---------------------------------------------------------------------

 SCF Done:  E(RB3LYP) =  -423.206018858     A.U. after    1 cycles

 The electronic state is 1-A.
 Alpha  occ. eigenvalues --  -19.13690 -19.13654 -10.26843 -10.23756 -10.21607
 Alpha  occ. eigenvalues --  -10.20487 -10.20436 -10.19236 -10.19086  -1.05183
 Alpha  occ. eigenvalues --   -1.01621  -0.89839  -0.76145  -0.73734  -0.67216
 Alpha  occ. eigenvalues --   -0.61906  -0.56528  -0.55777  -0.51141  -0.47631
 Alpha  occ. eigenvalues --   -0.47204  -0.44365  -0.43075  -0.42946  -0.41165
 Alpha  occ. eigenvalues --   -0.39635  -0.38823  -0.37010  -0.35885  -0.34187
 Alpha  occ. eigenvalues --   -0.30200  -0.29607  -0.27105  -0.24315
 Alpha virt. eigenvalues --   -0.02364   0.08486   0.09578   0.11022   0.11455
 Alpha virt. eigenvalues --    0.11846   0.13315   0.15184   0.15413   0.15847
 Alpha virt. eigenvalues --    0.16732   0.18711   0.19663   0.21475   0.23193

 Mulliken charges:
               1
     1  C   -0.485685
     2  C    0.340456
     3  C   -0.314339
     4  C   -0.199593
     5  C    0.358846
     6  O   -0.345469
     7  C    0.074217
     8  O   -0.438241
     9  C   -0.331079
    10  H    0.121839
    11  H    0.118690
    12  H    0.125892
    13  H    0.127306
    14  H    0.122838
    15  H    0.109504
    16  H    0.093075
    17  H    0.291174
    18  H    0.121129
    19  H    0.109440
 Sum of Mulliken charges =   0.00000

 Dipole moment (field-independent basis, Debye):
    X=              2.9556    Y=             -0.3330    Z=             -0.3225  Tot=              2.9917
 Quadrupole moment (field-independent basis, Debye-Ang):
   XX=            -54.8341   YY=            -57.5511   ZZ=            -51.6651
   XY=              1.8587   XZ=              0.1465   YZ=              1.7015

  Exact polarizability:  88.368  -2.365  74.166   0.875   0.958  64.209
 Approx polarizability: 121.871  -8.659 112.413   2.435  -0.778 100.303

                      1                      2                      3
                      A                      A                      A
 Frequencies --     49.7759               133.2405               225.3266
 Red. masses --      3.8090                 3.8360                 1.0745
 Frc consts  --      0.0056                 0.0401                 0.0321
 IR Inten    --      1.1522                 1.5268                 0.1752

                      4                      5                      6
                      A                      A                      A
 Frequencies --    244.6496               292.6320               333.1283
 Red. masses --      3.3700                 3.6899                 2.9879
 Frc consts  --      0.1188                 0.1862                 0.1954
 IR Inten    --     17.1560                 6.2549                 4.2702

                      7                      8                      9
                      A                      A                      A
 Frequencies --    384.7851               402.4240               428.1726
 Red. masses --      2.3247                 1.8705                 1.4720
 Frc consts  --      0.2028                 0.1785                 0.1590
 IR Inten    --      2.4212                53.0918                27.2548

                     10                     11                     12
                      A                      A                      A
 Frequencies --    479.8004               552.5943               592.9080
 Red. masses --      2.9802                 4.1080                 4.3525
 Frc consts  --      0.4042                 0.7391                 0.9015
 IR Inten    --     17.7880                 0.1366                 5.1254

                     13                     14                     15
                      A                      A                      A
 Frequencies --    658.5455               729.1339               803.3572
 Red. masses --      3.3649                 4.5586                 2.1194
 Frc consts  --      0.8598                 1.4279                 0.8059
 IR Inten    --      2.4248                 2.3807                 2.4501

                     16                     17                     18
                      A                      A                      A
 Frequencies --    851.5125               900.5235               927.6440
 Red. masses --      2.6011                 1.5882                 2.2621
 Frc consts  --      1.1112                 0.7588                 1.1469
 IR Inten    --     13.5161                20.7647                 4.4532

                     19                     20                     21
                      A                      A                      A
 Frequencies --    946.9500               991.8101              1026.7755
 Red. masses --      1.4942                 2.2092                 1.9255
 Frc consts  --      0.7894                 1.2804                 1.1960
 IR Inten    --      5.3142                10.0457                 3.7134

                     22                     23                     24
                      A                      A                      A
 Frequencies --   1045.7935              1058.6926              1073.0053
 Red. masses --      1.8230                 1.7931                 1.3486
 Frc consts  --      1.1747                 1.1841                 0.9148
 IR Inten    --      9.7346                31.9943                 9.3004

                     25                     26                     27
                      A                      A                      A
 Frequencies --   1101.1032              1147.2073              1170.9804
 Red. masses --      1.5112                 2.9323                 1.4315
 Frc consts  --      1.0795                 2.2738                 1.1565
 IR Inten    --     19.4424                92.0273                 8.3195

                     28                     29                     30
                      A                      A                      A
 Frequencies --   1188.7791              1247.2850              1261.0969
 Red. masses --      2.3211                 1.6351                 1.2886
 Frc consts  --      1.9326                 1.4988                 1.2075
 IR Inten    --      9.0434                 6.2193                21.5500

                     31                     32                     33
                      A                      A                      A
 Frequencies --   1288.2836              1298.3949              1362.2258
 Red. masses --      1.4093                 2.4921                 1.6298
 Frc consts  --      1.3781                 2.4753                 1.7819
 IR Inten    --     21.8157                 1.9653                17.3977

                     34                     35                     36
                      A                      A                      A
 Frequencies --   1398.1896              1416.2997              1423.5912
 Red. masses --      1.9393                 1.5082                 1.4771
 Frc consts  --      2.2337                 1.7824                 1.7637
 IR Inten    --      4.5034                37.7255                 2.9422

                     37                     38                     39
                      A                      A                      A
 Frequencies --   1486.8348              1488.9795              1499.8988
 Red. masses --      1.1537                 1.0597                 1.0583
 Frc consts  --      1.5027                 1.3843                 1.4028
 IR Inten    --      4.4076                 4.6357                 2.6722

                     40                     41                     42
                      A                      A                      A
 Frequencies --   1507.9875              1824.3714              2908.4966
 Red. masses --      1.1656                12.4876                 1.0793
 Frc consts  --      1.5617                24.4882                 5.3796
 IR Inten    --      2.1985               243.4661                35.9498

                     43                     44                     45
                      A                      A                      A
 Frequencies --   3026.0323              3059.0228              3087.8262
 Red. masses --      1.0356                 1.0604                 1.1011
 Frc consts  --      5.5870                 5.8466                 6.1856
 IR Inten    --     29.7589                22.3512                21.1005

                     46                     47                     48
                      A                      A                      A
 Frequencies --   3100.6250              3106.2687              3123.2098
 Red. masses --      1.1015                 1.1044                 1.0542
 Frc consts  --      6.2393                 6.2787                 6.0589
 IR Inten    --     15.0078                21.7712                11.7062

                     49                     50                     51
                      A                      A                      A
 Frequencies --   3184.4448              3210.2281              3729.5495
 Red. masses --      1.0919                 1.1160                 1.0651
 Frc consts  --      6.5237                 6.7764                 8.7289
 IR Inten    --      3.5676                 5.6312                34.7740

 - Thermochemistry -
 -------------------
 Temperature   298.150 Kelvin.  Pressure   1.00000 Atm.
 Atom     1 has atomic number  6 and mass  12.00000

 Molecular mass:   126.06808 amu.
 Principal axes and moments of inertia in atomic units:
                           1         2         3
     Eigenvalues --   638.470181295.612971651.62007
           X            0.99994   0.00836  -0.00701
           Y           -0.00816   0.99955   0.02899
           Z            0.00725  -0.02893   0.99956
 This molecule is an asymmetric top.
 Rotational symmetry number  1.
 Warning -- assumption of classical behavior for rotation
           may cause significant error
 Rotational temperatures (Kelvin)      0.13566     0.06685     0.05244
 Rotational constants (GHZ):           2.82666     1.39296     1.09271
 Zero-point vibrational energy     417379.4 (Joules/Mol)
                                   99.75608 (Kcal/Mol)
 Warning -- explicit consideration of  12 degrees of freedom as
           vibrations may cause significant error
 Vibrational temperatures:     71.62   191.70   324.19   352.00   421.03
          (Kelvin)            479.30   553.62   579.00   616.04   690.32
                              795.06   853.06   947.50  1049.06  1155.85
                             1225.14  1295.65  1334.67  1362.45  1426.99
                             1477.30  1504.66  1523.22  1543.81  1584.24
                             1650.57  1684.78  1710.39  1794.56  1814.43
                             1853.55  1868.10  1959.94  2011.68  2037.74
                             2048.23  2139.22  2142.31  2158.02  2169.66
                             2624.86  4184.67  4353.78  4401.25  4442.69
                             4461.10  4469.22  4493.60  4581.70  4618.80
                             5365.98

 Zero-point correction=                           0.158971 (Hartree/Particle)
 Thermal correction to Energy=                    0.167508
 Thermal correction to Enthalpy=                  0.168452
 Thermal correction to Gibbs Free Energy=         0.125684
 Sum of electronic and zero-point Energies=           -423.047047
 Sum of electronic and thermal Energies=              -423.038511
 Sum of electronic and thermal Enthalpies=            -423.037567
 Sum of electronic and thermal Free Energies=         -423.080335

                     E (Thermal)             CV                S
                      KCal/Mol        Cal/Mol-Kelvin    Cal/Mol-Kelvin
 Total                  105.113             32.928             90.013
 Electronic               0.000              0.000              0.000
 Translational            0.889              2.981             40.409
 Rotational               0.889              2.981             28.704
 Vibrational            103.335             26.966             20.901
 Vibration     1          0.595              1.978              4.826
 Vibration     2          0.613              1.920              2.899
 Vibration     3          0.650              1.802              1.916
 Vibration     4          0.660              1.772              1.769
 Vibration     5          0.688              1.687              1.459
 Vibration     6          0.715              1.609              1.245
 Vibration     7          0.754              1.503              1.020
 Vibration     8          0.768              1.465              0.954
 Vibration     9          0.790              1.409              0.865
 Vibration    10          0.836              1.295              0.711
 Vibration    11          0.908              1.134              0.539
 Vibration    12          0.950              1.047              0.462

 Optimization completed.
    -- Stationary point found.
 Normal termination of Gaussian 09 at Tue Jan 28 03:11:21 2020.
