 Gaussian 09, Revision D.01,
 Gaussian 09:  ES64L-G09RevD.01 24-Apr-2013

 -----------------------------
 # b3lyp 6-31G(2df,p) opt Freq
 -----------------------------

 -----
 titel
 -----
 Symbolic Z-matrix:
 Charge =  0 Multiplicity = 1

 SCF Done:  E(RB3LYP) =  -423.169918302     A.U. after   14 cycles
 Optimization completed.
    -- Stationary point found.
 Normal termination of Gaussian 09 at Mon Jan 27 14:08:27 2020.

 ----------------------------------------------------------------------
 #N Geom=AllCheck Guess=TCheck SCRF=Check GenChk RB3LYP/6-31G(2df,p) Fr
 eq
 ----------------------------------------------------------------------

 Structure from the checkpoint file:  "/scratch/puck/g09_3ee99637-6530-4b0e-adbf-0dd9e60ac286/Gau-41177.chk"
 -----
 titel
 -----
 Charge =  0 Multiplicity = 1

                         Standard orientation:
 ---------------------------------------------------------------------
 Center     Atomic      Atomic             Coordinates (Angstroms)
 Number     Number       Type             X           Y           Z
 ---------------------------------------------------------------------
      1          6           0       -1.980646    1.136921    0.619137
      2          6           0       -1.739496   -0.056499   -0.285516
      3          8           0       -2.493707   -0.325652   -1.197293
      4          6           0       -0.536124   -0.916152   -0.051299
      5          6           0        0.149502   -1.060824    1.316368
      6          6           0        0.847155   -0.348265    0.227277
      7          6           0        2.137055   -0.652187   -0.527253
      8          6           0        2.313047    0.881355   -0.518372
      9          8           0        1.114802    1.051065    0.281466
     10          1           0       -1.089060    1.768786    0.665826
     11          1           0       -2.831782    1.701229    0.236704
     12          1           0       -2.202649    0.805589    1.640061
     13          1           0       -0.547748   -1.799049   -0.683020
     14          1           0       -0.235497   -0.453538    2.128585
     15          1           0        0.482760   -2.051889    1.606555
     16          1           0        2.882630   -1.202602    0.050026
     17          1           0        2.016076   -1.115688   -1.507233
     18          1           0        3.195850    1.266962    0.000568
     19          1           0        2.217709    1.370801   -1.493510
 ---------------------------------------------------------------------

 SCF Done:  E(RB3LYP) =  -423.169918302     A.U. after    1 cycles

 The electronic state is 1-A.
 Alpha  occ. eigenvalues --  -19.15150 -19.11315 -10.26188 -10.26016 -10.24508
 Alpha  occ. eigenvalues --  -10.20435 -10.20040 -10.19736 -10.17509  -1.05854
 Alpha  occ. eigenvalues --   -1.02469  -0.86458  -0.75800  -0.73102  -0.65932
 Alpha  occ. eigenvalues --   -0.64095  -0.55930  -0.52796  -0.51027  -0.49505
 Alpha  occ. eigenvalues --   -0.47823  -0.44300  -0.42833  -0.41373  -0.40960
 Alpha  occ. eigenvalues --   -0.39394  -0.38176  -0.37169  -0.36103  -0.34413
 Alpha  occ. eigenvalues --   -0.32355  -0.29603  -0.24925  -0.22925
 Alpha virt. eigenvalues --   -0.00444   0.06253   0.09316   0.09783   0.10540
 Alpha virt. eigenvalues --    0.11306   0.14037   0.15307   0.15890   0.17112
 Alpha virt. eigenvalues --    0.17151   0.18983   0.20302   0.20912   0.23037

 Mulliken charges:
               1
     1  C   -0.508837
     2  C    0.399936
     3  O   -0.321769
     4  C   -0.195393
     5  C   -0.380015
     6  C    0.444900
     7  C   -0.350533
     8  C   -0.073412
     9  O   -0.296441
    10  H    0.166438
    11  H    0.136529
    12  H    0.133753
    13  H    0.106005
    14  H    0.133269
    15  H    0.126257
    16  H    0.121415
    17  H    0.126136
    18  H    0.115026
    19  H    0.116738
 Sum of Mulliken charges =   0.00000

 Dipole moment (field-independent basis, Debye):
    X=              3.3537    Y=             -0.5780    Z=              1.3939  Tot=              3.6776
 Quadrupole moment (field-independent basis, Debye-Ang):
   XX=            -55.4070   YY=            -52.1221   ZZ=            -53.8993
   XY=             -2.7440   XZ=             -7.2038   YZ=             -1.7677

  Exact polarizability:  90.896  -0.988  70.756   1.977  -0.226  71.005
 Approx polarizability: 121.141   2.343 102.380  11.601   2.378 111.935

                      1                      2                      3
                      A                      A                      A
 Frequencies --     57.3200                84.9620               140.2921
 Red. masses --      3.8191                 2.8313                 2.4127
 Frc consts  --      0.0074                 0.0120                 0.0280
 IR Inten    --      3.3298                 2.8636                 0.1989

                      4                      5                      6
                      A                      A                      A
 Frequencies --    160.3750               180.4296               288.4657
 Red. masses --      3.0498                 1.2939                 3.0005
 Frc consts  --      0.0462                 0.0248                 0.1471
 IR Inten    --      3.3156                 0.5769                 2.1527

                      7                      8                      9
                      A                      A                      A
 Frequencies --    342.4377               400.7952               495.6570
 Red. masses --      2.5164                 3.5377                 3.3842
 Frc consts  --      0.1739                 0.3348                 0.4898
 IR Inten    --      1.3236                 1.9248                11.8519

                     10                     11                     12
                      A                      A                      A
 Frequencies --    516.1070               537.4413               643.7992
 Red. masses --      3.1968                 3.6061                 2.7026
 Frc consts  --      0.5017                 0.6137                 0.6600
 IR Inten    --      2.8096                 3.0485                 2.6812

                     13                     14                     15
                      A                      A                      A
 Frequencies --    735.8695               781.4549               838.2182
 Red. masses --      2.5762                 1.2784                 1.9098
 Frc consts  --      0.8219                 0.4600                 0.7906
 IR Inten    --      3.0907                 3.0207                34.0572

                     16                     17                     18
                      A                      A                      A
 Frequencies --    868.6902               890.3604               903.8485
 Red. masses --      3.0273                 1.9737                 1.6860
 Frc consts  --      1.3460                 0.9219                 0.8115
 IR Inten    --     19.4732                 8.7981                12.3243

                     19                     20                     21
                      A                      A                      A
 Frequencies --    958.0176               987.4845              1009.2196
 Red. masses --      2.5808                 2.0479                 4.1121
 Frc consts  --      1.3956                 1.1766                 2.4677
 IR Inten    --      2.9270                36.7011                82.2759

                     22                     23                     24
                      A                      A                      A
 Frequencies --   1028.8798              1057.4658              1060.7954
 Red. masses --      2.8480                 1.4157                 1.9876
 Frc consts  --      1.7763                 0.9327                 1.3177
 IR Inten    --     34.7514                13.3295                 2.9361

                     25                     26                     27
                      A                      A                      A
 Frequencies --   1110.8765              1115.5720              1164.1272
 Red. masses --      1.9811                 1.4391                 1.1538
 Frc consts  --      1.4404                 1.0552                 0.9212
 IR Inten    --     28.8598                15.2079                 0.6746

                     28                     29                     30
                      A                      A                      A
 Frequencies --   1200.0598              1213.2919              1248.0467
 Red. masses --      2.2721                 1.2060                 1.4759
 Frc consts  --      1.9279                 1.0460                 1.3545
 IR Inten    --     17.3525                 2.8037                11.6498

                     31                     32                     33
                      A                      A                      A
 Frequencies --   1258.8877              1297.0169              1353.7632
 Red. masses --      2.0497                 1.8568                 1.5228
 Frc consts  --      1.9138                 1.8404                 1.6443
 IR Inten    --     77.9524                26.8682                12.1971

                     34                     35                     36
                      A                      A                      A
 Frequencies --   1384.3523              1405.4611              1469.6488
 Red. masses --      1.3474                 1.8768                 1.2788
 Frc consts  --      1.5214                 2.1843                 1.6273
 IR Inten    --     45.9850                40.5514                10.9614

                     37                     38                     39
                      A                      A                      A
 Frequencies --   1478.4145              1482.7804              1489.3006
 Red. masses --      1.2196                 1.0628                 1.1551
 Frc consts  --      1.5706                 1.3767                 1.5095
 IR Inten    --     27.9319                 7.4743                 6.4277

                     40                     41                     42
                      A                      A                      A
 Frequencies --   1530.5922              1783.8975              3038.3908
 Red. masses --      1.1752                10.4639                 1.0556
 Frc consts  --      1.6222                19.6193                 5.7419
 IR Inten    --      0.2453               212.9693                72.8600

                     43                     44                     45
                      A                      A                      A
 Frequencies --   3040.8261              3077.8382              3087.4201
 Red. masses --      1.0383                 1.0622                 1.1087
 Frc consts  --      5.6564                 5.9287                 6.2266
 IR Inten    --      2.9889                21.8287                27.7390

                     46                     47                     48
                      A                      A                      A
 Frequencies --   3110.1918              3130.9837              3135.2710
 Red. masses --      1.0951                 1.0543                 1.1087
 Frc consts  --      6.2414                 6.0894                 6.4211
 IR Inten    --      5.4294                 6.2606                17.3934

                     49                     50                     51
                      A                      A                      A
 Frequencies --   3155.7238              3161.2482              3221.2977
 Red. masses --      1.1033                 1.0888                 1.1157
 Frc consts  --      6.4734                 6.4107                 6.8214
 IR Inten    --      6.6820                 3.8689                 3.4237

 - Thermochemistry -
 -------------------
 Temperature   298.150 Kelvin.  Pressure   1.00000 Atm.
 Atom     1 has atomic number  6 and mass  12.00000

 Molecular mass:   126.06808 amu.
 Principal axes and moments of inertia in atomic units:
                           1         2         3
     Eigenvalues --   598.588191605.960641684.90037
           X            0.99911  -0.02522  -0.03386
           Y            0.02476   0.99960  -0.01375
           Z            0.03419   0.01290   0.99933
 This molecule is an asymmetric top.
 Rotational symmetry number  1.
 Warning -- assumption of classical behavior for rotation
           may cause significant error
 Rotational temperatures (Kelvin)      0.14470     0.05393     0.05141
 Rotational constants (GHZ):           3.01500     1.12378     1.07113
 Zero-point vibrational energy     413391.5 (Joules/Mol)
                                   98.80295 (Kcal/Mol)
 Warning -- explicit consideration of  11 degrees of freedom as
           vibrations may cause significant error
 Vibrational temperatures:     82.47   122.24   201.85   230.74   259.60
          (Kelvin)            415.04   492.69   576.65   713.14   742.56
                              773.26   926.28  1058.75  1124.34  1206.01
                             1249.85  1281.03  1300.43  1378.37  1420.77
                             1452.04  1480.33  1521.46  1526.25  1598.30
                             1605.06  1674.92  1726.62  1745.65  1795.66
                             1811.26  1866.12  1947.76  1991.77  2022.14
                             2114.49  2127.11  2133.39  2142.77  2202.18
                             2566.63  4371.56  4375.07  4428.32  4442.10
                             4474.87  4504.78  4510.95  4540.38  4548.33
                             4634.72

 Zero-point correction=                           0.157453 (Hartree/Particle)
 Thermal correction to Energy=                    0.166454
 Thermal correction to Enthalpy=                  0.167398
 Thermal correction to Gibbs Free Energy=         0.123089
 Sum of electronic and zero-point Energies=           -423.012466
 Sum of electronic and thermal Energies=              -423.003465
 Sum of electronic and thermal Enthalpies=            -423.002520
 Sum of electronic and thermal Free Energies=         -423.046829

                     E (Thermal)             CV                S
                      KCal/Mol        Cal/Mol-Kelvin    Cal/Mol-Kelvin
 Total                  104.451             33.071             93.256
 Electronic               0.000              0.000              0.000
 Translational            0.889              2.981             40.409
 Rotational               0.889              2.981             28.873
 Vibrational            102.674             27.110             23.974
 Vibration     1          0.596              1.975              4.547
 Vibration     2          0.601              1.960              3.773
 Vibration     3          0.615              1.913              2.800
 Vibration     4          0.622              1.891              2.545
 Vibration     5          0.629              1.866              2.324
 Vibration     6          0.685              1.695              1.483
 Vibration     7          0.722              1.591              1.201
 Vibration     8          0.767              1.468              0.960
 Vibration     9          0.851              1.260              0.669
 Vibration    10          0.871              1.214              0.619
 Vibration    11          0.892              1.167              0.571

 Normal termination of Gaussian 09 at Mon Jan 27 14:49:22 2020.
