 Gaussian 09, Revision D.01,
 Gaussian 09:  ES64L-G09RevD.01 24-Apr-2013

 -----------------------------
 # b3lyp 6-31G(2df,p) opt Freq
 -----------------------------

 -----
 titel
 -----
 Symbolic Z-matrix:
 Charge =  0 Multiplicity = 1

 SCF Done:  E(RB3LYP) =  -423.203430978     A.U. after   14 cycles
 Optimization completed.
    -- Stationary point found.
 Normal termination of Gaussian 09 at Mon Jan 27 13:48:36 2020.

 ----------------------------------------------------------------------
 #N Geom=AllCheck Guess=TCheck SCRF=Check GenChk RB3LYP/6-31G(2df,p) Fr
 eq
 ----------------------------------------------------------------------

 Structure from the checkpoint file:  "/scratch/puck/g09_9cec9c99-5e3f-4348-a808-acbe2525a732/Gau-23158.chk"
 -----
 titel
 -----
 Charge =  0 Multiplicity = 1

                         Standard orientation:
 ---------------------------------------------------------------------
 Center     Atomic      Atomic             Coordinates (Angstroms)
 Number     Number       Type             X           Y           Z
 ---------------------------------------------------------------------
      1          8           0       -4.128286   -0.262197    0.337450
      2          6           0       -3.131652   -0.201433   -0.334425
      3          6           0       -1.835939    0.450842    0.081385
      4          6           0       -0.648122   -0.508088   -0.047475
      5          6           0        0.701948    0.203500   -0.038186
      6          8           0        0.787213    1.412751   -0.096798
      7          6           0        1.905060   -0.672050    0.028976
      8          6           0        3.108658   -0.144504    0.801544
      9          6           0        3.161570   -0.191485   -0.684688
     10          1           0       -3.106023   -0.645849   -1.359438
     11          1           0       -1.652466    1.308665   -0.579238
     12          1           0       -1.936479    0.834418    1.099335
     13          1           0       -0.657035   -1.265550    0.745947
     14          1           0       -0.702940   -1.075767   -0.989464
     15          1           0        1.723722   -1.740559    0.059258
     16          1           0        2.975339    0.825214    1.266864
     17          1           0        3.679996   -0.866452    1.373257
     18          1           0        3.063638    0.747108   -1.217706
     19          1           0        3.771687   -0.946352   -1.166817
 ---------------------------------------------------------------------

 SCF Done:  E(RB3LYP) =  -423.203430978     A.U. after    1 cycles

 The electronic state is 1-A.
 Alpha  occ. eigenvalues --  -19.13913 -19.13422 -10.27678 -10.27199 -10.21019
 Alpha  occ. eigenvalues --  -10.20869 -10.20490 -10.20427 -10.19647  -1.04650
 Alpha  occ. eigenvalues --   -1.04550  -0.87193  -0.80535  -0.71264  -0.63461
 Alpha  occ. eigenvalues --   -0.61390  -0.57660  -0.53889  -0.51333  -0.49117
 Alpha  occ. eigenvalues --   -0.47394  -0.45804  -0.44559  -0.41962  -0.40913
 Alpha  occ. eigenvalues --   -0.39807  -0.39146  -0.37669  -0.36168  -0.35300
 Alpha  occ. eigenvalues --   -0.31969  -0.30142  -0.25825  -0.25038
 Alpha virt. eigenvalues --   -0.02164  -0.01996   0.08136   0.10014   0.11197
 Alpha virt. eigenvalues --    0.11333   0.13306   0.13718   0.14252   0.16107
 Alpha virt. eigenvalues --    0.16903   0.18453   0.20356   0.21131   0.21953

 Mulliken charges:
               1
     1  O   -0.238475
     2  C    0.157473
     3  C   -0.269702
     4  C   -0.331521
     5  C    0.388621
     6  O   -0.329629
     7  C   -0.106094
     8  C   -0.245819
     9  C   -0.246889
    10  H    0.066437
    11  H    0.144296
    12  H    0.129801
    13  H    0.134834
    14  H    0.131145
    15  H    0.089905
    16  H    0.141309
    17  H    0.122023
    18  H    0.140896
    19  H    0.121387
 Sum of Mulliken charges =   0.00000

 Dipole moment (field-independent basis, Debye):
    X=              3.0605    Y=             -2.1672    Z=             -0.8617  Tot=              3.8478
 Quadrupole moment (field-independent basis, Debye-Ang):
   XX=            -65.0753   YY=            -54.5245   ZZ=            -51.4604
   XY=             -4.3531   XZ=              4.2028   YZ=              0.3043

  Exact polarizability: 105.319   0.033  67.561  -1.154   1.668  65.561
 Approx polarizability: 129.022   2.018 111.349  -6.586   1.015 101.710

                      1                      2                      3
                      A                      A                      A
 Frequencies --     39.3058                54.2639                65.4949
 Red. masses --      4.2753                 2.8218                 3.7780
 Frc consts  --      0.0039                 0.0049                 0.0095
 IR Inten    --      2.4323                 3.6857                 4.8842

                      4                      5                      6
                      A                      A                      A
 Frequencies --     97.1477               155.0655               256.3521
 Red. masses --      2.7431                 3.2109                 2.7511
 Frc consts  --      0.0153                 0.0455                 0.1065
 IR Inten    --      3.1984                 1.7581                 0.2204

                      7                      8                      9
                      A                      A                      A
 Frequencies --    269.0726               286.4360               370.0225
 Red. masses --      3.4932                 5.0142                 3.5433
 Frc consts  --      0.1490                 0.2424                 0.2858
 IR Inten    --      7.3146                 3.9196                 9.8038

                     10                     11                     12
                      A                      A                      A
 Frequencies --    517.2235               577.3626               655.0132
 Red. masses --      2.5989                 1.9460                 3.1828
 Frc consts  --      0.4096                 0.3822                 0.8046
 IR Inten    --     14.8506                 0.7935                 2.7445

                     13                     14                     15
                      A                      A                      A
 Frequencies --    771.4523               790.2746               828.4255
 Red. masses --      1.6218                 1.2690                 2.2452
 Frc consts  --      0.5687                 0.4669                 0.9078
 IR Inten    --      1.5342                 6.6307                 4.6973

                     16                     17                     18
                      A                      A                      A
 Frequencies --    831.0634               846.5783               894.1705
 Red. masses --      1.7874                 1.6141                 2.1532
 Frc consts  --      0.7273                 0.6816                 1.0143
 IR Inten    --      2.0674                 1.9753                 5.0459

                     19                     20                     21
                      A                      A                      A
 Frequencies --    921.5772              1018.5949              1045.0234
 Red. masses --      3.5356                 2.8693                 1.9777
 Frc consts  --      1.7692                 1.7540                 1.2725
 IR Inten    --     10.5228                41.3028                68.2898

                     22                     23                     24
                      A                      A                      A
 Frequencies --   1070.9152              1085.2569              1101.2261
 Red. masses --      1.4298                 1.9411                 1.5116
 Frc consts  --      0.9661                 1.3470                 1.0801
 IR Inten    --      3.6373                 5.1911                 3.9722

                     25                     26                     27
                      A                      A                      A
 Frequencies --   1107.4808              1120.9349              1129.6766
 Red. masses --      1.7930                 1.8453                 1.1135
 Frc consts  --      1.2957                 1.3661                 0.8373
 IR Inten    --     61.1933                34.4457                 2.2162

                     28                     29                     30
                      A                      A                      A
 Frequencies --   1187.8944              1211.5879              1223.5420
 Red. masses --      1.3706                 1.3507                 2.0441
 Frc consts  --      1.1395                 1.1682                 1.8030
 IR Inten    --     26.5554                 0.5089                12.1264

                     31                     32                     33
                      A                      A                      A
 Frequencies --   1256.5225              1305.9681              1361.4874
 Red. masses --      1.3874                 1.1891                 1.5853
 Frc consts  --      1.2906                 1.1949                 1.7314
 IR Inten    --     34.2340                 1.3935                 5.8410

                     34                     35                     36
                      A                      A                      A
 Frequencies --   1410.4604              1430.9799              1450.0788
 Red. masses --      1.9944                 1.1955                 1.0813
 Frc consts  --      2.3377                 1.4423                 1.3396
 IR Inten    --     80.4866                 6.9286                 4.3973

                     37                     38                     39
                      A                      A                      A
 Frequencies --   1454.3178              1465.4993              1485.7126
 Red. masses --      1.0885                 1.0923                 1.3509
 Frc consts  --      1.3564                 1.3822                 1.7569
 IR Inten    --      2.7661                14.6423                 9.5401

                     40                     41                     42
                      A                      A                      A
 Frequencies --   1787.1024              1838.5207              2834.8611
 Red. masses --     10.5520                10.1640                 1.0810
 Frc consts  --     19.8556                20.2418                 5.1183
 IR Inten    --    101.7849               216.6536               118.0328

                     43                     44                     45
                      A                      A                      A
 Frequencies --   3004.3513              3037.4230              3057.9437
 Red. masses --      1.0667                 1.0654                 1.0897
 Frc consts  --      5.6727                 5.7914                 6.0037
 IR Inten    --     15.1628                 7.2698                11.3772

                     46                     47                     48
                      A                      A                      A
 Frequencies --   3115.7697              3142.9008              3144.3393
 Red. masses --      1.0976                 1.0494                 1.0574
 Frc consts  --      6.2783                 6.1074                 6.1596
 IR Inten    --     10.2151                12.9812                 9.7770

                     49                     50                     51
                      A                      A                      A
 Frequencies --   3173.1428              3230.6596              3245.0418
 Red. masses --      1.0898                 1.1190                 1.1170
 Frc consts  --      6.4653                 6.8814                 6.9299
 IR Inten    --      8.1134                 0.3238                 4.8055

 - Thermochemistry -
 -------------------
 Temperature   298.150 Kelvin.  Pressure   1.00000 Atm.
 Atom     1 has atomic number  8 and mass  15.99491

 Molecular mass:   126.06808 amu.
 Principal axes and moments of inertia in atomic units:
                           1         2         3
     Eigenvalues --   304.455252947.343823051.30876
           X            0.99996  -0.00736   0.00490
           Y            0.00717   0.99928   0.03727
           Z           -0.00517  -0.03723   0.99929
 This molecule is an asymmetric top.
 Rotational symmetry number  1.
 Rotational temperatures (Kelvin)      0.28449     0.02939     0.02839
 Rotational constants (GHZ):           5.92777     0.61233     0.59146
 Zero-point vibrational energy     411285.2 (Joules/Mol)
                                   98.29952 (Kcal/Mol)
 Warning -- explicit consideration of  11 degrees of freedom as
           vibrations may cause significant error
 Vibrational temperatures:     56.55    78.07    94.23   139.77   223.10
          (Kelvin)            368.83   387.14   412.12   532.38   744.17
                              830.69   942.42  1109.95  1137.03  1191.92
                             1195.71  1218.04  1286.51  1325.94  1465.53
                             1503.55  1540.81  1561.44  1584.42  1593.42
                             1612.77  1625.35  1709.11  1743.20  1760.40
                             1807.85  1878.99  1958.87  2029.34  2058.86
                             2086.34  2092.44  2108.52  2137.61  2571.24
                             2645.22  4078.73  4322.59  4370.17  4399.69
                             4482.89  4521.93  4524.00  4565.44  4648.19
                             4668.89

 Zero-point correction=                           0.156650 (Hartree/Particle)
 Thermal correction to Energy=                    0.166390
 Thermal correction to Enthalpy=                  0.167334
 Thermal correction to Gibbs Free Energy=         0.120020
 Sum of electronic and zero-point Energies=           -423.046781
 Sum of electronic and thermal Energies=              -423.037041
 Sum of electronic and thermal Enthalpies=            -423.036097
 Sum of electronic and thermal Free Energies=         -423.083411

                     E (Thermal)             CV                S
                      KCal/Mol        Cal/Mol-Kelvin    Cal/Mol-Kelvin
 Total                  104.411             33.772             99.582
 Electronic               0.000              0.000              0.000
 Translational            0.889              2.981             40.409
 Rotational               0.889              2.981             29.394
 Vibrational            102.634             27.810             29.779
 Vibration     1          0.594              1.981              5.294
 Vibration     2          0.596              1.976              4.656
 Vibration     3          0.597              1.971              4.284
 Vibration     4          0.603              1.951              3.511
 Vibration     5          0.620              1.897              2.609
 Vibration     6          0.666              1.752              1.686
 Vibration     7          0.673              1.730              1.602
 Vibration     8          0.684              1.699              1.495
 Vibration     9          0.742              1.534              1.080
 Vibration    10          0.872              1.212              0.616
 Vibration    11          0.934              1.080              0.490

 Normal termination of Gaussian 09 at Mon Jan 27 14:24:48 2020.
