 Gaussian 09, Revision D.01,
 Gaussian 09:  ES64L-G09RevD.01 24-Apr-2013

 -----------------------------
 # b3lyp 6-31G(2df,p) opt Freq
 -----------------------------

 -----
 titel
 -----
 Symbolic Z-matrix:
 Charge =  0 Multiplicity = 1

 SCF Done:  E(RB3LYP) =  -423.220499517     A.U. after   13 cycles
 Optimization completed.
    -- Stationary point found.
 Normal termination of Gaussian 09 at Mon Jan 27 12:21:05 2020.

 ----------------------------------------------------------------------
 #N Geom=AllCheck Guess=TCheck SCRF=Check GenChk RB3LYP/6-31G(2df,p) Fr
 eq
 ----------------------------------------------------------------------

 Structure from the checkpoint file:  "/scratch/puck/g09_7fe0eba9-6445-4ddb-b1e5-1b99d1733e6a/Gau-152657.chk"
 -----
 titel
 -----
 Charge =  0 Multiplicity = 1

                         Standard orientation:
 ---------------------------------------------------------------------
 Center     Atomic      Atomic             Coordinates (Angstroms)
 Number     Number       Type             X           Y           Z
 ---------------------------------------------------------------------
      1          6           0       -1.823700    0.609017   -0.042117
      2          8           0       -1.654549   -0.799462   -0.244775
      3          6           0       -0.364636   -1.174500    0.161414
      4          8           0        0.590142   -1.107391   -0.907702
      5          6           0        1.416497    0.038045   -0.641642
      6          6           0        0.555897    1.308474   -0.765198
      7          6           0       -0.458137    1.127944    0.412842
      8          6           0        0.136166   -0.107191    1.158738
      9          6           0        1.640201   -0.060017    0.874317
     10          1           0       -2.167547    1.072194   -0.973708
     11          1           0       -2.594616    0.767860    0.724197
     12          1           0       -0.421718   -2.210851    0.501993
     13          1           0        2.288305   -0.011968   -1.293607
     14          1           0        1.167867    2.207069   -0.637807
     15          1           0        0.061791    1.367702   -1.738202
     16          1           0       -0.544090    2.021464    1.033327
     17          1           0       -0.200402   -0.249855    2.185084
     18          1           0        2.141627    0.811334    1.304692
     19          1           0        2.170309   -0.970748    1.163719
 ---------------------------------------------------------------------

 SCF Done:  E(RB3LYP) =  -423.220499517     A.U. after    1 cycles

 The electronic state is 1-A.
 Alpha  occ. eigenvalues --  -19.13497 -19.13116 -10.26693 -10.23099 -10.22499
 Alpha  occ. eigenvalues --  -10.19546 -10.19305 -10.18541 -10.18290  -1.06417
 Alpha  occ. eigenvalues --   -1.00305  -0.83752  -0.74733  -0.72667  -0.68693
 Alpha  occ. eigenvalues --   -0.59388  -0.57166  -0.55410  -0.53139  -0.48781
 Alpha  occ. eigenvalues --   -0.46929  -0.45438  -0.44208  -0.41639  -0.39656
 Alpha  occ. eigenvalues --   -0.37195  -0.36316  -0.35760  -0.33964  -0.32438
 Alpha  occ. eigenvalues --   -0.31369  -0.30081  -0.26551  -0.24919
 Alpha virt. eigenvalues --    0.08127   0.10671   0.11644   0.12397   0.14130
 Alpha virt. eigenvalues --    0.14460   0.15233   0.16182   0.16352   0.17082
 Alpha virt. eigenvalues --    0.18081   0.18763   0.19642   0.20445   0.21789

 Mulliken charges:
               1
     1  C   -0.087532
     2  O   -0.261856
     3  C    0.237997
     4  O   -0.288294
     5  C    0.098329
     6  C   -0.234162
     7  C   -0.045867
     8  C   -0.102184
     9  C   -0.236416
    10  H    0.105466
    11  H    0.095359
    12  H    0.085264
    13  H    0.075664
    14  H    0.096535
    15  H    0.109861
    16  H    0.073289
    17  H    0.073149
    18  H    0.098810
    19  H    0.106590
 Sum of Mulliken charges =   0.00000

 Dipole moment (field-independent basis, Debye):
    X=              0.9973    Y=              2.0713    Z=              1.6742  Tot=              2.8439
 Quadrupole moment (field-independent basis, Debye-Ang):
   XX=            -53.1691   YY=            -53.0182   ZZ=            -53.1930
   XY=             -1.5192   XZ=             -0.6933   YZ=             -2.8184

  Exact polarizability:  78.758  -1.522  71.645  -0.864  -2.904  66.909
 Approx polarizability: 109.814  -0.191 107.785  -1.336  -0.685 101.951

                      1                      2                      3
                      A                      A                      A
 Frequencies --    135.7123               333.2743               385.3205
 Red. masses --      3.3263                 2.9695                 2.0387
 Frc consts  --      0.0361                 0.1943                 0.1783
 IR Inten    --      1.4754                 0.5668                 0.7233

                      4                      5                      6
                      A                      A                      A
 Frequencies --    436.5824               501.7483               571.3387
 Red. masses --      1.7949                 5.3990                 5.2591
 Frc consts  --      0.2016                 0.8008                 1.0115
 IR Inten    --      0.6608                 6.9333                 2.8798

                      7                      8                      9
                      A                      A                      A
 Frequencies --    585.1163               740.4611               790.7712
 Red. masses --      4.6592                 4.8745                 4.6395
 Frc consts  --      0.9398                 1.5746                 1.7093
 IR Inten    --      1.8718                 5.2372                 2.1412

                     10                     11                     12
                      A                      A                      A
 Frequencies --    803.5940               846.3038               870.9892
 Red. masses --      2.7273                 2.9560                 2.4404
 Frc consts  --      1.0377                 1.2474                 1.0908
 IR Inten    --      0.1832                 4.9380                 3.9621

                     13                     14                     15
                      A                      A                      A
 Frequencies --    877.3086               920.6059               930.0110
 Red. masses --      3.0597                 2.6579                 2.6947
 Frc consts  --      1.3875                 1.3272                 1.3732
 IR Inten    --     28.6715                31.1948                22.2836

                     16                     17                     18
                      A                      A                      A
 Frequencies --    952.0594               973.5086               977.8267
 Red. masses --      2.3175                 1.9899                 2.1483
 Frc consts  --      1.2376                 1.1111                 1.2102
 IR Inten    --     18.4805                51.0176                16.0773

                     19                     20                     21
                      A                      A                      A
 Frequencies --    981.0426               995.6009              1031.1953
 Red. masses --      1.8564                 2.7759                 1.8507
 Frc consts  --      1.0527                 1.6212                 1.1595
 IR Inten    --     15.2266                 1.1974                35.0568

                     22                     23                     24
                      A                      A                      A
 Frequencies --   1046.5039              1093.1324              1111.9953
 Red. masses --      1.9008                 2.8693                 1.9391
 Frc consts  --      1.2265                 2.0201                 1.4127
 IR Inten    --      6.8313               104.7591                14.1484

                     25                     26                     27
                      A                      A                      A
 Frequencies --   1133.2496              1178.3382              1197.3507
 Red. masses --      1.2404                 1.5111                 1.3465
 Frc consts  --      0.9385                 1.2362                 1.1373
 IR Inten    --      8.8080                12.6659                11.2403

                     28                     29                     30
                      A                      A                      A
 Frequencies --   1219.1723              1235.1308              1274.2086
 Red. masses --      1.6207                 1.6049                 1.5018
 Frc consts  --      1.4194                 1.4425                 1.4366
 IR Inten    --      4.5436                 4.3021                 1.6295

                     31                     32                     33
                      A                      A                      A
 Frequencies --   1279.5687              1287.8899              1318.4914
 Red. masses --      1.4459                 1.4735                 1.4988
 Frc consts  --      1.3948                 1.4400                 1.5351
 IR Inten    --      3.7758                 3.2644                 2.2054

                     34                     35                     36
                      A                      A                      A
 Frequencies --   1331.1673              1342.7351              1346.9767
 Red. masses --      1.5736                 1.4140                 1.5482
 Frc consts  --      1.6429                 1.5020                 1.6550
 IR Inten    --      2.6093                 6.0613                 4.2963

                     37                     38                     39
                      A                      A                      A
 Frequencies --   1377.9734              1400.9151              1479.1882
 Red. masses --      1.2638                 1.3830                 1.1017
 Frc consts  --      1.4138                 1.5992                 1.4202
 IR Inten    --      3.6787                13.0005                 3.8329

                     40                     41                     42
                      A                      A                      A
 Frequencies --   1497.9251              1525.6404              3009.3845
 Red. masses --      1.1140                 1.0904                 1.0636
 Frc consts  --      1.4726                 1.4953                 5.6752
 IR Inten    --      2.9269                 0.6292                67.9161

                     43                     44                     45
                      A                      A                      A
 Frequencies --   3051.6758              3059.2054              3062.7627
 Red. masses --      1.0629                 1.1001                 1.0592
 Frc consts  --      5.8319                 6.0658                 5.8542
 IR Inten    --     17.2858                42.3433                23.2562

                     46                     47                     48
                      A                      A                      A
 Frequencies --   3089.2332              3094.3337              3107.8928
 Red. masses --      1.0882                 1.0886                 1.1023
 Frc consts  --      6.1188                 6.1410                 6.2731
 IR Inten    --     47.5141                16.7702                20.8618

                     49                     50                     51
                      A                      A                      A
 Frequencies --   3117.1828              3122.3848              3127.6988
 Red. masses --      1.1072                 1.0881                 1.0917
 Frc consts  --      6.3390                 6.2505                 6.2922
 IR Inten    --     26.4115                59.9024                 9.9204

 - Thermochemistry -
 -------------------
 Temperature   298.150 Kelvin.  Pressure   1.00000 Atm.
 Atom     1 has atomic number  6 and mass  12.00000

 Molecular mass:   126.06808 amu.
 Principal axes and moments of inertia in atomic units:
                           1         2         3
     Eigenvalues --   626.57420 896.160241028.61819
           X            0.99962  -0.02662   0.00681
           Y            0.02718   0.99436  -0.10252
           Z           -0.00404   0.10266   0.99471
 This molecule is an asymmetric top.
 Rotational symmetry number  1.
 Warning -- assumption of classical behavior for rotation
           may cause significant error
 Rotational temperatures (Kelvin)      0.13823     0.09665     0.08420
 Rotational constants (GHZ):           2.88033     2.01386     1.75453
 Zero-point vibrational energy     431610.7 (Joules/Mol)
                                  103.15744 (Kcal/Mol)
 Warning -- explicit consideration of   7 degrees of freedom as
           vibrations may cause significant error
 Vibrational temperatures:    195.26   479.51   554.39   628.14   721.90
          (Kelvin)            822.03   841.85  1065.36  1137.74  1156.19
                             1217.64  1253.16  1262.25  1324.54  1338.08
                             1369.80  1400.66  1406.87  1411.50  1432.45
                             1483.66  1505.68  1572.77  1599.91  1630.49
                             1695.36  1722.72  1754.11  1777.08  1833.30
                             1841.01  1852.98  1897.01  1915.25  1931.89
                             1938.00  1982.59  2015.60  2128.22  2155.18
                             2195.05  4329.83  4390.68  4401.51  4406.63
                             4444.71  4452.05  4471.56  4484.93  4492.41
                             4500.06

 Zero-point correction=                           0.164392 (Hartree/Particle)
 Thermal correction to Energy=                    0.170487
 Thermal correction to Enthalpy=                  0.171431
 Thermal correction to Gibbs Free Energy=         0.134115
 Sum of electronic and zero-point Energies=           -423.056108
 Sum of electronic and thermal Energies=              -423.050013
 Sum of electronic and thermal Enthalpies=            -423.049068
 Sum of electronic and thermal Free Energies=         -423.086384

                     E (Thermal)             CV                S
                      KCal/Mol        Cal/Mol-Kelvin    Cal/Mol-Kelvin
 Total                  106.982             26.184             78.538
 Electronic               0.000              0.000              0.000
 Translational            0.889              2.981             40.409
 Rotational               0.889              2.981             27.848
 Vibrational            105.205             20.222             10.282
 Vibration     1          0.614              1.918              2.863
 Vibration     2          0.715              1.609              1.244
 Vibration     3          0.754              1.502              1.018
 Vibration     4          0.797              1.390              0.837
 Vibration     5          0.857              1.246              0.654
 Vibration     6          0.927              1.093              0.502
 Vibration     7          0.942              1.064              0.476

 Optimization completed.
    -- Stationary point found.
 Normal termination of Gaussian 09 at Mon Jan 27 13:14:01 2020.
