 Gaussian 09, Revision D.01,
 Gaussian 09:  ES64L-G09RevD.01 24-Apr-2013

 -----------------------------
 # b3lyp 6-31G(2df,p) opt Freq
 -----------------------------

 -----
 titel
 -----
 Symbolic Z-matrix:
 Charge =  0 Multiplicity = 1

 SCF Done:  E(RB3LYP) =  -423.156042638     A.U. after   14 cycles
 Optimization completed.
    -- Stationary point found.
 Normal termination of Gaussian 09 at Mon Jan 27 13:14:22 2020.

 ----------------------------------------------------------------------
 #N Geom=AllCheck Guess=TCheck SCRF=Check GenChk RB3LYP/6-31G(2df,p) Fr
 eq
 ----------------------------------------------------------------------

 Structure from the checkpoint file:  "/scratch/puck/g09_72be636f-2609-4e46-8971-2ca6e44cfe29/Gau-156263.chk"
 -----
 titel
 -----
 Charge =  0 Multiplicity = 1

                         Standard orientation:
 ---------------------------------------------------------------------
 Center     Atomic      Atomic             Coordinates (Angstroms)
 Number     Number       Type             X           Y           Z
 ---------------------------------------------------------------------
      1          8           0        1.961686    1.725077   -0.000006
      2          6           0        0.869603    1.204854   -0.000027
      3          6           0        0.647805   -0.272368    0.000014
      4          6           0        1.709976   -1.079634   -0.744280
      5          6           0        1.710000   -1.079613    0.744286
      6          6           0       -0.781487   -0.765768    0.000034
      7          6           0       -1.735176   -0.115078   -1.033491
      8          8           0       -2.409601    0.633360   -0.000024
      9          6           0       -1.735181   -0.114999    1.033504
     10          1           0       -0.053554    1.822410   -0.000108
     11          1           0        1.370475   -1.966422   -1.268432
     12          1           0        2.476433   -0.500661   -1.246142
     13          1           0        1.370524   -1.966391    1.268472
     14          1           0        2.476475   -0.500624    1.246103
     15          1           0       -0.789777   -1.858036    0.000079
     16          1           0       -1.277360    0.537131   -1.786422
     17          1           0       -2.412876   -0.818324   -1.535081
     18          1           0       -1.277370    0.537267    1.786387
     19          1           0       -2.412885   -0.818204    1.535144
 ---------------------------------------------------------------------

 SCF Done:  E(RB3LYP) =  -423.156042638     A.U. after    1 cycles

 The electronic state is 1-A.
 Alpha  occ. eigenvalues --  -19.14111 -19.13490 -10.26820 -10.23857 -10.23857
 Alpha  occ. eigenvalues --  -10.21366 -10.20959 -10.20417 -10.20389  -1.04614
 Alpha  occ. eigenvalues --   -1.04194  -0.88060  -0.76181  -0.69944  -0.66788
 Alpha  occ. eigenvalues --   -0.61561  -0.58788  -0.54024  -0.52157  -0.50451
 Alpha  occ. eigenvalues --   -0.47486  -0.45183  -0.44623  -0.43521  -0.41958
 Alpha  occ. eigenvalues --   -0.39843  -0.38233  -0.37461  -0.34960  -0.33406
 Alpha  occ. eigenvalues --   -0.30528  -0.28455  -0.25793  -0.25055
 Alpha virt. eigenvalues --   -0.02746   0.07232   0.07564   0.10615   0.11331
 Alpha virt. eigenvalues --    0.11710   0.12630   0.12722   0.15597   0.17289
 Alpha virt. eigenvalues --    0.17523   0.18822   0.18970   0.20069   0.21763

 Mulliken charges:
               1
     1  O   -0.281524
     2  C    0.076473
     3  C    0.255277
     4  C   -0.294640
     5  C   -0.294645
     6  C   -0.132949
     7  C   -0.094016
     8  O   -0.268706
     9  C   -0.094017
    10  H    0.102270
    11  H    0.119588
    12  H    0.142672
    13  H    0.119587
    14  H    0.142672
    15  H    0.078058
    16  H    0.109141
    17  H    0.102809
    18  H    0.109141
    19  H    0.102808
 Sum of Mulliken charges =   0.00000

 Dipole moment (field-independent basis, Debye):
    X=             -0.6847    Y=             -3.1363    Z=              0.0000  Tot=              3.2102
 Quadrupole moment (field-independent basis, Debye-Ang):
   XX=            -61.9667   YY=            -55.6241   ZZ=            -50.0157
   XY=             -1.3312   XZ=             -0.0002   YZ=              0.0000

  Exact polarizability:  82.638   0.046  74.556   0.000   0.000  69.298
 Approx polarizability: 114.994   2.203 114.069   0.000   0.000 103.170

                      1                      2                      3
                      A                      A                      A
 Frequencies --     73.1581               103.5552               136.7387
 Red. masses --      3.4417                 6.1011                 3.2002
 Frc consts  --      0.0109                 0.0385                 0.0353
 IR Inten    --      0.2242                 5.9543                 7.8733

                      4                      5                      6
                      A                      A                      A
 Frequencies --    213.9632               215.6322               275.9460
 Red. masses --      2.2117                 3.3252                 3.5173
 Frc consts  --      0.0597                 0.0911                 0.1578
 IR Inten    --      1.3715                 3.9721                 1.2069

                      7                      8                      9
                      A                      A                      A
 Frequencies --    321.7766               355.9274               479.7714
 Red. masses --      1.9819                 3.4877                 2.9761
 Frc consts  --      0.1209                 0.2603                 0.4036
 IR Inten    --      0.6574                 7.0331                 1.5612

                     10                     11                     12
                      A                      A                      A
 Frequencies --    589.1450               726.9022               797.1222
 Red. masses --      3.2355                 3.0271                 1.1043
 Frc consts  --      0.6617                 0.9424                 0.4134
 IR Inten    --      2.4324                 5.6142                 0.4228

                     13                     14                     15
                      A                      A                      A
 Frequencies --    826.7549               835.8210               872.3728
 Red. masses --      4.0594                 4.4854                 1.6163
 Frc consts  --      1.6348                 1.8462                 0.7247
 IR Inten    --      1.0527                 4.1796                 1.0123

                     16                     17                     18
                      A                      A                      A
 Frequencies --    886.0613               951.4746               952.6748
 Red. masses --      1.8755                 1.3050                 3.0506
 Frc consts  --      0.8675                 0.6961                 1.6313
 IR Inten    --      5.5512                 0.1459                71.6753

                     19                     20                     21
                      A                      A                      A
 Frequencies --   1001.5112              1033.2481              1056.2802
 Red. masses --      5.1516                 8.3448                 1.9679
 Frc consts  --      3.0444                 5.2490                 1.2936
 IR Inten    --     31.8258                80.9899                 1.0192

                     22                     23                     24
                      A                      A                      A
 Frequencies --   1058.3376              1068.5689              1072.7848
 Red. masses --      1.5469                 1.1879                 1.6450
 Frc consts  --      1.0208                 0.7992                 1.1154
 IR Inten    --      4.2504                 7.2335                 0.3790

                     25                     26                     27
                      A                      A                      A
 Frequencies --   1096.3397              1106.1899              1159.8062
 Red. masses --      2.7547                 1.5163                 1.0601
 Frc consts  --      1.9508                 1.0932                 0.8402
 IR Inten    --      2.9843                 2.1119                 0.0793

                     28                     29                     30
                      A                      A                      A
 Frequencies --   1169.5924              1205.9415              1238.9804
 Red. masses --      1.2176                 1.2881                 1.4229
 Frc consts  --      0.9814                 1.1037                 1.2869
 IR Inten    --      1.9952                 0.0033                 1.8413

                     31                     32                     33
                      A                      A                      A
 Frequencies --   1264.3732              1307.1794              1316.7365
 Red. masses --      2.0462                 1.2725                 2.7254
 Frc consts  --      1.9273                 1.2811                 2.7840
 IR Inten    --     10.1939                 0.5756                 5.0665

                     34                     35                     36
                      A                      A                      A
 Frequencies --   1373.3985              1397.1274              1445.8172
 Red. masses --      1.4346                 1.9533                 1.2711
 Frc consts  --      1.5943                 2.2464                 1.5655
 IR Inten    --      9.7455                24.5517                12.0726

                     37                     38                     39
                      A                      A                      A
 Frequencies --   1453.3478              1484.6045              1512.5747
 Red. masses --      1.0878                 1.3499                 1.0781
 Frc consts  --      1.3538                 1.7529                 1.4533
 IR Inten    --      3.7714                 6.7971                 0.1644

                     40                     41                     42
                      A                      A                      A
 Frequencies --   1537.5625              1802.2876              2909.4687
 Red. masses --      1.1104                 9.5875                 1.0841
 Frc consts  --      1.5466                18.3486                 5.4068
 IR Inten    --      1.6761               141.7388                73.5708

                     43                     44                     45
                      A                      A                      A
 Frequencies --   3005.5736              3015.2804              3058.0163
 Red. masses --      1.0549                 1.0610                 1.1065
 Frc consts  --      5.6146                 5.6834                 6.0967
 IR Inten    --    106.1077                21.6815                47.4622

                     46                     47                     48
                      A                      A                      A
 Frequencies --   3059.3214              3081.4475              3137.1751
 Red. masses --      1.1071                 1.0894                 1.0497
 Frc consts  --      6.1049                 6.0945                 6.0871
 IR Inten    --      5.8160                40.5334                11.3484

                     49                     50                     51
                      A                      A                      A
 Frequencies --   3138.5862              3226.1009              3239.6847
 Red. masses --      1.0580                 1.1184                 1.1169
 Frc consts  --      6.1403                 6.8583                 6.9065
 IR Inten    --      9.3280                 0.0780                 3.6909

 - Thermochemistry -
 -------------------
 Temperature   298.150 Kelvin.  Pressure   1.00000 Atm.
 Atom     1 has atomic number  8 and mass  15.99491

 Molecular mass:   126.06808 amu.
 Principal axes and moments of inertia in atomic units:
                           1         2         3
     Eigenvalues --   645.978741452.173291694.72693
           X            0.99985  -0.01710   0.00000
           Y            0.01710   0.99985   0.00000
           Z            0.00000   0.00000   1.00000
 This molecule is an asymmetric top.
 Rotational symmetry number  1.
 Warning -- assumption of classical behavior for rotation
           may cause significant error
 Rotational temperatures (Kelvin)      0.13408     0.05964     0.05111
 Rotational constants (GHZ):           2.79381     1.24279     1.06492
 Zero-point vibrational energy     416587.8 (Joules/Mol)
                                   99.56687 (Kcal/Mol)
 Warning -- explicit consideration of  10 degrees of freedom as
           vibrations may cause significant error
 Vibrational temperatures:    105.26   148.99   196.74   307.84   310.25
          (Kelvin)            397.02   462.96   512.10   690.28   847.65
                             1045.85  1146.88  1189.51  1202.56  1255.15
                             1274.84  1368.96  1370.68  1440.95  1486.61
                             1519.75  1522.71  1537.43  1543.50  1577.39
                             1591.56  1668.70  1682.78  1735.08  1782.61
                             1819.15  1880.74  1894.49  1976.01  2010.15
                             2080.21  2091.04  2136.01  2176.25  2212.21
                             2593.09  4186.07  4324.34  4338.31  4399.80
                             4401.68  4433.51  4513.69  4515.72  4641.63
                             4661.18

 Zero-point correction=                           0.158670 (Hartree/Particle)
 Thermal correction to Energy=                    0.167272
 Thermal correction to Enthalpy=                  0.168217
 Thermal correction to Gibbs Free Energy=         0.124942
 Sum of electronic and zero-point Energies=           -422.997373
 Sum of electronic and thermal Energies=              -422.988770
 Sum of electronic and thermal Enthalpies=            -422.987826
 Sum of electronic and thermal Free Energies=         -423.031100

                     E (Thermal)             CV                S
                      KCal/Mol        Cal/Mol-Kelvin    Cal/Mol-Kelvin
 Total                  104.965             31.710             91.078
 Electronic               0.000              0.000              0.000
 Translational            0.889              2.981             40.409
 Rotational               0.889              2.981             28.854
 Vibrational            103.188             25.748             21.815
 Vibration     1          0.599              1.967              4.067
 Vibration     2          0.605              1.946              3.386
 Vibration     3          0.614              1.917              2.849
 Vibration     4          0.644              1.820              2.010
 Vibration     5          0.645              1.817              1.995
 Vibration     6          0.678              1.718              1.559
 Vibration     7          0.707              1.632              1.301
 Vibration     8          0.731              1.563              1.140
 Vibration     9          0.836              1.295              0.711
 Vibration    10          0.946              1.055              0.469

 Optimization completed.
    -- Stationary point found.
 Normal termination of Gaussian 09 at Mon Jan 27 13:56:17 2020.
