 Gaussian 09, Revision D.01,
 Gaussian 09:  ES64L-G09RevD.01 24-Apr-2013

 -----------------------------
 # b3lyp 6-31G(2df,p) opt Freq
 -----------------------------

 -----
 titel
 -----
 Symbolic Z-matrix:
 Charge =  0 Multiplicity = 1

 SCF Done:  E(RB3LYP) =  -423.250298079     A.U. after   14 cycles
 Optimization completed.
    -- Stationary point found.
 Normal termination of Gaussian 09 at Tue Jan 28 03:11:49 2020.

 ----------------------------------------------------------------------
 #N Geom=AllCheck Guess=TCheck SCRF=Check GenChk RB3LYP/6-31G(2df,p) Fr
 eq
 ----------------------------------------------------------------------

 Structure from the checkpoint file:  "/scratch/puck/g09_32ae434a-67bf-4cf8-a4fb-d803e7e87d03/Gau-88955.chk"
 -----
 titel
 -----
 Charge =  0 Multiplicity = 1

                         Standard orientation:
 ---------------------------------------------------------------------
 Center     Atomic      Atomic             Coordinates (Angstroms)
 Number     Number       Type             X           Y           Z
 ---------------------------------------------------------------------
      1          6           0       -2.486146   -0.864341    0.001075
      2          6           0       -1.068404   -0.520328   -0.459941
      3          6           0       -0.886279    0.972039   -0.897469
      4          6           0        0.256861    1.444876    0.017286
      5          6           0       -0.049306    0.740334    1.345303
      6          6           0       -0.001816   -0.650281    0.682269
      7          6           0        1.344005   -0.545377   -0.027930
      8          8           0        2.165247   -1.378653   -0.273394
      9          8           0        1.465524    0.763612   -0.421055
     10          1           0       -2.802699   -0.241538    0.844723
     11          1           0       -3.203600   -0.706787   -0.810979
     12          1           0       -2.556699   -1.911731    0.311442
     13          1           0       -0.802676   -1.194115   -1.279861
     14          1           0       -0.617676    1.079491   -1.950245
     15          1           0       -1.793493    1.557584   -0.716330
     16          1           0        0.462371    2.513832    0.030913
     17          1           0        0.727946    0.895474    2.097330
     18          1           0       -1.022674    1.006254    1.762797
     19          1           0       -0.090459   -1.539662    1.302241
 ---------------------------------------------------------------------

 SCF Done:  E(RB3LYP) =  -423.250298079     A.U. after    1 cycles

 The electronic state is 1-A.
 Alpha  occ. eigenvalues --  -19.17362 -19.11937 -10.29620 -10.25243 -10.20847
 Alpha  occ. eigenvalues --  -10.20619 -10.20215 -10.19569 -10.18870  -1.09482
 Alpha  occ. eigenvalues --   -1.01775  -0.85701  -0.75780  -0.74536  -0.68608
 Alpha  occ. eigenvalues --   -0.61368  -0.58125  -0.54207  -0.51663  -0.50503
 Alpha  occ. eigenvalues --   -0.47303  -0.44414  -0.41956  -0.41375  -0.40627
 Alpha  occ. eigenvalues --   -0.39322  -0.38333  -0.37187  -0.36906  -0.33992
 Alpha  occ. eigenvalues --   -0.33655  -0.32959  -0.28741  -0.25742
 Alpha virt. eigenvalues --    0.01850   0.07432   0.09828   0.11284   0.12345
 Alpha virt. eigenvalues --    0.13514   0.13797   0.14649   0.15048   0.16084
 Alpha virt. eigenvalues --    0.16374   0.17814   0.19513   0.20502   0.21991

 Mulliken charges:
               1
     1  C   -0.423773
     2  C    0.033212
     3  C   -0.238467
     4  C    0.103623
     5  C   -0.248528
     6  C   -0.168843
     7  C    0.444552
     8  O   -0.354320
     9  O   -0.244245
    10  H    0.117372
    11  H    0.122458
    12  H    0.122809
    13  H    0.098529
    14  H    0.119895
    15  H    0.104228
    16  H    0.091006
    17  H    0.119688
    18  H    0.110010
    19  H    0.090790
 Sum of Mulliken charges =   0.00000

 Dipole moment (field-independent basis, Debye):
    X=             -3.8746    Y=              1.8151    Z=              1.1557  Tot=              4.4320
 Quadrupole moment (field-independent basis, Debye-Ang):
   XX=            -60.8497   YY=            -53.4555   ZZ=            -51.4643
   XY=              3.6417   XZ=              2.6395   YZ=             -0.1180

  Exact polarizability:  80.044  -2.842  75.788   0.340  -0.015  65.768
 Approx polarizability: 113.075  -9.981 116.926  -2.539   0.708  98.757

                      1                      2                      3
                      A                      A                      A
 Frequencies --    148.6026               158.8098               231.6917
 Red. masses --      2.7930                 5.2743                 1.0848
 Frc consts  --      0.0363                 0.0784                 0.0343
 IR Inten    --      0.9240                 2.0103                 0.0064

                      4                      5                      6
                      A                      A                      A
 Frequencies --    279.0692               374.0631               418.6999
 Red. masses --      2.5074                 4.6405                 1.9814
 Frc consts  --      0.1151                 0.3826                 0.2047
 IR Inten    --      0.5281                 2.0752                 1.0734

                      7                      8                      9
                      A                      A                      A
 Frequencies --    451.9537               507.5042               604.1206
 Red. masses --      3.0321                 3.0320                 4.3630
 Frc consts  --      0.3649                 0.4601                 0.9382
 IR Inten    --      2.3497                 1.3928                 2.0782

                     10                     11                     12
                      A                      A                      A
 Frequencies --    716.0046               734.9520               786.9398
 Red. masses --      3.7152                 7.4443                 4.4283
 Frc consts  --      1.1222                 2.3691                 1.6157
 IR Inten    --      3.7746                 4.7761                 0.4184

                     13                     14                     15
                      A                      A                      A
 Frequencies --    835.0403               861.8796               879.3672
 Red. masses --      3.0134                 2.7790                 2.4829
 Frc consts  --      1.2380                 1.2163                 1.1312
 IR Inten    --      6.2903                 1.1849                 7.2658

                     16                     17                     18
                      A                      A                      A
 Frequencies --    904.2503               938.2245               957.2256
 Red. masses --      2.0795                 2.2924                 2.7909
 Frc consts  --      1.0018                 1.1889                 1.5067
 IR Inten    --      6.4860                25.6963                14.5478

                     19                     20                     21
                      A                      A                      A
 Frequencies --    963.8649               986.1736              1023.4808
 Red. masses --      1.8079                 2.3419                 1.6185
 Frc consts  --      0.9896                 1.3419                 0.9989
 IR Inten    --     10.8617                28.0837                22.3296

                     22                     23                     24
                      A                      A                      A
 Frequencies --   1043.0256              1082.8474              1105.0502
 Red. masses --      1.5140                 1.6669                 1.8868
 Frc consts  --      0.9704                 1.1515                 1.3575
 IR Inten    --      6.5080                23.0956                 3.6354

                     25                     26                     27
                      A                      A                      A
 Frequencies --   1141.3564              1174.6234              1199.8556
 Red. masses --      1.7009                 1.6504                 1.9553
 Frc consts  --      1.3055                 1.3416                 1.6585
 IR Inten    --     40.6601                36.0807                15.4058

                     28                     29                     30
                      A                      A                      A
 Frequencies --   1208.5679              1237.7062              1273.6544
 Red. masses --      1.5873                 1.4377                 1.5724
 Frc consts  --      1.3660                 1.2977                 1.5028
 IR Inten    --     12.8286                 2.2948                 3.7148

                     31                     32                     33
                      A                      A                      A
 Frequencies --   1293.1845              1323.4268              1341.8791
 Red. masses --      1.4138                 1.5284                 1.5657
 Frc consts  --      1.3930                 1.5772                 1.6610
 IR Inten    --      0.2547                 2.0032                 2.3245

                     34                     35                     36
                      A                      A                      A
 Frequencies --   1359.4006              1379.0724              1413.7344
 Red. masses --      1.5395                 1.3780                 1.2300
 Frc consts  --      1.6762                 1.5441                 1.4484
 IR Inten    --     34.3949                 1.5486                 1.6536

                     37                     38                     39
                      A                      A                      A
 Frequencies --   1482.5818              1494.9306              1496.4414
 Red. masses --      1.0897                 1.0660                 1.0520
 Frc consts  --      1.4113                 1.4036                 1.3880
 IR Inten    --      3.8815                 1.3672                 0.9927

                     40                     41                     42
                      A                      A                      A
 Frequencies --   1506.3240              1893.0588              3031.3213
 Red. masses --      1.0883                12.6259                 1.0352
 Frc consts  --      1.4549                26.6587                 5.6045
 IR Inten    --      7.3211               390.7639                20.1512

                     43                     44                     45
                      A                      A                      A
 Frequencies --   3056.5236              3057.2830              3073.9324
 Red. masses --      1.0699                 1.0792                 1.0587
 Frc consts  --      5.8891                 5.9430                 5.8943
 IR Inten    --     18.9446                10.8932                14.0021

                     46                     47                     48
                      A                      A                      A
 Frequencies --   3100.3065              3103.5905              3116.5923
 Red. masses --      1.1008                 1.1016                 1.1019
 Frc consts  --      6.2343                 6.2516                 6.3061
 IR Inten    --     30.7382                21.9559                17.8776

                     49                     50                     51
                      A                      A                      A
 Frequencies --   3128.6038              3138.7652              3148.0899
 Red. masses --      1.1080                 1.0902                 1.0902
 Frc consts  --      6.3898                 6.3280                 6.3656
 IR Inten    --     20.9299                35.3193                 7.9179

 - Thermochemistry -
 -------------------
 Temperature   298.150 Kelvin.  Pressure   1.00000 Atm.
 Atom     1 has atomic number  6 and mass  12.00000

 Molecular mass:   126.06808 amu.
 Principal axes and moments of inertia in atomic units:
                           1         2         3
     Eigenvalues --   654.983501141.178511365.78246
           X            0.99893   0.04459   0.01203
           Y           -0.04457   0.99901  -0.00161
           Z           -0.01209   0.00107   0.99993
 This molecule is an asymmetric top.
 Rotational symmetry number  1.
 Warning -- assumption of classical behavior for rotation
           may cause significant error
 Rotational temperatures (Kelvin)      0.13224     0.07590     0.06342
 Rotational constants (GHZ):           2.75540     1.58147     1.32140
 Zero-point vibrational energy     425677.1 (Joules/Mol)
                                  101.73926 (Kcal/Mol)
 Warning -- explicit consideration of   9 degrees of freedom as
           vibrations may cause significant error
 Vibrational temperatures:    213.81   228.49   333.35   401.52   538.19
          (Kelvin)            602.42   650.26   730.18   869.19  1030.17
                             1057.43  1132.23  1201.44  1240.05  1265.21
                             1301.01  1349.89  1377.23  1386.78  1418.88
                             1472.56  1500.68  1557.97  1589.92  1642.16
                             1690.02  1726.32  1738.86  1780.78  1832.50
                             1860.60  1904.11  1930.66  1955.87  1984.18
                             2034.05  2133.10  2150.87  2153.04  2167.26
                             2723.69  4361.39  4397.65  4398.74  4422.70
                             4460.64  4465.37  4484.08  4501.36  4515.98
                             4529.39

 Zero-point correction=                           0.162132 (Hartree/Particle)
 Thermal correction to Energy=                    0.169457
 Thermal correction to Enthalpy=                  0.170401
 Thermal correction to Gibbs Free Energy=         0.130548
 Sum of electronic and zero-point Energies=           -423.088166
 Sum of electronic and thermal Energies=              -423.080841
 Sum of electronic and thermal Enthalpies=            -423.079897
 Sum of electronic and thermal Free Energies=         -423.119750

                     E (Thermal)             CV                S
                      KCal/Mol        Cal/Mol-Kelvin    Cal/Mol-Kelvin
 Total                  106.336             29.474             83.878
 Electronic               0.000              0.000              0.000
 Translational            0.889              2.981             40.409
 Rotational               0.889              2.981             28.414
 Vibrational            104.559             23.513             15.055
 Vibration     1          0.618              1.904              2.690
 Vibration     2          0.621              1.893              2.564
 Vibration     3          0.653              1.793              1.866
 Vibration     4          0.679              1.712              1.539
 Vibration     5          0.745              1.525              1.063
 Vibration     6          0.782              1.430              0.896
 Vibration     7          0.811              1.357              0.790
 Vibration     8          0.863              1.233              0.640
 Vibration     9          0.963              1.023              0.443

 Optimization completed.
    -- Stationary point found.
 Normal termination of Gaussian 09 at Tue Jan 28 03:57:05 2020.
