 Gaussian 09, Revision D.01,
 Gaussian 09:  ES64L-G09RevD.01 24-Apr-2013

 -----------------------------
 # b3lyp 6-31G(2df,p) opt Freq
 -----------------------------

 -----
 titel
 -----
 Symbolic Z-matrix:
 Charge =  0 Multiplicity = 1

 SCF Done:  E(RB3LYP) =  -423.133950703     A.U. after   14 cycles
 Optimization completed.
    -- Stationary point found.
 Normal termination of Gaussian 09 at Tue Jan 28 00:41:00 2020.

 ----------------------------------------------------------------------
 #N Geom=AllCheck Guess=TCheck SCRF=Check GenChk RB3LYP/6-31G(2df,p) Fr
 eq
 ----------------------------------------------------------------------

 Structure from the checkpoint file:  "/scratch/puck/g09_96b158b2-885c-4765-8bf6-d2d3223a4909/Gau-189628.chk"
 -----
 titel
 -----
 Charge =  0 Multiplicity = 1

                         Standard orientation:
 ---------------------------------------------------------------------
 Center     Atomic      Atomic             Coordinates (Angstroms)
 Number     Number       Type             X           Y           Z
 ---------------------------------------------------------------------
      1          6           0       -1.017121    1.064625    1.386306
      2          6           0       -0.677667   -0.005561    0.338508
      3          6           0        0.320774   -1.089386    0.874269
      4          6           0        1.493226   -0.269692    0.269435
      5          8           0        2.600211   -0.924073   -0.289312
      6          6           0        0.482991    0.454169   -0.640106
      7          8           0        0.723177    1.818958   -0.831954
      8          6           0       -1.873078   -0.502210   -0.317963
      9          6           0       -2.852011   -0.906023   -0.890286
     10          1           0       -1.687472    0.650069    2.144472
     11          1           0       -0.115152    1.432416    1.881748
     12          1           0       -1.513191    1.919490    0.919637
     13          1           0        0.323441   -1.262805    1.951918
     14          1           0        0.189482   -2.044834    0.358969
     15          1           0        1.902379    0.437295    0.996196
     16          1           0        2.278545   -1.565710   -0.931580
     17          1           0        0.381525   -0.085647   -1.592965
     18          1           0        0.110759    2.152405   -1.495706
     19          1           0       -3.720110   -1.267283   -1.383537
 ---------------------------------------------------------------------

 SCF Done:  E(RB3LYP) =  -423.133950703     A.U. after    1 cycles

 The electronic state is 1-A.
 Alpha  occ. eigenvalues --  -19.14846 -19.14063 -10.23700 -10.23322 -10.21636
 Alpha  occ. eigenvalues --  -10.18821 -10.18104 -10.17942 -10.17157  -1.03569
 Alpha  occ. eigenvalues --   -1.02098  -0.85456  -0.75241  -0.71595  -0.66196
 Alpha  occ. eigenvalues --   -0.64255  -0.58183  -0.53062  -0.52397  -0.50646
 Alpha  occ. eigenvalues --   -0.46040  -0.44645  -0.43302  -0.41190  -0.39351
 Alpha  occ. eigenvalues --   -0.38613  -0.36442  -0.35561  -0.34525  -0.31237
 Alpha  occ. eigenvalues --   -0.29140  -0.26863  -0.26117  -0.24521
 Alpha virt. eigenvalues --    0.04732   0.05137   0.06906   0.07877   0.09888
 Alpha virt. eigenvalues --    0.11212   0.13025   0.14805   0.15132   0.15849
 Alpha virt. eigenvalues --    0.17583   0.18429   0.21097   0.21784   0.22405

 Mulliken charges:
               1
     1  C   -0.431530
     2  C    0.068676
     3  C   -0.316512
     4  C    0.138494
     5  O   -0.433511
     6  C    0.062350
     7  O   -0.418498
     8  C    0.251949
     9  C   -0.447202
    10  H    0.123644
    11  H    0.125857
    12  H    0.121836
    13  H    0.113599
    14  H    0.104183
    15  H    0.107881
    16  H    0.278032
    17  H    0.069282
    18  H    0.291013
    19  H    0.190457
 Sum of Mulliken charges =   0.00000

 Dipole moment (field-independent basis, Debye):
    X=             -1.6530    Y=             -0.5124    Z=             -0.9280  Tot=              1.9637
 Quadrupole moment (field-independent basis, Debye-Ang):
   XX=            -59.2790   YY=            -51.6060   ZZ=            -48.3784
   XY=             -1.7491   XZ=              1.7389   YZ=              0.7666

  Exact polarizability:  91.550   4.841  71.099   8.213   4.146  70.684
 Approx polarizability: 132.900  12.634 103.886  18.418   8.109 105.500

                      1                      2                      3
                      A                      A                      A
 Frequencies --     81.6134               133.9533               183.9146
 Red. masses --      4.4362                 4.1216                 2.9706
 Frc consts  --      0.0174                 0.0436                 0.0592
 IR Inten    --      1.3765                 0.7214                 1.3428

                      4                      5                      6
                      A                      A                      A
 Frequencies --    205.9026               234.1684               249.1944
 Red. masses --      1.0649                 2.9436                 2.0763
 Frc consts  --      0.0266                 0.0951                 0.0760
 IR Inten    --      0.3361                 3.7548                17.3077

                      7                      8                      9
                      A                      A                      A
 Frequencies --    284.3600               292.7793               338.1989
 Red. masses --      1.2728                 1.5627                 2.5126
 Frc consts  --      0.0606                 0.0789                 0.1693
 IR Inten    --     45.0332                73.1624                 2.6493

                     10                     11                     12
                      A                      A                      A
 Frequencies --    368.7396               418.8350               495.7861
 Red. masses --      2.6042                 3.6689                 6.3414
 Frc consts  --      0.2086                 0.3792                 0.9184
 IR Inten    --     76.8577                 7.6397                 0.7289

                     13                     14                     15
                      A                      A                      A
 Frequencies --    534.3980               564.9562               596.1426
 Red. masses --      3.5571                 4.1331                 3.1299
 Frc consts  --      0.5985                 0.7772                 0.6554
 IR Inten    --     11.0288                 4.8670                 0.8059

                     16                     17                     18
                      A                      A                      A
 Frequencies --    616.1768               624.7103               764.8149
 Red. masses --      1.2867                 1.2181                 3.3606
 Frc consts  --      0.2878                 0.2801                 1.1582
 IR Inten    --     46.0070                44.5572                 7.0674

                     19                     20                     21
                      A                      A                      A
 Frequencies --    844.1606               879.2528               931.4984
 Red. masses --      2.1261                 2.7585                 2.1173
 Frc consts  --      0.8927                 1.2565                 1.0824
 IR Inten    --      0.3636                 8.1219                19.9670

                     22                     23                     24
                      A                      A                      A
 Frequencies --    953.3257              1015.0741              1057.4624
 Red. masses --      1.8407                 2.8894                 1.4766
 Frc consts  --      0.9856                 1.7541                 0.9729
 IR Inten    --      0.7349                 3.3799                45.5291

                     25                     26                     27
                      A                      A                      A
 Frequencies --   1107.4496              1125.3073              1145.6972
 Red. masses --      1.9189                 2.9698                 2.3319
 Frc consts  --      1.3866                 2.2157                 1.8034
 IR Inten    --     27.5157                76.4781               103.5713

                     28                     29                     30
                      A                      A                      A
 Frequencies --   1159.1428              1193.3207              1232.2102
 Red. masses --      1.5408                 2.1241                 1.6637
 Frc consts  --      1.2198                 1.7821                 1.4883
 IR Inten    --     12.6189                55.0800                 2.6637

                     31                     32                     33
                      A                      A                      A
 Frequencies --   1244.7576              1267.0583              1316.0115
 Red. masses --      1.6858                 1.4702                 1.7673
 Frc consts  --      1.5389                 1.3907                 1.8034
 IR Inten    --     16.6138                21.0058                33.5070

                     34                     35                     36
                      A                      A                      A
 Frequencies --   1333.6491              1411.3613              1423.9602
 Red. masses --      1.4780                 1.2269                 1.2655
 Frc consts  --      1.5488                 1.4399                 1.5119
 IR Inten    --      4.7789                 1.6161                23.3865

                     37                     38                     39
                      A                      A                      A
 Frequencies --   1454.4379              1484.5876              1486.8888
 Red. masses --      1.3007                 1.0907                 1.1045
 Frc consts  --      1.6211                 1.4163                 1.4388
 IR Inten    --     36.5017                11.7488                 0.6104

                     40                     41                     42
                      A                      A                      A
 Frequencies --   1494.8179              2225.3278              2996.1631
 Red. masses --      1.0902                 6.0017                 1.0846
 Frc consts  --      1.4352                17.5111                 5.7364
 IR Inten    --      6.8965                 8.9000                35.6813

                     43                     44                     45
                      A                      A                      A
 Frequencies --   3047.1082              3064.5240              3083.7286
 Red. masses --      1.0345                 1.0599                 1.0856
 Frc consts  --      5.6595                 5.8646                 6.0825
 IR Inten    --     16.5979                17.1757                15.9199

                     46                     47                     48
                      A                      A                      A
 Frequencies --   3120.6162              3124.0501              3128.0096
 Red. masses --      1.1024                 1.1046                 1.1044
 Frc consts  --      6.3250                 6.3519                 6.3667
 IR Inten    --     15.7686                16.0285                29.0425

                     49                     50                     51
                      A                      A                      A
 Frequencies --   3501.9456              3805.1109              3814.3554
 Red. masses --      1.1599                 1.0659                 1.0662
 Frc consts  --      8.3809                 9.0927                 9.1399
 IR Inten    --     75.0259                14.6031                25.5284

 - Thermochemistry -
 -------------------
 Temperature   298.150 Kelvin.  Pressure   1.00000 Atm.
 Atom     1 has atomic number  6 and mass  12.00000

 Molecular mass:   126.06808 amu.
 Principal axes and moments of inertia in atomic units:
                           1         2         3
     Eigenvalues --   770.291901489.698761660.80791
           X            0.99991  -0.01356  -0.00245
           Y            0.01370   0.99766   0.06696
           Z            0.00153  -0.06699   0.99775
 This molecule is an asymmetric top.
 Rotational symmetry number  1.
 Warning -- assumption of classical behavior for rotation
           may cause significant error
 Rotational temperatures (Kelvin)      0.11244     0.05814     0.05215
 Rotational constants (GHZ):           2.34293     1.21148     1.08666
 Zero-point vibrational energy     409487.8 (Joules/Mol)
                                   97.86993 (Kcal/Mol)
 Warning -- explicit consideration of  16 degrees of freedom as
           vibrations may cause significant error
 Vibrational temperatures:    117.42   192.73   264.61   296.25   336.92
          (Kelvin)            358.53   409.13   421.24   486.59   530.53
                              602.61   713.32   768.88   812.84   857.72
                              886.54   898.82  1100.40  1214.56  1265.05
                             1340.22  1371.62  1460.46  1521.45  1593.37
                             1619.06  1648.40  1667.75  1716.92  1772.87
                             1790.93  1823.01  1893.44  1918.82  2030.63
                             2048.76  2092.61  2135.99  2139.30  2150.71
                             3201.75  4310.81  4384.10  4409.16  4436.79
                             4489.87  4494.81  4500.50  5038.51  5474.70
                             5488.00

 Zero-point correction=                           0.155966 (Hartree/Particle)
 Thermal correction to Energy=                    0.165891
 Thermal correction to Enthalpy=                  0.166835
 Thermal correction to Gibbs Free Energy=         0.121789
 Sum of electronic and zero-point Energies=           -422.977985
 Sum of electronic and thermal Energies=              -422.968060
 Sum of electronic and thermal Enthalpies=            -422.967115
 Sum of electronic and thermal Free Energies=         -423.012161

                     E (Thermal)             CV                S
                      KCal/Mol        Cal/Mol-Kelvin    Cal/Mol-Kelvin
 Total                  104.098             37.536             94.807
 Electronic               0.000              0.000              0.000
 Translational            0.889              2.981             40.409
 Rotational               0.889              2.981             29.034
 Vibrational            102.321             31.574             25.364
 Vibration     1          0.600              1.962              3.852
 Vibration     2          0.613              1.919              2.888
 Vibration     3          0.631              1.862              2.288
 Vibration     4          0.640              1.831              2.080
 Vibration     5          0.654              1.789              1.847
 Vibration     6          0.662              1.764              1.736
 Vibration     7          0.683              1.703              1.507
 Vibration     8          0.688              1.687              1.458
 Vibration     9          0.719              1.599              1.221
 Vibration    10          0.741              1.536              1.085
 Vibration    11          0.782              1.429              0.896
 Vibration    12          0.851              1.259              0.669
 Vibration    13          0.889              1.174              0.577
 Vibration    14          0.921              1.107              0.514
 Vibration    15          0.954              1.040              0.456
 Vibration    16          0.976              0.998              0.423

 Normal termination of Gaussian 09 at Tue Jan 28 01:23:30 2020.
