 Gaussian 09, Revision D.01,
 Gaussian 09:  ES64L-G09RevD.01 24-Apr-2013

 -----------------------------
 # b3lyp 6-31G(2df,p) opt Freq
 -----------------------------

 -----
 titel
 -----
 Symbolic Z-matrix:
 Charge =  0 Multiplicity = 1

 SCF Done:  E(RB3LYP) =  -423.152204708     A.U. after   14 cycles
 Optimization completed.
    -- Stationary point found.
 Normal termination of Gaussian 09 at Mon Jan 27 16:08:45 2020.

 ----------------------------------------------------------------------
 #N Geom=AllCheck Guess=TCheck SCRF=Check GenChk RB3LYP/6-31G(2df,p) Fr
 eq
 ----------------------------------------------------------------------

 Structure from the checkpoint file:  "/scratch/puck/g09_3f32cf71-b668-4113-8606-3db0cd3ed5f0/Gau-46941.chk"
 -----
 titel
 -----
 Charge =  0 Multiplicity = 1

                         Standard orientation:
 ---------------------------------------------------------------------
 Center     Atomic      Atomic             Coordinates (Angstroms)
 Number     Number       Type             X           Y           Z
 ---------------------------------------------------------------------
      1          6           0       -0.036386    1.646724    1.081897
      2          6           0        0.511099    0.677760    0.032439
      3          6           0        1.133423    1.412964   -1.149092
      4          6           0        1.392810   -0.420595    0.673771
      5          8           0        1.710962   -1.385461   -0.330811
      6          6           0        0.440895   -1.479989    0.319656
      7          6           0       -0.508288   -0.493774   -0.391195
      8          6           0       -1.891110   -0.385258    0.186053
      9          8           0       -2.880625   -0.158447   -0.465022
     10          1           0       -0.861308    2.243101    0.679410
     11          1           0       -0.396241    1.132798    1.979007
     12          1           0        0.753529    2.338209    1.394708
     13          1           0        0.377591    1.995354   -1.686661
     14          1           0        1.909600    2.107462   -0.807026
     15          1           0        1.587290    0.705567   -1.846928
     16          1           0        2.079381   -0.325232    1.508549
     17          1           0        0.201215   -2.418308    0.806769
     18          1           0       -0.585775   -0.642162   -1.470364
     19          1           0       -1.962638   -0.532514    1.288021
 ---------------------------------------------------------------------

 SCF Done:  E(RB3LYP) =  -423.152204708     A.U. after    1 cycles

 The electronic state is 1-A.
 Alpha  occ. eigenvalues --  -19.16436 -19.14145 -10.27401 -10.25146 -10.24592
 Alpha  occ. eigenvalues --  -10.22098 -10.20380 -10.19145 -10.18031  -1.09160
 Alpha  occ. eigenvalues --   -1.04790  -0.84157  -0.75044  -0.69999  -0.67664
 Alpha  occ. eigenvalues --   -0.62304  -0.59872  -0.54416  -0.51553  -0.48282
 Alpha  occ. eigenvalues --   -0.46105  -0.44932  -0.43898  -0.42385  -0.41128
 Alpha  occ. eigenvalues --   -0.39597  -0.38745  -0.38096  -0.36009  -0.34508
 Alpha  occ. eigenvalues --   -0.33304  -0.29524  -0.26981  -0.25026
 Alpha virt. eigenvalues --   -0.03160   0.07224   0.08568   0.10308   0.10981
 Alpha virt. eigenvalues --    0.12191   0.12780   0.13940   0.15435   0.16142
 Alpha virt. eigenvalues --    0.16562   0.17293   0.19296   0.19764   0.20045

 Mulliken charges:
               1
     1  C   -0.456001
     2  C    0.263233
     3  C   -0.444811
     4  C   -0.002023
     5  O   -0.244656
     6  C    0.007447
     7  C   -0.165081
     8  C    0.147756
     9  O   -0.256653
    10  H    0.136507
    11  H    0.117872
    12  H    0.121049
    13  H    0.124118
    14  H    0.114670
    15  H    0.138027
    16  H    0.104451
    17  H    0.115308
    18  H    0.104019
    19  H    0.074768
 Sum of Mulliken charges =   0.00000

 Dipole moment (field-independent basis, Debye):
    X=              1.5301    Y=              0.6192    Z=              2.0605  Tot=              2.6402
 Quadrupole moment (field-independent basis, Debye-Ang):
   XX=            -64.6039   YY=            -51.5961   ZZ=            -52.0987
   XY=              3.3677   XZ=             -0.5460   YZ=             -1.6021

  Exact polarizability:  83.485   2.546  74.379   2.441  -1.054  69.094
 Approx polarizability: 127.045   1.757 106.625   7.634   0.843 105.895

                      1                      2                      3
                      A                      A                      A
 Frequencies --     62.5043               104.1547               226.0916
 Red. masses --      5.1153                 3.4591                 1.4640
 Frc consts  --      0.0118                 0.0221                 0.0441
 IR Inten    --      6.4033                 2.3429                 1.7006

                      4                      5                      6
                      A                      A                      A
 Frequencies --    241.4308               247.0015               266.2574
 Red. masses --      1.5047                 1.7368                 2.5628
 Frc consts  --      0.0517                 0.0624                 0.1070
 IR Inten    --      2.1076                 1.9741                 2.0297

                      7                      8                      9
                      A                      A                      A
 Frequencies --    300.6437               321.7969               379.9079
 Red. masses --      1.5734                 2.5748                 2.5130
 Frc consts  --      0.0838                 0.1571                 0.2137
 IR Inten    --      0.7003                 0.1482                 0.0390

                     10                     11                     12
                      A                      A                      A
 Frequencies --    438.3659               497.1383               548.6752
 Red. masses --      5.3219                 3.4038                 4.5350
 Frc consts  --      0.6026                 0.4956                 0.8044
 IR Inten    --      0.5361                20.9970                10.3950

                     13                     14                     15
                      A                      A                      A
 Frequencies --    632.6273               786.6292               837.6360
 Red. masses --      3.5036                 3.3504                 2.6219
 Frc consts  --      0.8262                 1.2215                 1.0839
 IR Inten    --      1.3570                 5.6954                 2.4896

                     16                     17                     18
                      A                      A                      A
 Frequencies --    855.1192               868.5186               950.8284
 Red. masses --      3.1724                 2.1922                 1.7968
 Frc consts  --      1.3667                 0.9743                 0.9571
 IR Inten    --     13.3758                16.8357                 0.9814

                     19                     20                     21
                      A                      A                      A
 Frequencies --    953.2403               990.8416               995.2537
 Red. masses --      1.6182                 1.7142                 1.7877
 Frc consts  --      0.8664                 0.9916                 1.0433
 IR Inten    --      1.5055                18.5893                10.9886

                     22                     23                     24
                      A                      A                      A
 Frequencies --   1030.1044              1031.6218              1073.8529
 Red. masses --      2.1901                 1.4447                 1.5175
 Frc consts  --      1.3692                 0.9059                 1.0310
 IR Inten    --      4.4089                 1.8894                 2.3089

                     25                     26                     27
                      A                      A                      A
 Frequencies --   1104.0482              1170.7082              1182.4503
 Red. masses --      3.8942                 1.7774                 1.9626
 Frc consts  --      2.7967                 1.4352                 1.6167
 IR Inten    --     43.3708                 8.3261                 6.1578

                     28                     29                     30
                      A                      A                      A
 Frequencies --   1197.6522              1223.7065              1263.0479
 Red. masses --      1.4603                 1.3340                 1.9366
 Frc consts  --      1.2341                 1.1770                 1.8203
 IR Inten    --      7.8231                 3.5175                 5.7445

                     31                     32                     33
                      A                      A                      A
 Frequencies --   1292.9128              1302.3172              1380.3819
 Red. masses --      2.3146                 1.8620                 3.6862
 Frc consts  --      2.2796                 1.8606                 4.1383
 IR Inten    --      3.5906                 3.4888                29.1553

                     34                     35                     36
                      A                      A                      A
 Frequencies --   1399.0729              1420.0774              1438.5147
 Red. masses --      1.2986                 1.2585                 1.2290
 Frc consts  --      1.4976                 1.4954                 1.4984
 IR Inten    --      6.0990                 6.4584                 3.4070

                     37                     38                     39
                      A                      A                      A
 Frequencies --   1483.6169              1489.7277              1501.7452
 Red. masses --      1.0510                 1.0466                 1.0574
 Frc consts  --      1.3630                 1.3685                 1.4050
 IR Inten    --      3.0419                 0.4479                 1.9681

                     40                     41                     42
                      A                      A                      A
 Frequencies --   1512.2929              1818.3901              2862.2111
 Red. masses --      1.0521                10.2226                 1.0813
 Frc consts  --      1.4177                19.9153                 5.2192
 IR Inten    --      9.4594               183.6180                90.3836

                     43                     44                     45
                      A                      A                      A
 Frequencies --   3029.1093              3032.7857              3092.6043
 Red. masses --      1.0361                 1.0361                 1.0987
 Frc consts  --      5.6011                 5.6150                 6.1910
 IR Inten    --     17.7394                22.7166                 2.6646

                     46                     47                     48
                      A                      A                      A
 Frequencies --   3096.8843              3097.6004              3105.9098
 Red. masses --      1.0879                 1.1005                 1.1016
 Frc consts  --      6.1473                 6.2215                 6.2613
 IR Inten    --     14.9275                29.9921                18.5092

                     49                     50                     51
                      A                      A                      A
 Frequencies --   3125.7624              3170.0850              3187.6599
 Red. masses --      1.1000                 1.0875                 1.1003
 Frc consts  --      6.3322                 6.4390                 6.5871
 IR Inten    --     11.3496                14.6371                17.9743

 - Thermochemistry -
 -------------------
 Temperature   298.150 Kelvin.  Pressure   1.00000 Atm.
 Atom     1 has atomic number  6 and mass  12.00000

 Molecular mass:   126.06808 amu.
 Principal axes and moments of inertia in atomic units:
                           1         2         3
     Eigenvalues --   775.998341251.619011570.10271
           X            0.99897   0.04193  -0.01716
           Y           -0.04222   0.99896  -0.01692
           Z            0.01644   0.01763   0.99971
 This molecule is an asymmetric top.
 Rotational symmetry number  1.
 Warning -- assumption of classical behavior for rotation
           may cause significant error
 Rotational temperatures (Kelvin)      0.11162     0.06920     0.05516
 Rotational constants (GHZ):           2.32570     1.44193     1.14944
 Zero-point vibrational energy     410447.8 (Joules/Mol)
                                   98.09938 (Kcal/Mol)
 Warning -- explicit consideration of  12 degrees of freedom as
           vibrations may cause significant error
 Vibrational temperatures:     89.93   149.86   325.30   347.36   355.38
          (Kelvin)            383.08   432.56   462.99   546.60   630.71
                              715.27   789.42   910.21  1131.78  1205.17
                             1230.32  1249.60  1368.03  1371.50  1425.60
                             1431.95  1482.09  1484.27  1545.03  1588.48
                             1684.39  1701.28  1723.15  1760.64  1817.24
                             1860.21  1873.74  1986.06  2012.95  2043.17
                             2069.70  2134.59  2143.38  2160.67  2175.85
                             2616.25  4118.08  4358.21  4363.50  4449.56
                             4455.72  4456.75  4468.71  4497.27  4561.04
                             4586.33

 Zero-point correction=                           0.156331 (Hartree/Particle)
 Thermal correction to Energy=                    0.165361
 Thermal correction to Enthalpy=                  0.166306
 Thermal correction to Gibbs Free Energy=         0.122566
 Sum of electronic and zero-point Energies=           -422.995873
 Sum of electronic and thermal Energies=              -422.986843
 Sum of electronic and thermal Enthalpies=            -422.985899
 Sum of electronic and thermal Free Energies=         -423.029638

                     E (Thermal)             CV                S
                      KCal/Mol        Cal/Mol-Kelvin    Cal/Mol-Kelvin
 Total                  103.766             33.846             92.057
 Electronic               0.000              0.000              0.000
 Translational            0.889              2.981             40.409
 Rotational               0.889              2.981             28.813
 Vibrational            101.988             27.884             22.836
 Vibration     1          0.597              1.972              4.377
 Vibration     2          0.605              1.946              3.375
 Vibration     3          0.650              1.801              1.910
 Vibration     4          0.658              1.777              1.792
 Vibration     5          0.661              1.768              1.752
 Vibration     6          0.672              1.735              1.620
 Vibration     7          0.693              1.672              1.413
 Vibration     8          0.707              1.632              1.301
 Vibration     9          0.750              1.513              1.040
 Vibration    10          0.799              1.387              0.832
 Vibration    11          0.853              1.256              0.665
 Vibration    12          0.904              1.143              0.547

 Optimization completed.
    -- Stationary point found.
 Normal termination of Gaussian 09 at Mon Jan 27 16:51:17 2020.
