 Gaussian 09, Revision D.01,
 Gaussian 09:  ES64L-G09RevD.01 24-Apr-2013

 -----------------------------
 # b3lyp 6-31G(2df,p) opt Freq
 -----------------------------

 -----
 titel
 -----
 Symbolic Z-matrix:
 Charge =  0 Multiplicity = 1

 SCF Done:  E(RB3LYP) =  -423.137546958     A.U. after   14 cycles
 Optimization completed.
    -- Stationary point found.
 Normal termination of Gaussian 09 at Tue Jan 28 13:26:43 2020.

 ----------------------------------------------------------------------
 #N Geom=AllCheck Guess=TCheck SCRF=Check GenChk RB3LYP/6-31G(2df,p) Fr
 eq
 ----------------------------------------------------------------------

 Structure from the checkpoint file:  "/scratch/puck/g09_a56a9aea-87fd-4eae-9afc-8fe7e81e9619/Gau-31810.chk"
 -----
 titel
 -----
 Charge =  0 Multiplicity = 1

                         Standard orientation:
 ---------------------------------------------------------------------
 Center     Atomic      Atomic             Coordinates (Angstroms)
 Number     Number       Type             X           Y           Z
 ---------------------------------------------------------------------
      1          6           0       -3.431041   -0.447725   -0.109826
      2          6           0       -2.054727    0.024668   -0.068246
      3          6           0       -0.916240    0.420968   -0.053513
      4          6           0        0.437547    0.926835    0.020386
      5          6           0        0.614853    2.198000    0.825810
      6          8           0        1.205927    0.875439   -1.202652
      7          6           0        1.571994   -0.011979   -0.146473
      8          6           0        1.346028   -1.491234   -0.378890
      9          8           0        1.108322   -2.172130    0.842498
     10          1           0       -3.834240   -0.582706    0.899744
     11          1           0       -4.077294    0.265183   -0.633227
     12          1           0       -3.504869   -1.408960   -0.629516
     13          1           0        0.277756    2.051330    1.856330
     14          1           0        1.666409    2.494712    0.832898
     15          1           0        0.025792    3.009124    0.387743
     16          1           0        2.498276    0.246892    0.369735
     17          1           0        0.523520   -1.614322   -1.095002
     18          1           0        2.243097   -1.943457   -0.814068
     19          1           0        0.257076   -1.861472    1.171110
 ---------------------------------------------------------------------

 SCF Done:  E(RB3LYP) =  -423.137546958     A.U. after    1 cycles

 The electronic state is 1-A.
 Alpha  occ. eigenvalues --  -19.15414 -19.13559 -10.26359 -10.23716 -10.22754
 Alpha  occ. eigenvalues --  -10.21411 -10.19157 -10.18767 -10.18086  -1.07492
 Alpha  occ. eigenvalues --   -1.01589  -0.79414  -0.76151  -0.72380  -0.70646
 Alpha  occ. eigenvalues --   -0.63154  -0.60619  -0.52355  -0.50217  -0.46757
 Alpha  occ. eigenvalues --   -0.46172  -0.44116  -0.43692  -0.43529  -0.42754
 Alpha  occ. eigenvalues --   -0.40580  -0.39582  -0.37744  -0.33788  -0.32253
 Alpha  occ. eigenvalues --   -0.28732  -0.26981  -0.26082  -0.25152
 Alpha virt. eigenvalues --    0.02663   0.04246   0.07150   0.10165   0.10901
 Alpha virt. eigenvalues --    0.12326   0.13753   0.14817   0.15263   0.16527
 Alpha virt. eigenvalues --    0.16989   0.18217   0.19109   0.20011   0.22221

 Mulliken charges:
               1
     1  C   -0.504496
     2  C    0.127192
     3  C    0.003602
     4  C    0.199528
     5  C   -0.470008
     6  O   -0.283502
     7  C   -0.010410
     8  C   -0.110584
     9  O   -0.418985
    10  H    0.153023
    11  H    0.156771
    12  H    0.155876
    13  H    0.129627
    14  H    0.130376
    15  H    0.135930
    16  H    0.094980
    17  H    0.109473
    18  H    0.113584
    19  H    0.288023
 Sum of Mulliken charges =   0.00000

 Dipole moment (field-independent basis, Debye):
    X=             -2.0600    Y=              0.4235    Z=              1.0650  Tot=              2.3574
 Quadrupole moment (field-independent basis, Debye-Ang):
   XX=            -45.3284   YY=            -55.8469   ZZ=            -55.4324
   XY=              3.3768   XZ=              0.0260   YZ=              4.2192

  Exact polarizability: 107.044   4.708  75.496  -0.909   2.991  60.459
 Approx polarizability: 156.059  10.061 102.103  -4.202  -1.403  94.534

                      1                      2                      3
                      A                      A                      A
 Frequencies --     25.0277                40.8547                95.3905
 Red. masses --      1.0179                 4.6021                 2.8642
 Frc consts  --      0.0004                 0.0045                 0.0154
 IR Inten    --      0.0033                 1.3232                 0.8146

                      4                      5                      6
                      A                      A                      A
 Frequencies --    118.5863               159.2146               200.7936
 Red. masses --      3.4865                 3.5437                 1.1003
 Frc consts  --      0.0289                 0.0529                 0.0261
 IR Inten    --      3.2083                 3.4984                 0.4151

                      7                      8                      9
                      A                      A                      A
 Frequencies --    236.0194               305.7101               336.9063
 Red. masses --      2.6073                 3.1438                 4.0396
 Frc consts  --      0.0856                 0.1731                 0.2702
 IR Inten    --      4.2075                 1.5365                 3.5092

                     10                     11                     12
                      A                      A                      A
 Frequencies --    352.6517               405.3817               431.7815
 Red. masses --      2.7645                 1.2841                 3.2448
 Frc consts  --      0.2026                 0.1243                 0.3564
 IR Inten    --      3.0925                94.7946                 6.0763

                     13                     14                     15
                      A                      A                      A
 Frequencies --    489.2139               539.3817               583.7359
 Red. masses --      7.0098                 6.5198                 3.6777
 Frc consts  --      0.9884                 1.1176                 0.7383
 IR Inten    --      0.5444                 1.9529                 2.3144

                     16                     17                     18
                      A                      A                      A
 Frequencies --    608.6987               778.8975               863.9128
 Red. masses --      4.5947                 4.2871                 2.4991
 Frc consts  --      1.0030                 1.5324                 1.0989
 IR Inten    --      6.2692                26.7474                11.0393

                     19                     20                     21
                      A                      A                      A
 Frequencies --    933.1389              1038.9633              1046.2756
 Red. masses --      1.9851                 2.5308                 1.9830
 Frc consts  --      1.0184                 1.6096                 1.2790
 IR Inten    --      3.0919                41.7757                 1.7372

                     22                     23                     24
                      A                      A                      A
 Frequencies --   1052.3731              1053.8328              1072.6334
 Red. masses --      1.4330                 1.4352                 4.2568
 Frc consts  --      0.9350                 0.9391                 2.8856
 IR Inten    --      8.5408                 1.7126                39.0518

                     25                     26                     27
                      A                      A                      A
 Frequencies --   1083.2637              1099.2905              1123.9274
 Red. masses --      2.3041                 1.5577                 2.1802
 Frc consts  --      1.5930                 1.1091                 1.6226
 IR Inten    --     50.5153                 1.9584                 2.3774

                     28                     29                     30
                      A                      A                      A
 Frequencies --   1217.0932              1263.1126              1328.9520
 Red. masses --      1.2218                 2.3041                 1.8202
 Frc consts  --      1.0663                 2.1659                 1.8940
 IR Inten    --     18.9015                21.7355                22.5482

                     31                     32                     33
                      A                      A                      A
 Frequencies --   1374.1670              1408.9535              1412.8958
 Red. masses --      1.4299                 1.2700                 1.2442
 Frc consts  --      1.5908                 1.4854                 1.4634
 IR Inten    --      4.9292                 5.8163                16.8210

                     34                     35                     36
                      A                      A                      A
 Frequencies --   1420.6286              1453.9160              1475.8602
 Red. masses --      1.2373                 2.1828                 1.0396
 Frc consts  --      1.4712                 2.7186                 1.3342
 IR Inten    --     41.8833                 1.4558                 6.4594

                     37                     38                     39
                      A                      A                      A
 Frequencies --   1477.2980              1480.6030              1494.5486
 Red. masses --      1.0395                 1.0997                 1.1177
 Frc consts  --      1.3367                 1.4204                 1.4710
 IR Inten    --      5.6055                 6.4504                 0.9232

                     40                     41                     42
                      A                      A                      A
 Frequencies --   1500.1441              2361.4172              3026.0644
 Red. masses --      1.0831                11.8875                 1.0618
 Frc consts  --      1.4361                39.0559                 5.7284
 IR Inten    --      2.5261                11.8759                30.3745

                     43                     44                     45
                      A                      A                      A
 Frequencies --   3030.3737              3044.0296              3080.0659
 Red. masses --      1.0347                 1.0345                 1.0973
 Frc consts  --      5.5984                 5.6477                 6.1334
 IR Inten    --     25.0017                14.1361                16.2185

                     46                     47                     48
                      A                      A                      A
 Frequencies --   3092.3173              3094.4147              3100.8363
 Red. masses --      1.1002                 1.1004                 1.0925
 Frc consts  --      6.1984                 6.2079                 6.1891
 IR Inten    --      7.4723                 7.1138                44.5022

                     49                     50                     51
                      A                      A                      A
 Frequencies --   3115.0190              3129.7436              3799.5572
 Red. masses --      1.1015                 1.1026                 1.0660
 Frc consts  --      6.2973                 6.3631                 9.0671
 IR Inten    --     13.9333                18.2697                18.3564

 - Thermochemistry -
 -------------------
 Temperature   298.150 Kelvin.  Pressure   1.00000 Atm.
 Atom     1 has atomic number  6 and mass  12.00000

 Molecular mass:   126.06808 amu.
 Principal axes and moments of inertia in atomic units:
                           1         2         3
     Eigenvalues --   975.673341483.898502075.74856
           X            0.99918   0.03972   0.00740
           Y           -0.04005   0.99789   0.05117
           Z           -0.00536  -0.05143   0.99866
 This molecule is an asymmetric top.
 Rotational symmetry number  1.
 Warning -- assumption of classical behavior for rotation
           may cause significant error
 Rotational temperatures (Kelvin)      0.08877     0.05837     0.04173
 Rotational constants (GHZ):           1.84974     1.21622     0.86944
 Zero-point vibrational energy     408272.7 (Joules/Mol)
                                   97.57952 (Kcal/Mol)
 Warning -- explicit consideration of  16 degrees of freedom as
           vibrations may cause significant error
 Vibrational temperatures:     36.01    58.78   137.25   170.62   229.07
          (Kelvin)            288.90   339.58   439.85   484.73   507.39
                              583.25   621.24   703.87   776.05   839.86
                              875.78  1120.66  1242.98  1342.58  1494.83
                             1505.36  1514.13  1516.23  1543.28  1558.57
                             1581.63  1617.08  1751.12  1817.33  1912.06
                             1977.12  2027.17  2032.84  2043.97  2091.86
                             2123.43  2125.50  2130.25  2150.32  2158.37
                             3397.55  4353.83  4360.03  4379.67  4431.52
                             4449.15  4452.17  4461.41  4481.81  4503.00
                             5466.71

 Zero-point correction=                           0.155503 (Hartree/Particle)
 Thermal correction to Energy=                    0.166218
 Thermal correction to Enthalpy=                  0.167162
 Thermal correction to Gibbs Free Energy=         0.117970
 Sum of electronic and zero-point Energies=           -422.982044
 Sum of electronic and thermal Energies=              -422.971329
 Sum of electronic and thermal Enthalpies=            -422.970385
 Sum of electronic and thermal Free Energies=         -423.019577

                     E (Thermal)             CV                S
                      KCal/Mol        Cal/Mol-Kelvin    Cal/Mol-Kelvin
 Total                  104.303             37.085            103.532
 Electronic               0.000              0.000              0.000
 Translational            0.889              2.981             40.409
 Rotational               0.889              2.981             29.487
 Vibrational            102.526             31.123             33.637
 Vibration     1          0.593              1.985              6.189
 Vibration     2          0.594              1.981              5.217
 Vibration     3          0.603              1.952              3.546
 Vibration     4          0.609              1.934              3.123
 Vibration     5          0.621              1.892              2.559
 Vibration     6          0.638              1.839              2.126
 Vibration     7          0.655              1.786              1.833
 Vibration     8          0.696              1.663              1.385
 Vibration     9          0.718              1.602              1.227
 Vibration    10          0.729              1.570              1.154
 Vibration    11          0.770              1.459              0.943
 Vibration    12          0.793              1.401              0.853
 Vibration    13          0.845              1.274              0.686
 Vibration    14          0.894              1.163              0.567
 Vibration    15          0.941              1.067              0.478
 Vibration    16          0.968              1.013              0.435

 Normal termination of Gaussian 09 at Tue Jan 28 14:02:39 2020.
