 Gaussian 09, Revision D.01,
 Gaussian 09:  ES64L-G09RevD.01 24-Apr-2013

 -----------------------------
 # b3lyp 6-31G(2df,p) opt Freq
 -----------------------------

 -----
 titel
 -----
 Symbolic Z-matrix:
 Charge =  0 Multiplicity = 1

 SCF Done:  E(RB3LYP) =  -423.160628085     A.U. after   14 cycles
 Optimization completed.
    -- Stationary point found.
 Normal termination of Gaussian 09 at Mon Jan 27 15:28:32 2020.

 ----------------------------------------------------------------------
 #N Geom=AllCheck Guess=TCheck SCRF=Check GenChk RB3LYP/6-31G(2df,p) Fr
 eq
 ----------------------------------------------------------------------

 Structure from the checkpoint file:  "/scratch/puck/g09_bf22a8ea-47f1-4cca-a124-7fd66aa7f296/Gau-162534.chk"
 -----
 titel
 -----
 Charge =  0 Multiplicity = 1

                         Standard orientation:
 ---------------------------------------------------------------------
 Center     Atomic      Atomic             Coordinates (Angstroms)
 Number     Number       Type             X           Y           Z
 ---------------------------------------------------------------------
      1          6           0        3.141492    0.243855   -0.151579
      2          6           0        1.638637    0.478705   -0.342365
      3          6           0        1.227603    1.883738    0.114300
      4          6           0        0.832939   -0.620039    0.404024
      5          8           0        1.252205   -1.936728    0.061399
      6          6           0       -0.610581   -0.461980    0.211897
      7          6           0       -1.797161   -0.342644    0.012837
      8          6           0       -3.213997   -0.234087   -0.222618
      9          8           0       -3.881164    0.736917    0.051427
     10          1           0        3.717649    0.958654   -0.746759
     11          1           0        3.424992    0.380217    0.898973
     12          1           0        3.426120   -0.767766   -0.446666
     13          1           0        1.398397    0.374801   -1.410439
     14          1           0        1.801987    2.641369   -0.427013
     15          1           0        0.165524    2.075532   -0.056995
     16          1           0        1.427553    2.019919    1.183715
     17          1           0        1.049938   -0.528352    1.476938
     18          1           0        0.970743   -2.107280   -0.844678
     19          1           0       -3.664829   -1.133885   -0.688657
 ---------------------------------------------------------------------

 SCF Done:  E(RB3LYP) =  -423.160628085     A.U. after    1 cycles

 The electronic state is 1-A.
 Alpha  occ. eigenvalues --  -19.15697 -19.14751 -10.29340 -10.27054 -10.21454
 Alpha  occ. eigenvalues --  -10.20621 -10.20092 -10.18219 -10.18002  -1.05332
 Alpha  occ. eigenvalues --   -1.04072  -0.82283  -0.78345  -0.71531  -0.69084
 Alpha  occ. eigenvalues --   -0.65408  -0.59216  -0.54743  -0.51312  -0.49408
 Alpha  occ. eigenvalues --   -0.46304  -0.44998  -0.43616  -0.41270  -0.40601
 Alpha  occ. eigenvalues --   -0.39010  -0.38264  -0.36323  -0.34482  -0.34280
 Alpha  occ. eigenvalues --   -0.30601  -0.28931  -0.28127  -0.27033
 Alpha virt. eigenvalues --   -0.06573   0.01161   0.07395   0.08830   0.10240
 Alpha virt. eigenvalues --    0.12307   0.13039   0.14553   0.14861   0.16004
 Alpha virt. eigenvalues --    0.16660   0.17532   0.18879   0.21077   0.22992

 Mulliken charges:
               1
     1  C   -0.392328
     2  C    0.015144
     3  C   -0.399244
     4  C   -0.050861
     5  O   -0.414561
     6  C    0.067374
     7  C    0.062158
     8  C    0.015845
     9  O   -0.227215
    10  H    0.113260
    11  H    0.115566
    12  H    0.128852
    13  H    0.075794
    14  H    0.119537
    15  H    0.137110
    16  H    0.118274
    17  H    0.128510
    18  H    0.285529
    19  H    0.101258
 Sum of Mulliken charges =   0.00000

 Dipole moment (field-independent basis, Debye):
    X=              2.2930    Y=             -0.8641    Z=             -1.3495  Tot=              2.7974
 Quadrupole moment (field-independent basis, Debye-Ang):
   XX=            -62.7850   YY=            -55.6721   ZZ=            -50.6982
   XY=              8.5213   XZ=              1.1354   YZ=              2.6521

  Exact polarizability: 121.241  -3.723  72.382   3.760   3.180  58.909
 Approx polarizability: 174.248 -18.744 106.933   8.553   4.406  92.126

                      1                      2                      3
                      A                      A                      A
 Frequencies --     39.7935                62.8496                76.3156
 Red. masses --      4.0773                 3.5380                 3.1855
 Frc consts  --      0.0038                 0.0082                 0.0109
 IR Inten    --      9.1199                 0.7217                 2.8139

                      4                      5                      6
                      A                      A                      A
 Frequencies --    131.4854               202.2776               213.1629
 Red. masses --      3.8324                 4.4253                 1.1491
 Frc consts  --      0.0390                 0.1067                 0.0308
 IR Inten    --      1.2970                 7.0309                 1.6056

                      7                      8                      9
                      A                      A                      A
 Frequencies --    234.5590               246.8649               296.7335
 Red. masses --      1.1070                 2.4374                 1.3339
 Frc consts  --      0.0359                 0.0875                 0.0692
 IR Inten    --      3.4360                10.1921                77.5467

                     10                     11                     12
                      A                      A                      A
 Frequencies --    301.5545               342.8275               392.7429
 Red. masses --      3.8004                 2.4035                 2.9345
 Frc consts  --      0.2036                 0.1664                 0.2667
 IR Inten    --      9.5202                 4.5236                16.9772

                     13                     14                     15
                      A                      A                      A
 Frequencies --    438.5641               512.3800               574.6894
 Red. masses --      3.5555                 4.2705                 6.4400
 Frc consts  --      0.4029                 0.6606                 1.2531
 IR Inten    --      1.8367                10.3012                 5.0481

                     16                     17                     18
                      A                      A                      A
 Frequencies --    649.7281               806.7962               862.7384
 Red. masses --      7.0054                 2.8539                 3.0303
 Frc consts  --      1.7424                 1.0945                 1.3289
 IR Inten    --     21.5377                29.2035                18.7544

                     19                     20                     21
                      A                      A                      A
 Frequencies --    925.3903               939.9952               967.3487
 Red. masses --      2.0387                 1.2606                 1.4376
 Frc consts  --      1.0286                 0.6563                 0.7926
 IR Inten    --      2.4018                 0.4487                 3.2595

                     22                     23                     24
                      A                      A                      A
 Frequencies --   1020.6798              1050.2718              1117.7645
 Red. masses --      1.7645                 4.3831                 2.3092
 Frc consts  --      1.0831                 2.8486                 1.6998
 IR Inten    --      0.6539               112.0887                42.1697

                     25                     26                     27
                      A                      A                      A
 Frequencies --   1127.4137              1157.7750              1190.5781
 Red. masses --      2.2815                 2.7396                 1.7367
 Frc consts  --      1.7086                 2.1637                 1.4504
 IR Inten    --      9.1436                71.0578                 7.4392

                     28                     29                     30
                      A                      A                      A
 Frequencies --   1260.7986              1289.2879              1346.0416
 Red. masses --      1.3818                 1.3687                 1.4159
 Frc consts  --      1.2941                 1.3405                 1.5115
 IR Inten    --     11.9375                19.7734                 2.5052

                     31                     32                     33
                      A                      A                      A
 Frequencies --   1363.7898              1399.9128              1413.6806
 Red. masses --      1.3045                 1.2391                 1.2320
 Frc consts  --      1.4296                 1.4308                 1.4506
 IR Inten    --      6.5497                 4.5219                59.1530

                     34                     35                     36
                      A                      A                      A
 Frequencies --   1421.8726              1423.6802              1488.9570
 Red. masses --      1.1897                 1.2230                 1.0492
 Frc consts  --      1.4171                 1.4605                 1.3705
 IR Inten    --     14.3791                17.6597                 2.8509

                     37                     38                     39
                      A                      A                      A
 Frequencies --   1490.4634              1502.6727              1513.7477
 Red. masses --      1.0441                 1.0455                 1.0526
 Frc consts  --      1.3666                 1.3910                 1.4210
 IR Inten    --      0.0761                 4.5934                 9.4135

                     40                     41                     42
                      A                      A                      A
 Frequencies --   1767.7841              2316.6055              2919.0557
 Red. masses --     10.5463                11.9615                 1.0817
 Frc consts  --     19.4183                37.8215                 5.4304
 IR Inten    --    238.8984               128.0561                96.8264

                     43                     44                     45
                      A                      A                      A
 Frequencies --   3000.1222              3029.2435              3033.0209
 Red. masses --      1.0814                 1.0785                 1.0385
 Frc consts  --      5.7348                 5.8309                 5.6286
 IR Inten    --     10.4625                 7.0600                13.8083

                     46                     47                     48
                      A                      A                      A
 Frequencies --   3038.0551              3097.3471              3103.1335
 Red. masses --      1.0429                 1.0992                 1.0986
 Frc consts  --      5.6713                 6.2133                 6.2331
 IR Inten    --     40.5738                 2.2651                50.7543

                     49                     50                     51
                      A                      A                      A
 Frequencies --   3123.7354              3134.1167              3802.7640
 Red. masses --      1.1008                 1.0996                 1.0662
 Frc consts  --      6.3287                 6.3639                 9.0839
 IR Inten    --     20.3794                14.7754                23.8057

 - Thermochemistry -
 -------------------
 Temperature   298.150 Kelvin.  Pressure   1.00000 Atm.
 Atom     1 has atomic number  6 and mass  12.00000

 Molecular mass:   126.06808 amu.
 Principal axes and moments of inertia in atomic units:
                           1         2         3
     Eigenvalues --   573.130742439.643552915.90938
           X            0.99971   0.02408   0.00162
           Y           -0.02410   0.99956   0.01747
           Z           -0.00120  -0.01750   0.99985
 This molecule is an asymmetric top.
 Rotational symmetry number  1.
 Warning -- assumption of classical behavior for rotation
           may cause significant error
 Rotational temperatures (Kelvin)      0.15112     0.03550     0.02970
 Rotational constants (GHZ):           3.14892     0.73976     0.61893
 Zero-point vibrational energy     407706.3 (Joules/Mol)
                                   97.44414 (Kcal/Mol)
 Warning -- explicit consideration of  15 degrees of freedom as
           vibrations may cause significant error
 Vibrational temperatures:     57.25    90.43   109.80   189.18   291.03
          (Kelvin)            306.69   337.48   355.18   426.93   433.87
                              493.25   565.07   631.00   737.20   826.85
                              934.81  1160.80  1241.29  1331.43  1352.44
                             1391.80  1468.53  1511.11  1608.21  1622.09
                             1665.78  1712.97  1814.01  1855.00  1936.65
                             1962.19  2014.16  2033.97  2045.75  2048.36
                             2142.27  2144.44  2162.01  2177.94  2543.44
                             3333.07  4199.86  4316.50  4358.40  4363.84
                             4371.08  4456.39  4464.71  4494.35  4509.29
                             5471.32

 Zero-point correction=                           0.155287 (Hartree/Particle)
 Thermal correction to Energy=                    0.166180
 Thermal correction to Enthalpy=                  0.167124
 Thermal correction to Gibbs Free Energy=         0.118123
 Sum of electronic and zero-point Energies=           -423.005341
 Sum of electronic and thermal Energies=              -422.994448
 Sum of electronic and thermal Enthalpies=            -422.993504
 Sum of electronic and thermal Free Energies=         -423.042505

                     E (Thermal)             CV                S
                      KCal/Mol        Cal/Mol-Kelvin    Cal/Mol-Kelvin
 Total                  104.279             37.539            103.132
 Electronic               0.000              0.000              0.000
 Translational            0.889              2.981             40.409
 Rotational               0.889              2.981             29.790
 Vibrational            102.502             31.577             32.933
 Vibration     1          0.594              1.981              5.269
 Vibration     2          0.597              1.972              4.366
 Vibration     3          0.599              1.965              3.983
 Vibration     4          0.612              1.922              2.924
 Vibration     5          0.639              1.837              2.112
 Vibration     6          0.644              1.821              2.016
 Vibration     7          0.654              1.788              1.844
 Vibration     8          0.661              1.768              1.753
 Vibration     9          0.690              1.680              1.435
 Vibration    10          0.694              1.671              1.408
 Vibration    11          0.722              1.590              1.199
 Vibration    12          0.760              1.486              0.990
 Vibration    13          0.799              1.386              0.831
 Vibration    14          0.867              1.223              0.628
 Vibration    15          0.931              1.086              0.495

 Optimization completed.
    -- Stationary point found.
 Normal termination of Gaussian 09 at Mon Jan 27 16:02:42 2020.
