 Gaussian 09, Revision D.01,
 Gaussian 09:  ES64L-G09RevD.01 24-Apr-2013

 -----------------------------
 # b3lyp 6-31G(2df,p) opt Freq
 -----------------------------

 -----
 titel
 -----
 Symbolic Z-matrix:
 Charge =  0 Multiplicity = 1

 SCF Done:  E(RB3LYP) =  -423.110817684     A.U. after   14 cycles
 Optimization completed.
    -- Stationary point found.
 Normal termination of Gaussian 09 at Tue Jan 28 09:00:06 2020.

 ----------------------------------------------------------------------
 #N Geom=AllCheck Guess=TCheck SCRF=Check GenChk RB3LYP/6-31G(2df,p) Fr
 eq
 ----------------------------------------------------------------------

 Structure from the checkpoint file:  "/scratch/puck/g09_c197e8f3-fc0b-4565-8610-d2ae93c7384e/Gau-144036.chk"
 -----
 titel
 -----
 Charge =  0 Multiplicity = 1

                         Standard orientation:
 ---------------------------------------------------------------------
 Center     Atomic      Atomic             Coordinates (Angstroms)
 Number     Number       Type             X           Y           Z
 ---------------------------------------------------------------------
      1          6           0       -0.338382    2.126828    0.388188
      2          8           0       -0.893792    0.882783    0.807242
      3          6           0       -0.717533   -0.203951   -0.063094
      4          6           0       -1.948706   -1.027677   -0.291783
      5          6           0       -1.373251   -0.185775   -1.413684
      6          6           0        0.612698   -0.929713    0.152131
      7          8           0        0.805601   -1.166327    1.535885
      8          6           0        1.760979   -0.229357   -0.451025
      9          6           0        2.713239    0.306633   -0.953261
     10          1           0       -0.702504    2.410332   -0.606945
     11          1           0       -0.673139    2.869771    1.115937
     12          1           0        0.755493    2.102682    0.367207
     13          1           0       -1.847980   -2.106227   -0.337909
     14          1           0       -2.857224   -0.670559    0.178366
     15          1           0       -0.866941   -0.678002   -2.237196
     16          1           0       -1.918792    0.708329   -1.693215
     17          1           0        0.540506   -1.915110   -0.324833
     18          1           0        0.466674   -0.377503    1.980969
     19          1           0        3.555173    0.782719   -1.392227
 ---------------------------------------------------------------------

 SCF Done:  E(RB3LYP) =  -423.110817684     A.U. after    1 cycles

 The electronic state is 1-A.
 Alpha  occ. eigenvalues --  -19.15815 -19.13484 -10.25774 -10.24802 -10.22761
 Alpha  occ. eigenvalues --  -10.19490 -10.19067 -10.18244 -10.17727  -1.05272
 Alpha  occ. eigenvalues --   -1.01633  -0.86081  -0.76540  -0.70648  -0.69037
 Alpha  occ. eigenvalues --   -0.61314  -0.57803  -0.54098  -0.52518  -0.50528
 Alpha  occ. eigenvalues --   -0.48606  -0.45397  -0.45339  -0.43373  -0.43024
 Alpha  occ. eigenvalues --   -0.37768  -0.37188  -0.33725  -0.32047  -0.29917
 Alpha  occ. eigenvalues --   -0.28371  -0.27986  -0.26548  -0.25395
 Alpha virt. eigenvalues --    0.03770   0.04487   0.09427   0.09780   0.10743
 Alpha virt. eigenvalues --    0.12306   0.12563   0.13705   0.15142   0.15933
 Alpha virt. eigenvalues --    0.16769   0.17659   0.18675   0.21170   0.22277

 Mulliken charges:
               1
     1  C   -0.258598
     2  O   -0.303829
     3  C    0.401412
     4  C   -0.315428
     5  C   -0.325548
     6  C   -0.117423
     7  O   -0.411409
     8  C    0.334009
     9  C   -0.471807
    10  H    0.114089
    11  H    0.126781
    12  H    0.134628
    13  H    0.120514
    14  H    0.126453
    15  H    0.124196
    16  H    0.122550
    17  H    0.111245
    18  H    0.290113
    19  H    0.198052
 Sum of Mulliken charges =   0.00000

 Dipole moment (field-independent basis, Debye):
    X=             -0.6446    Y=              1.5349    Z=             -1.5298  Tot=              2.2609
 Quadrupole moment (field-independent basis, Debye-Ang):
   XX=            -52.1689   YY=            -50.7192   ZZ=            -53.8421
   XY=              3.1594   XZ=             -1.9533   YZ=              2.3535

  Exact polarizability:  86.841   8.312  74.898  -6.447  -1.201  68.882
 Approx polarizability: 122.341  16.223 108.128 -14.947  -6.824 106.550

                      1                      2                      3
                      A                      A                      A
 Frequencies --     59.1741                89.1767               136.3307
 Red. masses --      3.6814                 1.5534                 3.9754
 Frc consts  --      0.0076                 0.0073                 0.0435
 IR Inten    --      0.4291                 0.6462                 0.7598

                      4                      5                      6
                      A                      A                      A
 Frequencies --    169.5883               211.1654               241.8333
 Red. masses --      1.7064                 3.7979                 3.1681
 Frc consts  --      0.0289                 0.0998                 0.1092
 IR Inten    --      0.8139                 3.1936                 6.5277

                      7                      8                      9
                      A                      A                      A
 Frequencies --    265.7613               318.1375               344.5537
 Red. masses --      2.8019                 2.7595                 4.1582
 Frc consts  --      0.1166                 0.1646                 0.2908
 IR Inten    --      4.0219                 3.0039                 5.7924

                     10                     11                     12
                      A                      A                      A
 Frequencies --    409.4317               434.2550               516.1222
 Red. masses --      2.3774                 1.4734                 4.5357
 Frc consts  --      0.2348                 0.1637                 0.7119
 IR Inten    --      8.6076                73.0806                28.1943

                     13                     14                     15
                      A                      A                      A
 Frequencies --    557.1812               606.8568               628.4339
 Red. masses --      4.6142                 4.6578                 1.2639
 Frc consts  --      0.8440                 1.0107                 0.2941
 IR Inten    --      1.5775                 2.2926                40.0273

                     16                     17                     18
                      A                      A                      A
 Frequencies --    660.9465               766.2332               777.8308
 Red. masses --      1.2470                 1.1376                 3.1891
 Frc consts  --      0.3210                 0.3935                 1.1368
 IR Inten    --     35.3820                 3.0054                25.8174

                     19                     20                     21
                      A                      A                      A
 Frequencies --    868.9153               915.2705               952.9134
 Red. masses --      2.2096                 1.3510                 3.0334
 Frc consts  --      0.9829                 0.6668                 1.6229
 IR Inten    --      0.7854                 6.1686                 0.7772

                     22                     23                     24
                      A                      A                      A
 Frequencies --    995.4853              1014.8955              1055.7932
 Red. masses --      2.9899                 4.0709                 1.4878
 Frc consts  --      1.7457                 2.4705                 0.9771
 IR Inten    --     23.1191                18.3231                 8.2181

                     25                     26                     27
                      A                      A                      A
 Frequencies --   1072.9484              1078.6431              1092.5036
 Red. masses --      4.4819                 1.6106                 3.7906
 Frc consts  --      3.0400                 1.1040                 2.6657
 IR Inten    --    122.6230                14.5739                65.1652

                     28                     29                     30
                      A                      A                      A
 Frequencies --   1183.5417              1187.3961              1218.7088
 Red. masses --      1.2689                 1.2795                 1.4968
 Frc consts  --      1.0472                 1.0628                 1.3098
 IR Inten    --      0.9306                 0.6961                 7.1455

                     31                     32                     33
                      A                      A                      A
 Frequencies --   1232.2132              1287.9347              1309.5916
 Red. masses --      1.5204                 2.6586                 1.5837
 Frc consts  --      1.3601                 2.5983                 1.6002
 IR Inten    --     21.0166                44.1029                46.9405

                     34                     35                     36
                      A                      A                      A
 Frequencies --   1360.4375              1429.7732              1456.2761
 Red. masses --      1.6063                 1.2377                 1.0918
 Frc consts  --      1.7516                 1.4907                 1.3642
 IR Inten    --     13.2668                69.2813                 2.6987

                     37                     38                     39
                      A                      A                      A
 Frequencies --   1476.2495              1489.2031              1498.0069
 Red. masses --      1.1121                 1.0766                 1.4571
 Frc consts  --      1.4279                 1.4067                 1.9265
 IR Inten    --      9.2782                 0.6171                 6.5068

                     40                     41                     42
                      A                      A                      A
 Frequencies --   1512.5509              2225.6842              3021.1508
 Red. masses --      1.0547                 5.9013                 1.0337
 Frc consts  --      1.4216                17.2236                 5.5587
 IR Inten    --      8.5150                 1.3636                41.0146

                     43                     44                     45
                      A                      A                      A
 Frequencies --   3032.8877              3091.9442              3125.1321
 Red. masses --      1.0833                 1.1003                 1.1041
 Frc consts  --      5.8708                 6.1978                 6.3532
 IR Inten    --     14.9328                28.3965                22.3006

                     46                     47                     48
                      A                      A                      A
 Frequencies --   3136.2619              3141.4048              3219.0542
 Red. masses --      1.0527                 1.0568                 1.1178
 Frc consts  --      6.1009                 6.1447                 6.8248
 IR Inten    --      8.9376                 7.0503                 1.2257

                     49                     50                     51
                      A                      A                      A
 Frequencies --   3235.3011              3500.5376              3756.0875
 Red. masses --      1.1160                 1.1620                 1.0652
 Frc consts  --      6.8827                 8.3890                 8.8542
 IR Inten    --      8.3639                60.4577                47.6353

 - Thermochemistry -
 -------------------
 Temperature   298.150 Kelvin.  Pressure   1.00000 Atm.
 Atom     1 has atomic number  6 and mass  12.00000

 Molecular mass:   126.06808 amu.
 Principal axes and moments of inertia in atomic units:
                           1         2         3
     Eigenvalues --   883.336281300.809481439.21932
           X            0.99926   0.03742   0.00884
           Y           -0.03785   0.99775   0.05533
           Z           -0.00675  -0.05563   0.99843
 This molecule is an asymmetric top.
 Rotational symmetry number  1.
 Warning -- assumption of classical behavior for rotation
           may cause significant error
 Rotational temperatures (Kelvin)      0.09805     0.06658     0.06018
 Rotational constants (GHZ):           2.04310     1.38740     1.25397
 Zero-point vibrational energy     408929.7 (Joules/Mol)
                                   97.73655 (Kcal/Mol)
 Warning -- explicit consideration of  14 degrees of freedom as
           vibrations may cause significant error
 Vibrational temperatures:     85.14   128.31   196.15   244.00   303.82
          (Kelvin)            347.94   382.37   457.73   495.74   589.08
                              624.80   742.58   801.66   873.13   904.18
                              950.95  1102.44  1119.12  1250.17  1316.87
                             1371.03  1432.28  1460.21  1519.05  1543.73
                             1551.92  1571.87  1702.85  1708.40  1753.45
                             1772.88  1853.05  1884.21  1957.36  2057.12
                             2095.25  2123.99  2142.63  2155.30  2176.22
                             3202.26  4346.76  4363.64  4448.61  4496.36
                             4512.38  4519.78  4631.50  4654.87  5036.49
                             5404.17

 Zero-point correction=                           0.155753 (Hartree/Particle)
 Thermal correction to Energy=                    0.165754
 Thermal correction to Enthalpy=                  0.166698
 Thermal correction to Gibbs Free Energy=         0.120858
 Sum of electronic and zero-point Energies=           -422.955065
 Sum of electronic and thermal Energies=              -422.945064
 Sum of electronic and thermal Enthalpies=            -422.944120
 Sum of electronic and thermal Free Energies=         -422.989960

                     E (Thermal)             CV                S
                      KCal/Mol        Cal/Mol-Kelvin    Cal/Mol-Kelvin
 Total                  104.012             36.853             96.478
 Electronic               0.000              0.000              0.000
 Translational            0.889              2.981             40.409
 Rotational               0.889              2.981             28.893
 Vibrational            102.235             30.892             27.176
 Vibration     1          0.597              1.974              4.485
 Vibration     2          0.602              1.957              3.678
 Vibration     3          0.614              1.917              2.855
 Vibration     4          0.625              1.880              2.440
 Vibration     5          0.643              1.824              2.034
 Vibration     6          0.658              1.776              1.789
 Vibration     7          0.672              1.736              1.624
 Vibration     8          0.705              1.639              1.320
 Vibration     9          0.723              1.586              1.191
 Vibration    10          0.774              1.450              0.929
 Vibration    11          0.795              1.396              0.845
 Vibration    12          0.871              1.214              0.619
 Vibration    13          0.913              1.124              0.529
 Vibration    14          0.966              1.017              0.438

 Optimization completed.
    -- Stationary point found.
 Normal termination of Gaussian 09 at Tue Jan 28 09:43:57 2020.
