 Gaussian 09, Revision D.01,
 Gaussian 09:  ES64L-G09RevD.01 24-Apr-2013

 -----------------------------
 # b3lyp 6-31G(2df,p) opt Freq
 -----------------------------

 -----
 titel
 -----
 Symbolic Z-matrix:
 Charge =  0 Multiplicity = 1

 SCF Done:  E(RB3LYP) =  -423.159705004     A.U. after   14 cycles
 SCF Done:  E(RB3LYP) =  -423.159704939     A.U. after    7 cycles
 SCF Done:  E(RB3LYP) =  -423.159705140     A.U. after    8 cycles
 SCF Done:  E(RB3LYP) =  -423.159705090     A.U. after    7 cycles
 SCF Done:  E(RB3LYP) =  -423.159704975     A.U. after    7 cycles
 SCF Done:  E(RB3LYP) =  -423.159704392     A.U. after    9 cycles
 SCF Done:  E(RB3LYP) =  -423.159704494     A.U. after    7 cycles
 SCF Done:  E(RB3LYP) =  -423.159704205     A.U. after    9 cycles
 SCF Done:  E(RB3LYP) =  -423.159703862     A.U. after    9 cycles
 SCF Done:  E(RB3LYP) =  -423.159703446     A.U. after   10 cycles
 SCF Done:  E(RB3LYP) =  -423.159704682     A.U. after    9 cycles
 SCF Done:  E(RB3LYP) =  -423.159704728     A.U. after    7 cycles
 SCF Done:  E(RB3LYP) =  -423.159702261     A.U. after   10 cycles
 SCF Done:  E(RB3LYP) =  -423.159704548     A.U. after   10 cycles
 SCF Done:  E(RB3LYP) =  -423.159704409     A.U. after    9 cycles
 SCF Done:  E(RB3LYP) =  -423.159704758     A.U. after   10 cycles
 SCF Done:  E(RB3LYP) =  -423.159703977     A.U. after    9 cycles
 SCF Done:  E(RB3LYP) =  -423.159703357     A.U. after    9 cycles
 SCF Done:  E(RB3LYP) =  -423.159702852     A.U. after    9 cycles
 Optimization completed on the basis of negligible forces.
    -- Stationary point found.
 Normal termination of Gaussian 09 at Mon Jan 27 15:26:19 2020.

 ----------------------------------------------------------------------
 #N Geom=AllCheck Guess=TCheck SCRF=Check GenChk RB3LYP/6-31G(2df,p) Fr
 eq
 ----------------------------------------------------------------------

 Structure from the checkpoint file:  "/scratch/puck/g09_4e8844aa-fbf0-449b-87db-186233b63f2a/Gau-40330.chk"
 -----
 titel
 -----
 Charge =  0 Multiplicity = 1

                         Standard orientation:
 ---------------------------------------------------------------------
 Center     Atomic      Atomic             Coordinates (Angstroms)
 Number     Number       Type             X           Y           Z
 ---------------------------------------------------------------------
      1          6           0        3.837928   -0.059960    0.316101
      2          6           0        2.431150   -0.113901   -0.053851
      3          6           0        1.269235   -0.149683   -0.369050
      4          6           0       -0.147830   -0.204115   -0.735081
      5          8           0       -0.688581    1.105382   -0.931305
      6          6           0       -1.605509    1.425627    0.120689
      7          6           0       -1.405031    0.359785    1.202993
      8          6           0       -1.018459   -0.860546    0.370012
      9          8           0       -2.216160   -1.406067   -0.159070
     10          1           0        4.484427   -0.268331   -0.543430
     11          1           0        4.106650    0.930032    0.700683
     12          1           0        4.073943   -0.793116    1.095311
     13          1           0       -0.262598   -0.759166   -1.676863
     14          1           0       -1.392476    2.440343    0.472161
     15          1           0       -2.630264    1.398272   -0.270808
     16          1           0       -0.577611    0.625803    1.866393
     17          1           0       -2.299298    0.173571    1.800196
     18          1           0       -0.450075   -1.609293    0.934530
     19          1           0       -1.983669   -2.115875   -0.766046
 ---------------------------------------------------------------------

 SCF Done:  E(RB3LYP) =  -423.159702852     A.U. after    1 cycles

 The electronic state is 1-A.
 Alpha  occ. eigenvalues --  -19.14214 -19.13089 -10.24725 -10.23797 -10.22071
 Alpha  occ. eigenvalues --  -10.20518 -10.18272 -10.17715 -10.16643  -1.03849
 Alpha  occ. eigenvalues --   -1.01354  -0.78565  -0.77225  -0.75017  -0.68402
 Alpha  occ. eigenvalues --   -0.60810  -0.59088  -0.53048  -0.50657  -0.48782
 Alpha  occ. eigenvalues --   -0.45499  -0.43981  -0.43645  -0.42754  -0.42619
 Alpha  occ. eigenvalues --   -0.38799  -0.37257  -0.36091  -0.34155  -0.31813
 Alpha  occ. eigenvalues --   -0.28106  -0.25976  -0.24861  -0.24283
 Alpha virt. eigenvalues --    0.04580   0.05239   0.07529   0.10857   0.11780
 Alpha virt. eigenvalues --    0.12552   0.14475   0.15010   0.16432   0.17155
 Alpha virt. eigenvalues --    0.17773   0.18211   0.20040   0.21033   0.21943

 Mulliken charges:
               1
     1  C   -0.498697
     2  C    0.047951
     3  C    0.111130
     4  C   -0.118798
     5  O   -0.259414
     6  C   -0.059974
     7  C   -0.238028
     8  C    0.109795
     9  O   -0.440186
    10  H    0.150319
    11  H    0.152138
    12  H    0.147731
    13  H    0.090478
    14  H    0.103210
    15  H    0.107773
    16  H    0.116570
    17  H    0.114705
    18  H    0.079369
    19  H    0.283930
 Sum of Mulliken charges =   0.00000

 Dipole moment (field-independent basis, Debye):
    X=              1.2803    Y=             -1.3343    Z=              1.0276  Tot=              2.1155
 Quadrupole moment (field-independent basis, Debye-Ang):
   XX=            -48.8424   YY=            -50.5463   ZZ=            -52.6578
   XY=             -0.5745   XZ=              1.2118   YZ=              4.4668

  Exact polarizability: 109.181  -1.589  67.528   4.559   3.342  63.817
 Approx polarizability: 149.813  -0.312  95.525  12.021   3.746  95.581
