 Gaussian 09, Revision D.01,
 Gaussian 09:  ES64L-G09RevD.01 24-Apr-2013

 -----------------------------
 # b3lyp 6-31G(2df,p) opt Freq
 -----------------------------

 -----
 titel
 -----
 Symbolic Z-matrix:
 Charge =  0 Multiplicity = 1

 SCF Done:  E(RB3LYP) =  -423.161633650     A.U. after   13 cycles
 Optimization completed.
    -- Stationary point found.
 Normal termination of Gaussian 09 at Mon Jan 27 11:28:10 2020.

 ----------------------------------------------------------------------
 #N Geom=AllCheck Guess=TCheck SCRF=Check GenChk RB3LYP/6-31G(2df,p) Fr
 eq
 ----------------------------------------------------------------------

 Structure from the checkpoint file:  "/scratch/puck/g09_08637761-9bed-4fde-9619-a065e251760d/Gau-60768.chk"
 -----
 titel
 -----
 Charge =  0 Multiplicity = 1

                         Standard orientation:
 ---------------------------------------------------------------------
 Center     Atomic      Atomic             Coordinates (Angstroms)
 Number     Number       Type             X           Y           Z
 ---------------------------------------------------------------------
      1          6           0       -2.281022    0.219234   -0.049761
      2          8           0       -1.707096   -1.024481   -0.511344
      3          6           0       -0.569637   -0.850497    0.364904
      4          6           0        0.747208   -1.137574   -0.305290
      5          8           0        1.877558   -1.053617    0.564809
      6          6           0        1.742107   -0.060676   -0.462011
      7          6           0        1.398763    1.353327   -0.017580
      8          6           0       -0.107019    1.626897   -0.179080
      9          6           0       -0.952903    0.632512    0.618774
     10          1           0       -2.636487    0.840873   -0.879667
     11          1           0       -3.108565    0.045160    0.651065
     12          1           0       -0.665703   -1.481923    1.260209
     13          1           0        0.743405   -1.984658   -0.992258
     14          1           0        2.481225   -0.158527   -1.256771
     15          1           0        1.703140    1.475918    1.027965
     16          1           0        1.973961    2.075583   -0.605054
     17          1           0       -0.347337    2.652845    0.119677
     18          1           0       -0.358628    1.541357   -1.243654
     19          1           0       -1.013688    0.918808    1.671032
 ---------------------------------------------------------------------

 SCF Done:  E(RB3LYP) =  -423.161633651     A.U. after    1 cycles

 The electronic state is 1-A.
 Alpha  occ. eigenvalues --  -19.14897 -19.13484 -10.23724 -10.23514 -10.23336
 Alpha  occ. eigenvalues --  -10.23161 -10.19589 -10.19132 -10.19067  -1.07072
 Alpha  occ. eigenvalues --   -1.03901  -0.80884  -0.73701  -0.72510  -0.65948
 Alpha  occ. eigenvalues --   -0.62392  -0.59384  -0.52171  -0.52157  -0.49801
 Alpha  occ. eigenvalues --   -0.48178  -0.45015  -0.43420  -0.42302  -0.40335
 Alpha  occ. eigenvalues --   -0.39658  -0.37816  -0.36540  -0.33690  -0.31230
 Alpha  occ. eigenvalues --   -0.30414  -0.29438  -0.26772  -0.24775
 Alpha virt. eigenvalues --    0.07295   0.08530   0.09199   0.10889   0.11622
 Alpha virt. eigenvalues --    0.12990   0.13290   0.15026   0.16146   0.17066
 Alpha virt. eigenvalues --    0.17757   0.18188   0.19651   0.20382   0.21569

 Mulliken charges:
               1
     1  C   -0.090292
     2  O   -0.298496
     3  C    0.119484
     4  C    0.004158
     5  O   -0.258509
     6  C    0.055046
     7  C   -0.240904
     8  C   -0.221126
     9  C   -0.055285
    10  H    0.104321
    11  H    0.098195
    12  H    0.083449
    13  H    0.100689
    14  H    0.094318
    15  H    0.117928
    16  H    0.102277
    17  H    0.099465
    18  H    0.106957
    19  H    0.078325
 Sum of Mulliken charges =   0.00000

 Dipole moment (field-independent basis, Debye):
    X=             -0.3669    Y=              2.1852    Z=             -0.2027  Tot=              2.2250
 Quadrupole moment (field-independent basis, Debye-Ang):
   XX=            -55.0935   YY=            -53.3868   ZZ=            -52.8518
   XY=             -0.2209   XZ=             -4.7767   YZ=              0.1645

  Exact polarizability:  82.654   0.901  74.585  -2.662  -0.799  63.504
 Approx polarizability: 110.228   1.632 107.551   1.474  -1.729 102.129

                      1                      2                      3
                      A                      A                      A
 Frequencies --     85.7172               186.4281               224.9638
 Red. masses --      3.3539                 2.2627                 4.3620
 Frc consts  --      0.0145                 0.0463                 0.1301
 IR Inten    --      2.9542                 0.5375                 9.2399

                      4                      5                      6
                      A                      A                      A
 Frequencies --    339.0463               385.7922               433.7854
 Red. masses --      2.2852                 2.7345                 5.8471
 Frc consts  --      0.1548                 0.2398                 0.6482
 IR Inten    --      0.2448                 3.1753                 0.4231

                      7                      8                      9
                      A                      A                      A
 Frequencies --    452.0920               499.7942               702.5033
 Red. masses --      4.0527                 3.5925                 2.2064
 Frc consts  --      0.4880                 0.5287                 0.6415
 IR Inten    --      1.3582                 3.5080                 4.6632

                     10                     11                     12
                      A                      A                      A
 Frequencies --    773.8735               787.8373               811.6080
 Red. masses --      2.7081                 3.4588                 3.3483
 Frc consts  --      0.9556                 1.2649                 1.2995
 IR Inten    --      2.1468                 7.7311                 3.5795

                     13                     14                     15
                      A                      A                      A
 Frequencies --    837.8036               871.6107               932.2126
 Red. masses --      2.6673                 2.1861                 2.6714
 Frc consts  --      1.1031                 0.9785                 1.3678
 IR Inten    --     20.6566                 9.7416                13.0891

                     16                     17                     18
                      A                      A                      A
 Frequencies --    965.9703               990.2513              1010.3717
 Red. masses --      2.2080                 2.8552                 3.0023
 Frc consts  --      1.2139                 1.6496                 1.8058
 IR Inten    --      3.5150                13.0120                42.4295

                     19                     20                     21
                      A                      A                      A
 Frequencies --   1022.3362              1028.7233              1052.7345
 Red. masses --      3.4472                 2.7710                 1.5341
 Frc consts  --      2.1228                 1.7278                 1.0017
 IR Inten    --      2.9557                56.8325                 3.6044

                     22                     23                     24
                      A                      A                      A
 Frequencies --   1080.3789              1090.0691              1144.6394
 Red. masses --      1.6766                 1.8044                 1.7952
 Frc consts  --      1.1530                 1.2632                 1.3858
 IR Inten    --     13.9537                 4.0085                 5.9753

                     25                     26                     27
                      A                      A                      A
 Frequencies --   1162.8367              1169.9346              1205.4571
 Red. masses --      1.4664                 1.2158                 1.5094
 Frc consts  --      1.1683                 0.9805                 1.2923
 IR Inten    --      1.5290                 0.0882                 0.5113

                     28                     29                     30
                      A                      A                      A
 Frequencies --   1234.0789              1261.8291              1267.9162
 Red. masses --      1.4250                 1.4846                 1.2953
 Frc consts  --      1.2787                 1.3927                 1.2269
 IR Inten    --      0.6340                 4.0423                 3.6345

                     31                     32                     33
                      A                      A                      A
 Frequencies --   1287.4593              1339.1544              1345.2765
 Red. masses --      1.2965                 1.2714                 1.3061
 Frc consts  --      1.2661                 1.3434                 1.3926
 IR Inten    --      2.1381                 0.6327                 7.0727

                     34                     35                     36
                      A                      A                      A
 Frequencies --   1358.2834              1375.6496              1390.6845
 Red. masses --      1.5259                 1.4823                 1.5545
 Frc consts  --      1.6587                 1.6527                 1.7713
 IR Inten    --      0.4435                 1.6673                 2.1479

                     37                     38                     39
                      A                      A                      A
 Frequencies --   1396.7593              1458.5289              1482.1359
 Red. masses --      1.4974                 2.9025                 1.1180
 Frc consts  --      1.7212                 3.6379                 1.4470
 IR Inten    --      3.4631                 8.9595                 5.0645

                     40                     41                     42
                      A                      A                      A
 Frequencies --   1492.5874              1523.5596              2994.9790
 Red. masses --      1.1231                 1.1069                 1.0815
 Frc consts  --      1.4742                 1.5138                 5.7156
 IR Inten    --      4.9021                 0.5218                54.0843

                     43                     44                     45
                      A                      A                      A
 Frequencies --   3008.1605              3027.5817              3043.1063
 Red. masses --      1.0613                 1.0627                 1.0619
 Frc consts  --      5.6582                 5.7390                 5.7936
 IR Inten    --     73.4024                19.7474                16.7554

                     46                     47                     48
                      A                      A                      A
 Frequencies --   3059.7133              3067.9214              3085.2618
 Red. masses --      1.1054                 1.0950                 1.0988
 Frc consts  --      6.0974                 6.0726                 6.1623
 IR Inten    --     30.3744                23.7497                 9.9114

                     49                     50                     51
                      A                      A                      A
 Frequencies --   3090.8222              3104.6502              3117.4412
 Red. masses --      1.0950                 1.0860                 1.0925
 Frc consts  --      6.1631                 6.1676                 6.2554
 IR Inten    --     57.0761                21.1231                46.9524

 - Thermochemistry -
 -------------------
 Temperature   298.150 Kelvin.  Pressure   1.00000 Atm.
 Atom     1 has atomic number  6 and mass  12.00000

 Molecular mass:   126.06808 amu.
 Principal axes and moments of inertia in atomic units:
                           1         2         3
     Eigenvalues --   614.640861106.425601501.92086
           X            0.99977   0.00646  -0.02046
           Y           -0.00650   0.99998  -0.00217
           Z            0.02044   0.00230   0.99979
 This molecule is an asymmetric top.
 Rotational symmetry number  1.
 Warning -- assumption of classical behavior for rotation
           may cause significant error
 Rotational temperatures (Kelvin)      0.14092     0.07828     0.05767
 Rotational constants (GHZ):           2.93625     1.63115     1.20162
 Zero-point vibrational energy     425047.0 (Joules/Mol)
                                  101.58867 (Kcal/Mol)
 Warning -- explicit consideration of   8 degrees of freedom as
           vibrations may cause significant error
 Vibrational temperatures:    123.33   268.23   323.67   487.81   555.07
          (Kelvin)            624.12   650.46   719.09  1010.74  1113.43
                             1133.52  1167.72  1205.41  1254.05  1341.24
                             1389.81  1424.75  1453.70  1470.91  1480.10
                             1514.65  1554.42  1568.36  1646.88  1673.06
                             1683.27  1734.38  1775.56  1815.49  1824.25
                             1852.36  1926.74  1935.55  1954.26  1979.25
                             2000.88  2009.62  2098.50  2132.46  2147.50
                             2192.06  4309.10  4328.07  4356.01  4378.35
                             4402.24  4414.05  4439.00  4447.00  4466.89
                             4485.30

 Zero-point correction=                           0.161892 (Hartree/Particle)
 Thermal correction to Energy=                    0.169049
 Thermal correction to Enthalpy=                  0.169993
 Thermal correction to Gibbs Free Energy=         0.130151
 Sum of electronic and zero-point Energies=           -422.999742
 Sum of electronic and thermal Energies=              -422.992585
 Sum of electronic and thermal Enthalpies=            -422.991640
 Sum of electronic and thermal Free Energies=         -423.031482

                     E (Thermal)             CV                S
                      KCal/Mol        Cal/Mol-Kelvin    Cal/Mol-Kelvin
 Total                  106.080             28.468             83.854
 Electronic               0.000              0.000              0.000
 Translational            0.889              2.981             40.409
 Rotational               0.889              2.981             28.415
 Vibrational            104.302             22.506             15.031
 Vibration     1          0.601              1.959              3.756
 Vibration     2          0.632              1.858              2.263
 Vibration     3          0.650              1.803              1.919
 Vibration     4          0.719              1.597              1.217
 Vibration     5          0.754              1.501              1.016
 Vibration     6          0.795              1.397              0.846
 Vibration     7          0.811              1.356              0.789
 Vibration     8          0.855              1.250              0.659

 Normal termination of Gaussian 09 at Mon Jan 27 13:49:00 2020.
