 Gaussian 09, Revision D.01,
 Gaussian 09:  ES64L-G09RevD.01 24-Apr-2013

 -----------------------------
 # b3lyp 6-31G(2df,p) opt Freq
 -----------------------------

 -----
 titel
 -----
 Symbolic Z-matrix:
 Charge =  0 Multiplicity = 1

 SCF Done:  E(RB3LYP) =  -423.192808195     A.U. after   12 cycles
 Optimization completed.
    -- Stationary point found.
 Normal termination of Gaussian 09 at Mon Jan 27 22:06:34 2020.

 ----------------------------------------------------------------------
 #N Geom=AllCheck Guess=TCheck SCRF=Check GenChk RB3LYP/6-31G(2df,p) Fr
 eq
 ----------------------------------------------------------------------

 Structure from the checkpoint file:  "/scratch/puck/g09_6168e82b-f169-478e-8038-90bd8ce6c2d0/Gau-116809.chk"
 -----
 titel
 -----
 Charge =  0 Multiplicity = 1

                         Standard orientation:
 ---------------------------------------------------------------------
 Center     Atomic      Atomic             Coordinates (Angstroms)
 Number     Number       Type             X           Y           Z
 ---------------------------------------------------------------------
      1          6           0       -1.979192   -1.062099    0.062784
      2          6           0       -0.568468   -0.546533   -0.031808
      3          6           0        0.523742   -1.410329   -0.697787
      4          6           0        1.688368   -0.487523   -0.359967
      5          6           0        1.267428    0.182707    0.923461
      6          8           0       -0.017108   -0.297838    1.287833
      7          6           0        1.144906    0.942346   -0.376868
      8          6           0       -0.342830    0.845449   -0.699540
      9          8           0       -1.128041    1.868680   -0.132922
     10          1           0       -2.636676   -0.294974    0.480101
     11          1           0       -2.352130   -1.326161   -0.931270
     12          1           0       -2.025140   -1.950838    0.698244
     13          1           0        0.610478   -2.396472   -0.231733
     14          1           0        0.353925   -1.532394   -1.771524
     15          1           0        2.720360   -0.719258   -0.586437
     16          1           0        1.911965    0.433752    1.753483
     17          1           0        1.743756    1.807956   -0.624390
     18          1           0       -0.563403    0.831361   -1.770124
     19          1           0       -1.005668    1.796172    0.822711
 ---------------------------------------------------------------------

 SCF Done:  E(RB3LYP) =  -423.192808195     A.U. after    1 cycles

 The electronic state is 1-A.
 Alpha  occ. eigenvalues --  -19.14624 -19.13261 -10.23522 -10.23376 -10.22980
 Alpha  occ. eigenvalues --  -10.19420 -10.18703 -10.18666 -10.17710  -1.06118
 Alpha  occ. eigenvalues --   -1.01092  -0.85817  -0.78286  -0.70626  -0.68854
 Alpha  occ. eigenvalues --   -0.59305  -0.56586  -0.56012  -0.51899  -0.49820
 Alpha  occ. eigenvalues --   -0.46643  -0.44307  -0.42468  -0.41113  -0.40208
 Alpha  occ. eigenvalues --   -0.37764  -0.37625  -0.36320  -0.35101  -0.33455
 Alpha  occ. eigenvalues --   -0.30857  -0.28542  -0.26345  -0.23476
 Alpha virt. eigenvalues --    0.08253   0.10163   0.11473   0.12404   0.13596
 Alpha virt. eigenvalues --    0.15013   0.15391   0.15800   0.16075   0.16791
 Alpha virt. eigenvalues --    0.17540   0.19359   0.20398   0.21529   0.22353

 Mulliken charges:
               1
     1  C   -0.487260
     2  C    0.317308
     3  C   -0.263157
     4  C   -0.116734
     5  C    0.074927
     6  O   -0.305615
     7  C   -0.158580
     8  C    0.142760
     9  O   -0.451307
    10  H    0.131424
    11  H    0.120282
    12  H    0.126075
    13  H    0.105322
    14  H    0.103010
    15  H    0.092009
    16  H    0.104443
    17  H    0.093563
    18  H    0.086265
    19  H    0.285266
 Sum of Mulliken charges =   0.00000

 Dipole moment (field-independent basis, Debye):
    X=              1.2901    Y=             -0.9353    Z=             -0.4528  Tot=              1.6566
 Quadrupole moment (field-independent basis, Debye-Ang):
   XX=            -51.1664   YY=            -55.0134   ZZ=            -52.7225
   XY=              3.0675   XZ=              0.2071   YZ=              3.0760

  Exact polarizability:  78.189   1.426  73.107   0.669   1.839  66.459
 Approx polarizability: 106.920  -1.592 107.666   0.165   1.335 108.659

                      1                      2                      3
                      A                      A                      A
 Frequencies --    186.8168               204.3214               242.4393
 Red. masses --      1.6788                 1.6245                 3.2126
 Frc consts  --      0.0345                 0.0400                 0.1113
 IR Inten    --      3.6770                 3.9090                 1.1794

                      4                      5                      6
                      A                      A                      A
 Frequencies --    315.2285               357.1572               421.1443
 Red. masses --      2.5101                 2.5252                 1.9033
 Frc consts  --      0.1470                 0.1898                 0.1989
 IR Inten    --      1.4257                11.0613                 3.0228

                      7                      8                      9
                      A                      A                      A
 Frequencies --    454.8313               525.2114               609.0821
 Red. masses --      1.3553                 3.9264                 4.5862
 Frc consts  --      0.1652                 0.6381                 1.0024
 IR Inten    --     72.5657                 1.4170                 7.3127

                     10                     11                     12
                      A                      A                      A
 Frequencies --    630.8327               708.3224               741.1330
 Red. masses --      4.2763                 4.9062                 4.3247
 Frc consts  --      1.0026                 1.4503                 1.3996
 IR Inten    --      1.4983                 1.4318                 4.8032

                     13                     14                     15
                      A                      A                      A
 Frequencies --    804.9601               814.7050               820.1242
 Red. masses --      1.8203                 3.0704                 1.6251
 Frc consts  --      0.6949                 1.2007                 0.6440
 IR Inten    --     26.5343                13.2564                19.6432

                     16                     17                     18
                      A                      A                      A
 Frequencies --    849.9394               895.1486               953.9027
 Red. masses --      2.5211                 1.9582                 2.3056
 Frc consts  --      1.0730                 0.9245                 1.2361
 IR Inten    --      9.2644                 4.5417                 6.0005

                     19                     20                     21
                      A                      A                      A
 Frequencies --    966.3586               999.4372              1007.5159
 Red. masses --      2.3524                 1.5257                 2.4172
 Frc consts  --      1.2943                 0.8979                 1.4457
 IR Inten    --      6.4500                 3.9570                10.2761

                     22                     23                     24
                      A                      A                      A
 Frequencies --   1022.5938              1042.2829              1061.0641
 Red. masses --      1.8349                 1.4991                 1.3365
 Frc consts  --      1.1305                 0.9595                 0.8865
 IR Inten    --     26.5780                 6.4801                 2.8458

                     25                     26                     27
                      A                      A                      A
 Frequencies --   1081.9535              1113.8438              1123.6240
 Red. masses --      2.0052                 2.8049                 2.4655
 Frc consts  --      1.3830                 2.0503                 1.8340
 IR Inten    --     22.5832               108.6001                33.5409

                     28                     29                     30
                      A                      A                      A
 Frequencies --   1148.4997              1203.7788              1217.8081
 Red. masses --      1.6361                 1.8293                 1.6955
 Frc consts  --      1.2715                 1.5618                 1.4815
 IR Inten    --      4.7803                 3.3850                 7.7893

                     31                     32                     33
                      A                      A                      A
 Frequencies --   1251.3838              1278.2501              1291.4092
 Red. masses --      1.6335                 1.4501                 1.7699
 Frc consts  --      1.5071                 1.3960                 1.7391
 IR Inten    --      1.5770                17.6697                 2.2096

                     34                     35                     36
                      A                      A                      A
 Frequencies --   1308.6733              1348.7428              1381.6531
 Red. masses --      1.7576                 2.5112                 2.3220
 Frc consts  --      1.7735                 2.6915                 2.6116
 IR Inten    --      1.8659                 7.9157                 5.3260

                     37                     38                     39
                      A                      A                      A
 Frequencies --   1419.9062              1436.5162              1483.4480
 Red. masses --      1.5806                 1.2738                 1.0598
 Frc consts  --      1.8776                 1.5487                 1.3742
 IR Inten    --     14.7208                70.4161                 2.2260

                     40                     41                     42
                      A                      A                      A
 Frequencies --   1489.7003              1495.1319              3046.2670
 Red. masses --      1.1076                 1.0527                 1.0362
 Frc consts  --      1.4482                 1.3865                 5.6656
 IR Inten    --      8.4409                 4.3354                12.9266

                     43                     44                     45
                      A                      A                      A
 Frequencies --   3053.2597              3084.5127              3102.7196
 Red. masses --      1.0569                 1.0867                 1.1066
 Frc consts  --      5.8049                 6.0915                 6.2767
 IR Inten    --     30.9548                21.1765                19.3934

                     46                     47                     48
                      A                      A                      A
 Frequencies --   3118.5092              3124.9004              3203.7560
 Red. masses --      1.1011                 1.1018                 1.0912
 Frc consts  --      6.3091                 6.3392                 6.5992
 IR Inten    --     19.4335                11.8647                 8.6502

                     49                     50                     51
                      A                      A                      A
 Frequencies --   3211.9020              3227.5613              3772.0198
 Red. masses --      1.0918                 1.0976                 1.0649
 Frc consts  --      6.6363                 6.7368                 8.9270
 IR Inten    --      6.6015                14.5301                20.4161

 - Thermochemistry -
 -------------------
 Temperature   298.150 Kelvin.  Pressure   1.00000 Atm.
 Atom     1 has atomic number  6 and mass  12.00000

 Molecular mass:   126.06808 amu.
 Principal axes and moments of inertia in atomic units:
                           1         2         3
     Eigenvalues --   736.13037 868.419121144.51233
           X            0.98831   0.15248  -0.00154
           Y           -0.15230   0.98755   0.03945
           Z            0.00753  -0.03875   0.99922
 This molecule is an asymmetric top.
 Rotational symmetry number  1.
 Warning -- assumption of classical behavior for rotation
           may cause significant error
 Rotational temperatures (Kelvin)      0.11766     0.09974     0.07568
 Rotational constants (GHZ):           2.45166     2.07819     1.57686
 Zero-point vibrational energy     422606.5 (Joules/Mol)
                                  101.00537 (Kcal/Mol)
 Warning -- explicit consideration of   9 degrees of freedom as
           vibrations may cause significant error
 Vibrational temperatures:    268.79   293.97   348.82   453.54   513.87
          (Kelvin)            605.93   654.40   755.66   876.33   907.63
                             1019.12  1066.32  1158.16  1172.18  1179.97
                             1222.87  1287.92  1372.45  1390.37  1437.97
                             1449.59  1471.28  1499.61  1526.63  1556.69
                             1602.57  1616.64  1652.43  1731.97  1752.15
                             1800.46  1839.11  1858.05  1882.89  1940.54
                             1987.89  2042.93  2066.82  2134.35  2143.34
                             2151.16  4382.89  4392.95  4437.92  4464.12
                             4486.83  4496.03  4609.48  4621.20  4643.74
                             5427.09

 Zero-point correction=                           0.160962 (Hartree/Particle)
 Thermal correction to Energy=                    0.168260
 Thermal correction to Enthalpy=                  0.169204
 Thermal correction to Gibbs Free Energy=         0.129843
 Sum of electronic and zero-point Energies=           -423.031846
 Sum of electronic and thermal Energies=              -423.024548
 Sum of electronic and thermal Enthalpies=            -423.023604
 Sum of electronic and thermal Free Energies=         -423.062966

                     E (Thermal)             CV                S
                      KCal/Mol        Cal/Mol-Kelvin    Cal/Mol-Kelvin
 Total                  105.585             30.464             82.844
 Electronic               0.000              0.000              0.000
 Translational            0.889              2.981             40.409
 Rotational               0.889              2.981             28.083
 Vibrational            103.807             24.502             14.352
 Vibration     1          0.632              1.858              2.259
 Vibration     2          0.640              1.834              2.094
 Vibration     3          0.659              1.775              1.785
 Vibration     4          0.703              1.645              1.335
 Vibration     5          0.732              1.561              1.134
 Vibration     6          0.784              1.424              0.888
 Vibration     7          0.813              1.350              0.781
 Vibration     8          0.880              1.194              0.598
 Vibration     9          0.968              1.013              0.434

 Optimization completed.
    -- Stationary point found.
 Normal termination of Gaussian 09 at Mon Jan 27 23:05:06 2020.
