 Gaussian 09, Revision D.01,
 Gaussian 09:  ES64L-G09RevD.01 24-Apr-2013

 -----------------------------
 # b3lyp 6-31G(2df,p) opt Freq
 -----------------------------

 -----
 titel
 -----
 Symbolic Z-matrix:
 Charge =  0 Multiplicity = 1

 SCF Done:  E(RB3LYP) =  -423.093658123     A.U. after   14 cycles
 Optimization completed.
    -- Stationary point found.
 Normal termination of Gaussian 09 at Tue Jan 28 10:00:13 2020.

 ----------------------------------------------------------------------
 #N Geom=AllCheck Guess=TCheck SCRF=Check GenChk RB3LYP/6-31G(2df,p) Fr
 eq
 ----------------------------------------------------------------------

 Structure from the checkpoint file:  "/scratch/puck/g09_44800c03-3e1e-4fae-b9e0-4f27acaba233/Gau-21684.chk"
 -----
 titel
 -----
 Charge =  0 Multiplicity = 1

                         Standard orientation:
 ---------------------------------------------------------------------
 Center     Atomic      Atomic             Coordinates (Angstroms)
 Number     Number       Type             X           Y           Z
 ---------------------------------------------------------------------
      1          6           0        2.641054   -0.748970    0.391678
      2          6           0        1.471699   -0.752052   -0.599833
      3          6           0        0.400294    0.224608   -0.227627
      4          8           0        0.743563    1.650081   -0.125376
      5          6           0       -0.673956    1.590315    0.194464
      6          6           0       -1.009105    0.499193   -0.864925
      7          6           0       -1.721094   -0.368425    0.177492
      8          8           0       -1.659278   -1.751301   -0.099319
      9          6           0       -0.580885    0.264639    1.004074
     10          1           0        3.071464    0.252372    0.478226
     11          1           0        2.313980   -1.060312    1.389189
     12          1           0        3.428218   -1.435285    0.066613
     13          1           0        1.831008   -0.499065   -1.605124
     14          1           0        1.007347   -1.741551   -0.661277
     15          1           0       -1.198268    2.515106    0.429337
     16          1           0       -1.234245    0.649708   -1.920196
     17          1           0       -2.739257   -0.056576    0.447129
     18          1           0       -2.000184   -2.228078    0.663884
     19          1           0       -0.322386    0.157589    2.057846
 ---------------------------------------------------------------------

 SCF Done:  E(RB3LYP) =  -423.093658123     A.U. after    1 cycles

 The electronic state is 1-A.
 Alpha  occ. eigenvalues --  -19.14300 -19.12211 -10.24727 -10.24653 -10.24007
 Alpha  occ. eigenvalues --  -10.19533 -10.19495 -10.18194 -10.17173  -1.05782
 Alpha  occ. eigenvalues --   -1.02363  -0.85838  -0.77370  -0.66092  -0.64727
 Alpha  occ. eigenvalues --   -0.63683  -0.59654  -0.52018  -0.50977  -0.48687
 Alpha  occ. eigenvalues --   -0.46575  -0.44715  -0.43772  -0.39866  -0.39229
 Alpha  occ. eigenvalues --   -0.38167  -0.35947  -0.34426  -0.33477  -0.31197
 Alpha  occ. eigenvalues --   -0.30081  -0.29359  -0.26723  -0.22691
 Alpha virt. eigenvalues --    0.07110   0.08872   0.10931   0.11630   0.12101
 Alpha virt. eigenvalues --    0.14249   0.14460   0.15668   0.16033   0.16686
 Alpha virt. eigenvalues --    0.17780   0.18114   0.19051   0.19256   0.19547

 Mulliken charges:
               1
     1  C   -0.381545
     2  C   -0.331727
     3  C    0.507127
     4  O   -0.365052
     5  C    0.068948
     6  C   -0.172329
     7  C    0.093583
     8  O   -0.435510
     9  C   -0.193775
    10  H    0.138352
    11  H    0.113982
    12  H    0.111574
    13  H    0.109924
    14  H    0.126073
    15  H    0.093881
    16  H    0.083516
    17  H    0.068851
    18  H    0.285232
    19  H    0.078896
 Sum of Mulliken charges =   0.00000

 Dipole moment (field-independent basis, Debye):
    X=             -1.5447    Y=             -1.0697    Z=              1.3049  Tot=              2.2876
 Quadrupole moment (field-independent basis, Debye-Ang):
   XX=            -51.0279   YY=            -54.3279   ZZ=            -51.2082
   XY=             -2.9932   XZ=             -3.0712   YZ=             -2.3734

  Exact polarizability:  81.982  -2.814  74.756  -1.228  -0.475  68.058
 Approx polarizability: 110.471   0.307 112.304  -2.554  -0.385 106.276

                      1                      2                      3
                      A                      A                      A
 Frequencies --     78.4860               154.2000               179.4402
 Red. masses --      2.5384                 2.5595                 2.2604
 Frc consts  --      0.0092                 0.0359                 0.0429
 IR Inten    --      0.4442                 1.4395                 1.1147

                      4                      5                      6
                      A                      A                      A
 Frequencies --    216.7144               274.0337               299.0744
 Red. masses --      1.5305                 1.1846                 2.7969
 Frc consts  --      0.0424                 0.0524                 0.1474
 IR Inten    --      0.5166                82.9213                33.1485

                      7                      8                      9
                      A                      A                      A
 Frequencies --    348.8635               421.3882               544.4673
 Red. masses --      2.8629                 3.4735                 4.7764
 Frc consts  --      0.2053                 0.3634                 0.8342
 IR Inten    --      0.4079                 1.5376                 9.2889

                     10                     11                     12
                      A                      A                      A
 Frequencies --    559.0143               644.3867               739.5178
 Red. masses --      3.9375                 3.3804                 2.0664
 Frc consts  --      0.7250                 0.8270                 0.6658
 IR Inten    --      1.1313                 0.4395                 2.0226

                     13                     14                     15
                      A                      A                      A
 Frequencies --    772.4846               779.2872               833.7956
 Red. masses --      2.5608                 3.4037                 2.0249
 Frc consts  --      0.9003                 1.2178                 0.8294
 IR Inten    --      4.0538                17.0764                 5.3534

                     16                     17                     18
                      A                      A                      A
 Frequencies --    869.0227               875.8281               912.6909
 Red. masses --      2.3536                 2.0048                 1.5409
 Frc consts  --      1.0472                 0.9061                 0.7563
 IR Inten    --     17.8043                12.8353                 6.1574

                     19                     20                     21
                      A                      A                      A
 Frequencies --    923.5118               975.8400               986.5420
 Red. masses --      2.5060                 2.8136                 2.1755
 Frc consts  --      1.2592                 1.5786                 1.2475
 IR Inten    --     21.6746                21.8723                 4.9787

                     22                     23                     24
                      A                      A                      A
 Frequencies --   1034.1949              1077.0462              1096.5321
 Red. masses --      1.6823                 2.9782                 2.6423
 Frc consts  --      1.0601                 2.0355                 1.8719
 IR Inten    --      0.6126                 0.7780                43.5319

                     25                     26                     27
                      A                      A                      A
 Frequencies --   1101.0602              1111.5651              1132.5034
 Red. masses --      1.7232                 2.0418                 1.6175
 Frc consts  --      1.2309                 1.4864                 1.2223
 IR Inten    --     34.0093                 2.9452                 2.2629

                     28                     29                     30
                      A                      A                      A
 Frequencies --   1165.6400              1173.4379              1204.6747
 Red. masses --      1.7165                 2.0540                 1.4440
 Frc consts  --      1.3741                 1.6664                 1.2347
 IR Inten    --      3.7519                17.5221                54.9537

                     31                     32                     33
                      A                      A                      A
 Frequencies --   1247.4907              1270.6259              1301.6098
 Red. masses --      1.8071                 1.7840                 1.4119
 Frc consts  --      1.6569                 1.6970                 1.4094
 IR Inten    --     13.9640                21.4948                40.1780

                     34                     35                     36
                      A                      A                      A
 Frequencies --   1305.3051              1342.1668              1402.7998
 Red. masses --      1.3781                 1.5191                 2.1225
 Frc consts  --      1.3834                 1.6123                 2.4608
 IR Inten    --      9.7941                12.7074                 3.9746

                     37                     38                     39
                      A                      A                      A
 Frequencies --   1411.3164              1434.2844              1472.2674
 Red. masses --      1.5199                 1.5062                 1.0768
 Frc consts  --      1.7837                 1.8256                 1.3752
 IR Inten    --      3.9225                10.0150                 2.5927

                     40                     41                     42
                      A                      A                      A
 Frequencies --   1496.9885              1507.4097              3009.5365
 Red. masses --      1.0389                 1.0724                 1.0844
 Frc consts  --      1.3717                 1.4357                 5.7866
 IR Inten    --      4.9629                 6.0130                77.4732

                     43                     44                     45
                      A                      A                      A
 Frequencies --   3034.0831              3041.0462              3085.9298
 Red. masses --      1.0635                 1.0359                 1.0965
 Frc consts  --      5.7684                 5.6445                 6.1524
 IR Inten    --     14.0103                26.2332                 2.0721

                     46                     47                     48
                      A                      A                      A
 Frequencies --   3108.4434              3115.5966              3123.2552
 Red. masses --      1.1015                 1.0900                 1.1016
 Frc consts  --      6.2707                 6.2341                 6.3315
 IR Inten    --     30.4920                36.9481                22.0998

                     49                     50                     51
                      A                      A                      A
 Frequencies --   3125.2971              3138.4834              3820.1800
 Red. masses --      1.0898                 1.0980                 1.0662
 Frc consts  --      6.2716                 6.3723                 9.1677
 IR Inten    --     43.1312                36.3858                26.7565

 - Thermochemistry -
 -------------------
 Temperature   298.150 Kelvin.  Pressure   1.00000 Atm.
 Atom     1 has atomic number  6 and mass  12.00000

 Molecular mass:   126.06808 amu.
 Principal axes and moments of inertia in atomic units:
                           1         2         3
     Eigenvalues --   725.979531111.485701529.57937
           X            0.99684  -0.07941   0.00024
           Y            0.07941   0.99681  -0.00743
           Z            0.00035   0.00743   0.99997
 This molecule is an asymmetric top.
 Rotational symmetry number  1.
 Warning -- assumption of classical behavior for rotation
           may cause significant error
 Rotational temperatures (Kelvin)      0.11931     0.07793     0.05663
 Rotational constants (GHZ):           2.48594     1.62372     1.17989
 Zero-point vibrational energy     414382.6 (Joules/Mol)
                                   99.03982 (Kcal/Mol)
 Warning -- explicit consideration of  10 degrees of freedom as
           vibrations may cause significant error
 Vibrational temperatures:    112.92   221.86   258.17   311.80   394.27
          (Kelvin)            430.30   501.94   606.28   783.37   804.30
                              927.13  1064.00  1111.43  1121.22  1199.64
                             1250.33  1260.12  1313.16  1328.73  1404.01
                             1419.41  1487.97  1549.63  1577.66  1584.18
                             1599.29  1629.42  1677.09  1688.31  1733.26
                             1794.86  1828.15  1872.72  1878.04  1931.08
                             2018.31  2030.57  2063.61  2118.26  2153.83
                             2168.82  4330.05  4365.36  4375.38  4439.96
                             4472.35  4482.64  4493.66  4496.60  4515.57
                             5496.38

 Zero-point correction=                           0.157830 (Hartree/Particle)
 Thermal correction to Energy=                    0.166187
 Thermal correction to Enthalpy=                  0.167131
 Thermal correction to Gibbs Free Energy=         0.124931
 Sum of electronic and zero-point Energies=           -422.935828
 Sum of electronic and thermal Energies=              -422.927471
 Sum of electronic and thermal Enthalpies=            -422.926527
 Sum of electronic and thermal Free Energies=         -422.968727

                     E (Thermal)             CV                S
                      KCal/Mol        Cal/Mol-Kelvin    Cal/Mol-Kelvin
 Total                  104.284             32.350             88.818
 Electronic               0.000              0.000              0.000
 Translational            0.889              2.981             40.409
 Rotational               0.889              2.981             28.603
 Vibrational            102.506             26.388             19.806
 Vibration     1          0.600              1.964              3.928
 Vibration     2          0.620              1.898              2.620
 Vibration     3          0.629              1.868              2.334
 Vibration     4          0.646              1.816              1.986
 Vibration     5          0.676              1.721              1.571
 Vibration     6          0.692              1.675              1.422
 Vibration     7          0.726              1.578              1.171
 Vibration     8          0.784              1.424              0.887
 Vibration     9          0.900              1.152              0.556
 Vibration    10          0.915              1.120              0.526

 Optimization completed.
    -- Stationary point found.
 Normal termination of Gaussian 09 at Tue Jan 28 10:44:25 2020.
