 Gaussian 09, Revision D.01,
 Gaussian 09:  ES64L-G09RevD.01 24-Apr-2013

 -----------------------------
 # b3lyp 6-31G(2df,p) opt Freq
 -----------------------------

 -----
 titel
 -----
 Symbolic Z-matrix:
 Charge =  0 Multiplicity = 1

 SCF Done:  E(RB3LYP) =  -423.176950001     A.U. after   13 cycles
 Optimization completed.
    -- Stationary point found.
 Normal termination of Gaussian 09 at Mon Jan 27 11:18:39 2020.

 ----------------------------------------------------------------------
 #N Geom=AllCheck Guess=TCheck SCRF=Check GenChk RB3LYP/6-31G(2df,p) Fr
 eq
 ----------------------------------------------------------------------

 Structure from the checkpoint file:  "/scratch/puck/g09_46591974-4b6b-47ae-9e66-c2adbbbf1e31/Gau-150494.chk"
 -----
 titel
 -----
 Charge =  0 Multiplicity = 1

                         Standard orientation:
 ---------------------------------------------------------------------
 Center     Atomic      Atomic             Coordinates (Angstroms)
 Number     Number       Type             X           Y           Z
 ---------------------------------------------------------------------
      1          6           0       -0.862864   -0.925511   -1.094351
      2          6           0       -1.526684    0.323990   -0.538386
      3          6           0       -1.132198    0.331827    0.922417
      4          8           0       -0.403813   -0.823792    1.240688
      5          6           0        0.127068   -1.362378    0.018927
      6          6           0        1.567535   -0.856818   -0.180058
      7          6           0        1.705176    0.623148    0.185072
      8          8           0        0.753276    1.442110   -0.481531
      9          6           0       -0.564030    1.374879   -0.020933
     10          1           0       -1.619348   -1.698607   -1.259297
     11          1           0       -0.345547   -0.749557   -2.041547
     12          1           0       -2.510573    0.603960   -0.896561
     13          1           0       -1.781051    0.633036    1.737008
     14          1           0        0.135049   -2.450064    0.133812
     15          1           0        2.250047   -1.429638    0.459214
     16          1           0        1.873918   -1.028543   -1.218175
     17          1           0        1.614009    0.746110    1.270946
     18          1           0        2.685500    1.000350   -0.120759
     19          1           0       -0.981722    2.371578    0.105976
 ---------------------------------------------------------------------

 SCF Done:  E(RB3LYP) =  -423.176950001     A.U. after    1 cycles

 The electronic state is 1-A.
 Alpha  occ. eigenvalues --  -19.14353 -19.14059 -10.23418 -10.23348 -10.23035
 Alpha  occ. eigenvalues --  -10.22476 -10.18707 -10.18453 -10.17974  -1.05323
 Alpha  occ. eigenvalues --   -1.02384  -0.84240  -0.78665  -0.72292  -0.67273
 Alpha  occ. eigenvalues --   -0.59346  -0.56977  -0.55218  -0.53513  -0.47849
 Alpha  occ. eigenvalues --   -0.47243  -0.44383  -0.43203  -0.42519  -0.41115
 Alpha  occ. eigenvalues --   -0.38628  -0.37088  -0.36085  -0.34393  -0.32195
 Alpha  occ. eigenvalues --   -0.30765  -0.29822  -0.23877  -0.22686
 Alpha virt. eigenvalues --    0.07415   0.10214   0.11505   0.13057   0.13369
 Alpha virt. eigenvalues --    0.14068   0.15042   0.16045   0.16826   0.17167
 Alpha virt. eigenvalues --    0.17593   0.18874   0.19964   0.21646   0.23103

 Mulliken charges:
               1
     1  C   -0.242243
     2  C   -0.134123
     3  C    0.039038
     4  O   -0.260589
     5  C    0.077813
     6  C   -0.220802
     7  C   -0.067204
     8  O   -0.260940
     9  C    0.066986
    10  H    0.105444
    11  H    0.112515
    12  H    0.086040
    13  H    0.100477
    14  H    0.085384
    15  H    0.099869
    16  H    0.101875
    17  H    0.111193
    18  H    0.103526
    19  H    0.095741
 Sum of Mulliken charges =   0.00000

 Dipole moment (field-independent basis, Debye):
    X=             -0.2825    Y=             -0.5651    Z=             -0.3737  Tot=              0.7341
 Quadrupole moment (field-independent basis, Debye-Ang):
   XX=            -49.2553   YY=            -53.2711   ZZ=            -55.0281
   XY=             -2.6785   XZ=              0.6696   YZ=              3.6878

  Exact polarizability:  79.480  -2.964  73.439   0.949   3.266  65.794
 Approx polarizability: 108.166  -2.459 106.563   0.100   0.266 105.464

                      1                      2                      3
                      A                      A                      A
 Frequencies --    156.2909               270.7450               284.4009
 Red. masses --      2.9119                 3.6220                 2.9256
 Frc consts  --      0.0419                 0.1564                 0.1394
 IR Inten    --      3.1458                 2.2105                 2.9646

                      4                      5                      6
                      A                      A                      A
 Frequencies --    385.5432               398.5036               498.3625
 Red. masses --      2.7397                 2.7856                 2.9590
 Frc consts  --      0.2399                 0.2606                 0.4330
 IR Inten    --      0.2451                 4.8057                 1.1393

                      7                      8                      9
                      A                      A                      A
 Frequencies --    587.4812               665.6627               718.9089
 Red. masses --      3.8736                 3.2092                 4.4005
 Frc consts  --      0.7877                 0.8378                 1.3400
 IR Inten    --      1.6220                15.2415                 1.4022

                     10                     11                     12
                      A                      A                      A
 Frequencies --    725.0881               760.5753               789.6697
 Red. masses --      3.0402                 2.3722                 2.9745
 Frc consts  --      0.9417                 0.8085                 1.0928
 IR Inten    --     12.2097                20.9223                 6.8838

                     13                     14                     15
                      A                      A                      A
 Frequencies --    803.3853               866.6887               904.6975
 Red. masses --      2.2986                 2.1848                 2.3965
 Frc consts  --      0.8741                 0.9669                 1.1556
 IR Inten    --      2.5911                 9.5151                 4.3789

                     16                     17                     18
                      A                      A                      A
 Frequencies --    918.6073               941.3055              1008.9741
 Red. masses --      2.9289                 2.5201                 1.7586
 Frc consts  --      1.4562                 1.3156                 1.0548
 IR Inten    --      3.8188                17.9527                10.6546

                     19                     20                     21
                      A                      A                      A
 Frequencies --   1022.8080              1050.0033              1069.5996
 Red. masses --      2.1478                 1.6994                 2.2727
 Frc consts  --      1.3238                 1.1039                 1.5319
 IR Inten    --     27.3773                10.9902                 4.1252

                     22                     23                     24
                      A                      A                      A
 Frequencies --   1074.4742              1103.7540              1110.3813
 Red. masses --      2.1348                 1.3878                 1.6674
 Frc consts  --      1.4521                 0.9961                 1.2113
 IR Inten    --     19.6519                10.8673                 0.6641

                     25                     26                     27
                      A                      A                      A
 Frequencies --   1120.4498              1149.6037              1195.5508
 Red. masses --      2.4053                 4.5801                 1.1790
 Frc consts  --      1.7791                 3.5664                 0.9929
 IR Inten    --      8.8995                35.3439                 1.7248

                     28                     29                     30
                      A                      A                      A
 Frequencies --   1224.9364              1246.1714              1283.7475
 Red. masses --      1.3549                 1.8233                 1.7137
 Frc consts  --      1.1978                 1.6682                 1.6640
 IR Inten    --     14.0063                77.4691                19.1491

                     31                     32                     33
                      A                      A                      A
 Frequencies --   1295.7104              1311.0396              1346.2498
 Red. masses --      1.3956                 1.3183                 1.2654
 Frc consts  --      1.3805                 1.3351                 1.3513
 IR Inten    --     22.8255                 5.8290                 1.5174

                     34                     35                     36
                      A                      A                      A
 Frequencies --   1354.5776              1361.5390              1391.8379
 Red. masses --      1.4828                 1.4431                 1.3515
 Frc consts  --      1.6030                 1.5762                 1.5426
 IR Inten    --      2.3694                 6.4319                 3.6892

                     37                     38                     39
                      A                      A                      A
 Frequencies --   1410.5669              1430.4924              1472.7948
 Red. masses --      1.4413                 1.8185                 1.0949
 Frc consts  --      1.6896                 2.1924                 1.3993
 IR Inten    --     27.6616                 5.1875                 2.3638

                     40                     41                     42
                      A                      A                      A
 Frequencies --   1492.3932              1498.5467              3029.6324
 Red. masses --      1.0987                 1.1059                 1.0604
 Frc consts  --      1.4418                 1.4632                 5.7348
 IR Inten    --      4.1922                 4.7999                17.0152

                     43                     44                     45
                      A                      A                      A
 Frequencies --   3034.1006              3051.5183              3068.0856
 Red. masses --      1.0631                 1.0654                 1.0813
 Frc consts  --      5.7662                 5.8453                 5.9971
 IR Inten    --     37.6706                11.8953                61.1101

                     46                     47                     48
                      A                      A                      A
 Frequencies --   3075.5269              3092.6153              3100.4822
 Red. masses --      1.1002                 1.1049                 1.1046
 Frc consts  --      6.1315                 6.2261                 6.2563
 IR Inten    --     32.9230                27.1571                28.7128

                     49                     50                     51
                      A                      A                      A
 Frequencies --   3123.8337              3170.2888              3180.5562
 Red. masses --      1.0880                 1.0890                 1.0947
 Frc consts  --      6.2553                 6.4489                 6.5243
 IR Inten    --     24.7512                13.4977                26.6328

 - Thermochemistry -
 -------------------
 Temperature   298.150 Kelvin.  Pressure   1.00000 Atm.
 Atom     1 has atomic number  6 and mass  12.00000

 Molecular mass:   126.06808 amu.
 Principal axes and moments of inertia in atomic units:
                           1         2         3
     Eigenvalues --   734.59811 837.085681073.89210
           X            0.99127  -0.13023   0.02068
           Y            0.12813   0.98834   0.08228
           Z           -0.03115  -0.07891   0.99639
 This molecule is an asymmetric top.
 Rotational symmetry number  1.
 Warning -- assumption of classical behavior for rotation
           may cause significant error
 Rotational temperatures (Kelvin)      0.11791     0.10347     0.08065
 Rotational constants (GHZ):           2.45677     2.15598     1.68056
 Zero-point vibrational energy     428435.1 (Joules/Mol)
                                  102.39845 (Kcal/Mol)
 Warning -- explicit consideration of   7 degrees of freedom as
           vibrations may cause significant error
 Vibrational temperatures:    224.87   389.54   409.19   554.71   573.36
          (Kelvin)            717.03   845.25   957.74  1034.35  1043.24
                             1094.30  1136.16  1155.89  1246.97  1301.66
                             1321.67  1354.33  1451.69  1471.59  1510.72
                             1538.91  1545.93  1588.05  1597.59  1612.08
                             1654.02  1720.13  1762.41  1792.96  1847.02
                             1864.24  1886.29  1936.95  1948.93  1958.95
                             2002.54  2029.49  2058.16  2119.02  2147.22
                             2156.07  4358.96  4365.39  4390.45  4414.29
                             4424.99  4449.58  4460.90  4494.49  4561.33
                             4576.11

 Zero-point correction=                           0.163182 (Hartree/Particle)
 Thermal correction to Energy=                    0.169759
 Thermal correction to Enthalpy=                  0.170703
 Thermal correction to Gibbs Free Energy=         0.132554
 Sum of electronic and zero-point Energies=           -423.013768
 Sum of electronic and thermal Energies=              -423.007191
 Sum of electronic and thermal Enthalpies=            -423.006247
 Sum of electronic and thermal Free Energies=         -423.044396

                     E (Thermal)             CV                S
                      KCal/Mol        Cal/Mol-Kelvin    Cal/Mol-Kelvin
 Total                  106.526             27.681             80.292
 Electronic               0.000              0.000              0.000
 Translational            0.889              2.981             40.409
 Rotational               0.889              2.981             27.981
 Vibrational            104.748             21.719             11.903
 Vibration     1          0.620              1.896              2.594
 Vibration     2          0.674              1.727              1.591
 Vibration     3          0.683              1.703              1.507
 Vibration     4          0.754              1.501              1.017
 Vibration     5          0.765              1.473              0.968
 Vibration     6          0.854              1.254              0.662
 Vibration     7          0.945              1.058              0.472

 Optimization completed.
    -- Stationary point found.
 Normal termination of Gaussian 09 at Mon Jan 27 12:09:23 2020.
