 Gaussian 09, Revision D.01,
 Gaussian 09:  ES64L-G09RevD.01 24-Apr-2013

 -----------------------------
 # b3lyp 6-31G(2df,p) opt Freq
 -----------------------------

 -----
 titel
 -----
 Symbolic Z-matrix:
 Charge =  0 Multiplicity = 1

 SCF Done:  E(RB3LYP) =  -423.156499419     A.U. after   13 cycles
 Optimization completed.
    -- Stationary point found.
 Normal termination of Gaussian 09 at Mon Jan 27 17:55:46 2020.

 ----------------------------------------------------------------------
 #N Geom=AllCheck Guess=TCheck SCRF=Check GenChk RB3LYP/6-31G(2df,p) Fr
 eq
 ----------------------------------------------------------------------

 Structure from the checkpoint file:  "/scratch/puck/g09_ed00b3b8-4b47-41b7-8d4b-b73dba1a8623/Gau-87943.chk"
 -----
 titel
 -----
 Charge =  0 Multiplicity = 1

                         Standard orientation:
 ---------------------------------------------------------------------
 Center     Atomic      Atomic             Coordinates (Angstroms)
 Number     Number       Type             X           Y           Z
 ---------------------------------------------------------------------
      1          8           0       -0.212288    2.031686   -0.434435
      2          6           0       -0.439504    0.739424    0.020978
      3          6           0       -1.537753    0.525947    1.014066
      4          6           0       -1.634422   -0.113288   -0.359316
      5          6           0       -1.099907   -1.523942   -0.488841
      6          8           0        0.164007   -1.521620    0.189425
      7          6           0        0.714613   -0.229093    0.101959
      8          6           0        1.982093   -0.018334   -0.689801
      9          6           0        1.989833    0.009722    0.832216
     10          1           0        0.052991    1.977637   -1.359569
     11          1           0       -1.350181   -0.101939    1.879329
     12          1           0       -2.184544    1.378565    1.186273
     13          1           0       -2.380990    0.246264   -1.057346
     14          1           0       -1.714145   -2.292133   -0.007802
     15          1           0       -0.976762   -1.791026   -1.550110
     16          1           0        2.402076   -0.892399   -1.174496
     17          1           0        2.137994    0.919331   -1.213414
     18          1           0        2.430732   -0.836096    1.347481
     19          1           0        2.119363    0.968653    1.322166
 ---------------------------------------------------------------------

 SCF Done:  E(RB3LYP) =  -423.156499419     A.U. after    1 cycles

 The electronic state is 1-A.
 Alpha  occ. eigenvalues --  -19.15276 -19.14246 -10.24137 -10.23672 -10.23063
 Alpha  occ. eigenvalues --  -10.19077 -10.18429 -10.18193 -10.18061  -1.05012
 Alpha  occ. eigenvalues --   -1.03140  -0.85145  -0.84637  -0.70262  -0.63090
 Alpha  occ. eigenvalues --   -0.60231  -0.59044  -0.55853  -0.53061  -0.48363
 Alpha  occ. eigenvalues --   -0.47605  -0.46479  -0.43414  -0.42618  -0.39594
 Alpha  occ. eigenvalues --   -0.38866  -0.36654  -0.35340  -0.34000  -0.31471
 Alpha  occ. eigenvalues --   -0.30312  -0.28293  -0.25293  -0.23035
 Alpha virt. eigenvalues --    0.06992   0.09131   0.11242   0.12336   0.12515
 Alpha virt. eigenvalues --    0.13857   0.14306   0.14793   0.16529   0.17646
 Alpha virt. eigenvalues --    0.17978   0.20304   0.21492   0.22224   0.23207

 Mulliken charges:
               1
     1  O   -0.462445
     2  C    0.326222
     3  C   -0.324536
     4  C   -0.143328
     5  C   -0.107323
     6  O   -0.299798
     7  C    0.398275
     8  C   -0.352282
     9  C   -0.330540
    10  H    0.284673
    11  H    0.124526
    12  H    0.120497
    13  H    0.093027
    14  H    0.109834
    15  H    0.093013
    16  H    0.120519
    17  H    0.102011
    18  H    0.123338
    19  H    0.124317
 Sum of Mulliken charges =   0.00000

 Dipole moment (field-independent basis, Debye):
    X=             -0.5500    Y=              0.0989    Z=             -1.4482  Tot=              1.5523
 Quadrupole moment (field-independent basis, Debye-Ang):
   XX=            -51.5197   YY=            -56.5848   ZZ=            -49.5362
   XY=              1.3558   XZ=              0.2339   YZ=             -1.1293

  Exact polarizability:  83.187   3.071  72.060  -0.876   1.643  70.659
 Approx polarizability: 111.069   5.431 105.772  -0.962   0.825 108.043

                      1                      2                      3
                      A                      A                      A
 Frequencies --    113.2703               218.7393               226.0438
 Red. masses --      3.8513                 2.1522                 2.9787
 Frc consts  --      0.0291                 0.0607                 0.0897
 IR Inten    --      2.1476                 0.9235                 0.8653

                      4                      5                      6
                      A                      A                      A
 Frequencies --    262.9777               336.9242               369.3032
 Red. masses --      2.9329                 1.3062                 2.2070
 Frc consts  --      0.1195                 0.0874                 0.1773
 IR Inten    --      4.5169                63.6770                14.6706

                      7                      8                      9
                      A                      A                      A
 Frequencies --    406.5562               437.0957               478.8128
 Red. masses --      2.6983                 2.4444                 4.6407
 Frc consts  --      0.2628                 0.2752                 0.6269
 IR Inten    --     39.3323                10.0437                 0.3718

                     10                     11                     12
                      A                      A                      A
 Frequencies --    574.7666               624.4493               692.2105
 Red. masses --      3.4452                 3.9784                 3.5659
 Frc consts  --      0.6706                 0.9140                 1.0067
 IR Inten    --      1.0610                 5.4067                 4.1255

                     13                     14                     15
                      A                      A                      A
 Frequencies --    767.7115               806.7569               844.9202
 Red. masses --      1.1305                 2.4300                 1.7441
 Frc consts  --      0.3926                 0.9319                 0.7336
 IR Inten    --      1.5717                 1.4837                 6.4080

                     16                     17                     18
                      A                      A                      A
 Frequencies --    883.1812               886.3574               924.0115
 Red. masses --      1.8976                 1.6391                 1.7519
 Frc consts  --      0.8721                 0.7587                 0.8813
 IR Inten    --      5.6770                 6.8047                12.3739

                     19                     20                     21
                      A                      A                      A
 Frequencies --    952.0429               967.2911               988.5103
 Red. masses --      2.3733                 2.3939                 3.7923
 Frc consts  --      1.2674                 1.3197                 2.1833
 IR Inten    --     17.6647                20.9783                11.8976

                     22                     23                     24
                      A                      A                      A
 Frequencies --   1007.9325              1046.5981              1058.6132
 Red. masses --      1.9414                 1.5384                 1.4276
 Frc consts  --      1.1621                 0.9928                 0.9426
 IR Inten    --     16.2738                 4.5095                 1.2609

                     25                     26                     27
                      A                      A                      A
 Frequencies --   1076.5011              1086.5682              1087.2126
 Red. masses --      1.4588                 2.4221                 1.7347
 Frc consts  --      0.9961                 1.6848                 1.2081
 IR Inten    --      2.7169                43.2666                11.4662

                     28                     29                     30
                      A                      A                      A
 Frequencies --   1111.4729              1179.3700              1192.3117
 Red. masses --      1.7493                 2.0828                 1.2605
 Frc consts  --      1.2733                 1.7069                 1.0558
 IR Inten    --      8.6557                10.0762                 0.4039

                     31                     32                     33
                      A                      A                      A
 Frequencies --   1231.1993              1253.7986              1284.8269
 Red. masses --      1.2062                 2.0247                 2.6950
 Frc consts  --      1.0773                 1.8753                 2.6212
 IR Inten    --      4.4524               120.2328                29.5564

                     34                     35                     36
                      A                      A                      A
 Frequencies --   1315.6360              1380.6588              1397.4134
 Red. masses --      1.6525                 1.5280                 2.6096
 Frc consts  --      1.6852                 1.7161                 3.0024
 IR Inten    --     55.1515                 5.9690                14.0124

                     37                     38                     39
                      A                      A                      A
 Frequencies --   1409.7325              1441.6770              1478.5352
 Red. masses --      1.5561                 1.0947                 1.5232
 Frc consts  --      1.8221                 1.3405                 1.9618
 IR Inten    --      0.9285                 2.5444                17.7744

                     40                     41                     42
                      A                      A                      A
 Frequencies --   1498.5817              1516.9187              2981.7666
 Red. masses --      1.7623                 1.1297                 1.0695
 Frc consts  --      2.3318                 1.5316                 5.6026
 IR Inten    --      8.0519                 0.2914                77.9252

                     43                     44                     45
                      A                      A                      A
 Frequencies --   3068.4738              3128.2116              3132.2054
 Red. masses --      1.0939                 1.0530                 1.0542
 Frc consts  --      6.0684                 6.0709                 6.0938
 IR Inten    --     40.8364                13.4265                 7.8957

                     46                     47                     48
                      A                      A                      A
 Frequencies --   3135.8918              3186.2314              3216.2080
 Red. masses --      1.0549                 1.0918                 1.1178
 Frc consts  --      6.1122                 6.5308                 6.8127
 IR Inten    --      7.4643                 8.0229                 1.2906

                     49                     50                     51
                      A                      A                      A
 Frequencies --   3227.3207              3231.1317              3793.7111
 Red. masses --      1.1163                 1.1159                 1.0657
 Frc consts  --      6.8502                 6.8640                 9.0368
 IR Inten    --      4.0857                 9.1528                15.1243

 - Thermochemistry -
 -------------------
 Temperature   298.150 Kelvin.  Pressure   1.00000 Atm.
 Atom     1 has atomic number  8 and mass  15.99491

 Molecular mass:   126.06808 amu.
 Principal axes and moments of inertia in atomic units:
                           1         2         3
     Eigenvalues --   752.15329 956.358601341.87861
           X            0.99929   0.03761  -0.00282
           Y           -0.03758   0.99922   0.01254
           Z            0.00329  -0.01243   0.99992
 This molecule is an asymmetric top.
 Rotational symmetry number  1.
 Warning -- assumption of classical behavior for rotation
           may cause significant error
 Rotational temperatures (Kelvin)      0.11515     0.09057     0.06455
 Rotational constants (GHZ):           2.39943     1.88710     1.34494
 Zero-point vibrational energy     418206.4 (Joules/Mol)
                                   99.95372 (Kcal/Mol)
 Warning -- explicit consideration of  10 degrees of freedom as
           vibrations may cause significant error
 Vibrational temperatures:    162.97   314.72   325.23   378.37   484.76
          (Kelvin)            531.34   584.94   628.88   688.90   826.96
                              898.44   995.94  1104.56  1160.74  1215.65
                             1270.70  1275.27  1329.44  1369.78  1391.71
                             1422.24  1450.19  1505.82  1523.11  1548.84
                             1563.33  1564.25  1599.16  1696.85  1715.47
                             1771.42  1803.93  1848.58  1892.90  1986.46
                             2010.56  2028.29  2074.25  2127.28  2156.12
                             2182.50  4290.09  4414.84  4500.79  4506.54
                             4511.84  4584.27  4627.40  4643.39  4648.87
                             5458.30

 Zero-point correction=                           0.159286 (Hartree/Particle)
 Thermal correction to Energy=                    0.167171
 Thermal correction to Enthalpy=                  0.168115
 Thermal correction to Gibbs Free Energy=         0.127401
 Sum of electronic and zero-point Energies=           -422.997213
 Sum of electronic and thermal Energies=              -422.989329
 Sum of electronic and thermal Enthalpies=            -422.988384
 Sum of electronic and thermal Free Energies=         -423.029098

                     E (Thermal)             CV                S
                      KCal/Mol        Cal/Mol-Kelvin    Cal/Mol-Kelvin
 Total                  104.901             32.009             85.690
 Electronic               0.000              0.000              0.000
 Translational            0.889              2.981             40.409
 Rotational               0.889              2.981             28.358
 Vibrational            103.124             26.048             16.923
 Vibration     1          0.607              1.938              3.212
 Vibration     2          0.647              1.813              1.970
 Vibration     3          0.650              1.801              1.910
 Vibration     4          0.670              1.741              1.642
 Vibration     5          0.718              1.602              1.227
 Vibration     6          0.742              1.535              1.083
 Vibration     7          0.771              1.456              0.939
 Vibration     8          0.797              1.389              0.836
 Vibration     9          0.835              1.297              0.713
 Vibration    10          0.931              1.086              0.495

 Normal termination of Gaussian 09 at Mon Jan 27 18:40:51 2020.
