 Gaussian 09, Revision D.01,
 Gaussian 09:  ES64L-G09RevD.01 24-Apr-2013

 -----------------------------
 # b3lyp 6-31G(2df,p) opt Freq
 -----------------------------

 -----
 titel
 -----
 Symbolic Z-matrix:
 Charge =  0 Multiplicity = 1

 SCF Done:  E(RB3LYP) =  -423.152613184     A.U. after   13 cycles
 Optimization completed.
    -- Stationary point found.
 Normal termination of Gaussian 09 at Mon Jan 27 22:05:48 2020.

 ----------------------------------------------------------------------
 #N Geom=AllCheck Guess=TCheck SCRF=Check GenChk RB3LYP/6-31G(2df,p) Fr
 eq
 ----------------------------------------------------------------------

 Structure from the checkpoint file:  "/scratch/puck/g09_6e511fa2-2068-42cb-9b08-8cb226a4cdef/Gau-111366.chk"
 -----
 titel
 -----
 Charge =  0 Multiplicity = 1

                         Standard orientation:
 ---------------------------------------------------------------------
 Center     Atomic      Atomic             Coordinates (Angstroms)
 Number     Number       Type             X           Y           Z
 ---------------------------------------------------------------------
      1          6           0       -2.182231   -1.262012   -0.202037
      2          6           0       -1.393917   -0.120778    0.417441
      3          8           0       -1.274793    0.957321   -0.534657
      4          6           0       -0.043591    1.593056   -0.277734
      5          6           0        1.247795    0.832097   -0.517748
      6          6           0        0.670794    1.032233    0.898981
      7          6           0        0.061159   -0.399287    0.811085
      8          6           0        0.971302   -0.667667   -0.439287
      9          8           0        2.114276   -1.447939   -0.159664
     10          1           0       -2.331995   -2.059444    0.532763
     11          1           0       -3.165008   -0.907305   -0.524712
     12          1           0       -1.670221   -1.682035   -1.071455
     13          1           0       -1.935360    0.252982    1.302762
     14          1           0       -0.053154    2.656629   -0.484943
     15          1           0        2.114639    1.289251   -0.983700
     16          1           0        1.032360    1.572722    1.763819
     17          1           0        0.199128   -1.096635    1.637253
     18          1           0        0.502157   -1.139980   -1.306288
     19          1           0        2.603730   -1.007091    0.544858
 ---------------------------------------------------------------------

 SCF Done:  E(RB3LYP) =  -423.152613184     A.U. after    1 cycles

 The electronic state is 1-A.
 Alpha  occ. eigenvalues --  -19.13715 -19.13650 -10.23748 -10.23420 -10.23295
 Alpha  occ. eigenvalues --  -10.19619 -10.19269 -10.19195 -10.17587  -1.04357
 Alpha  occ. eigenvalues --   -1.01924  -0.87948  -0.77833  -0.69940  -0.66738
 Alpha  occ. eigenvalues --   -0.60278  -0.57477  -0.55901  -0.52949  -0.48204
 Alpha  occ. eigenvalues --   -0.46960  -0.45905  -0.42310  -0.41497  -0.39274
 Alpha  occ. eigenvalues --   -0.37748  -0.37143  -0.36375  -0.33661  -0.32710
 Alpha  occ. eigenvalues --   -0.31516  -0.27688  -0.25172  -0.23303
 Alpha virt. eigenvalues --    0.08349   0.08918   0.10383   0.10504   0.12328
 Alpha virt. eigenvalues --    0.13140   0.14116   0.16191   0.16803   0.16889
 Alpha virt. eigenvalues --    0.17580   0.18191   0.19681   0.20542   0.23000

 Mulliken charges:
               1
     1  C   -0.409438
     2  C    0.141518
     3  O   -0.287733
     4  C    0.113099
     5  C   -0.155466
     6  C   -0.155708
     7  C   -0.127052
     8  C    0.158273
     9  O   -0.445381
    10  H    0.116319
    11  H    0.129135
    12  H    0.128088
    13  H    0.068816
    14  H    0.105930
    15  H    0.086706
    16  H    0.090143
    17  H    0.074831
    18  H    0.091020
    19  H    0.276902
 Sum of Mulliken charges =   0.00000

 Dipole moment (field-independent basis, Debye):
    X=              0.4428    Y=              0.8261    Z=              1.7489  Tot=              1.9842
 Quadrupole moment (field-independent basis, Debye-Ang):
   XX=            -53.1797   YY=            -54.0975   ZZ=            -52.1881
   XY=              5.6944   XZ=              1.0580   YZ=             -0.5380

  Exact polarizability:  80.665   3.922  74.702  -1.026  -0.365  65.998
 Approx polarizability: 111.566   0.127 107.273  -0.591  -1.199 106.781

                      1                      2                      3
                      A                      A                      A
 Frequencies --    143.5581               169.6563               219.2152
 Red. masses --      3.4483                 3.3293                 1.1063
 Frc consts  --      0.0419                 0.0565                 0.0313
 IR Inten    --      2.6482                 1.6847                 0.6313

                      4                      5                      6
                      A                      A                      A
 Frequencies --    296.6970               319.5198               379.6760
 Red. masses --      2.2003                 1.7266                 2.0908
 Frc consts  --      0.1141                 0.1039                 0.1776
 IR Inten    --      9.0767                15.8887                50.1144

                      7                      8                      9
                      A                      A                      A
 Frequencies --    386.6669               508.0710               538.4699
 Red. masses --      4.9630                 3.1262                 3.9279
 Frc consts  --      0.4372                 0.4755                 0.6710
 IR Inten    --      6.5621                 2.7300                 3.5544

                     10                     11                     12
                      A                      A                      A
 Frequencies --    634.5481               737.9800               750.6507
 Red. masses --      3.4907                 4.0050                 2.4069
 Frc consts  --      0.8281                 1.2851                 0.7991
 IR Inten    --      1.9659                 7.5712                 2.3630

                     13                     14                     15
                      A                      A                      A
 Frequencies --    783.5436               845.7117               856.7837
 Red. masses --      2.2812                 2.6887                 2.5699
 Frc consts  --      0.8252                 1.1330                 1.1115
 IR Inten    --     22.4859                 8.6687                12.7637

                     16                     17                     18
                      A                      A                      A
 Frequencies --    896.7652               917.4011               936.4575
 Red. masses --      1.7887                 1.9612                 1.7133
 Frc consts  --      0.8475                 0.9725                 0.8853
 IR Inten    --      3.5499                 8.0851                 5.9331

                     19                     20                     21
                      A                      A                      A
 Frequencies --    975.8633              1003.8775              1008.7575
 Red. masses --      2.5690                 1.8589                 1.8095
 Frc consts  --      1.4414                 1.1037                 1.0849
 IR Inten    --     13.4897                16.2478                 7.7618

                     22                     23                     24
                      A                      A                      A
 Frequencies --   1046.2432              1053.3796              1061.6671
 Red. masses --      2.1702                 2.3543                 1.3751
 Frc consts  --      1.3996                 1.5392                 0.9132
 IR Inten    --     10.5892                52.7212                 2.2647

                     25                     26                     27
                      A                      A                      A
 Frequencies --   1094.8924              1117.6804              1136.0343
 Red. masses --      1.9644                 2.7224                 2.3419
 Frc consts  --      1.3875                 2.0037                 1.7807
 IR Inten    --     38.0789                72.6995                58.6011

                     28                     29                     30
                      A                      A                      A
 Frequencies --   1151.1184              1186.9044              1218.9595
 Red. masses --      2.1131                 1.8251                 1.5348
 Frc consts  --      1.6497                 1.5149                 1.3436
 IR Inten    --     12.0013                 6.8739                 4.3053

                     31                     32                     33
                      A                      A                      A
 Frequencies --   1245.4789              1275.7855              1287.3330
 Red. masses --      1.4746                 1.4847                 1.6510
 Frc consts  --      1.3477                 1.4238                 1.6120
 IR Inten    --     17.9176                 3.2634                 7.8236

                     34                     35                     36
                      A                      A                      A
 Frequencies --   1317.3883              1351.5080              1382.5085
 Red. masses --      1.5027                 1.4515                 1.5192
 Frc consts  --      1.5366                 1.5620                 1.7108
 IR Inten    --      2.9104                 0.8385                32.5895

                     37                     38                     39
                      A                      A                      A
 Frequencies --   1398.8416              1412.1105              1431.9141
 Red. masses --      1.9830                 1.3743                 1.2897
 Frc consts  --      2.2862                 1.6146                 1.5581
 IR Inten    --     21.4701                18.6042                63.7485

                     40                     41                     42
                      A                      A                      A
 Frequencies --   1485.2198              1498.5353              2957.1148
 Red. masses --      1.0562                 1.0503                 1.0832
 Frc consts  --      1.3727                 1.3897                 5.5809
 IR Inten    --      1.2859                 3.7431                61.4545

                     43                     44                     45
                      A                      A                      A
 Frequencies --   3045.3066              3078.0421              3115.1312
 Red. masses --      1.0358                 1.0850                 1.1005
 Frc consts  --      5.6594                 6.0569                 6.2920
 IR Inten    --     13.2413                40.3233                12.3659

                     46                     47                     48
                      A                      A                      A
 Frequencies --   3121.7908              3126.2435              3165.7902
 Red. masses --      1.0900                 1.1012                 1.0910
 Frc consts  --      6.2586                 6.3409                 6.4423
 IR Inten    --     21.1334                25.8588                16.9196

                     49                     50                     51
                      A                      A                      A
 Frequencies --   3186.1526              3199.5300              3786.3135
 Red. masses --      1.0896                 1.0985                 1.0654
 Frc consts  --      6.5171                 6.6255                 8.9991
 IR Inten    --     13.3278                19.0809                10.9913

 - Thermochemistry -
 -------------------
 Temperature   298.150 Kelvin.  Pressure   1.00000 Atm.
 Atom     1 has atomic number  6 and mass  12.00000

 Molecular mass:   126.06808 amu.
 Principal axes and moments of inertia in atomic units:
                           1         2         3
     Eigenvalues --   685.812251048.029571418.97000
           X            0.99433   0.10633   0.00293
           Y           -0.10635   0.99429   0.00831
           Z           -0.00203  -0.00858   0.99996
 This molecule is an asymmetric top.
 Rotational symmetry number  1.
 Warning -- assumption of classical behavior for rotation
           may cause significant error
 Rotational temperatures (Kelvin)      0.12629     0.08264     0.06104
 Rotational constants (GHZ):           2.63154     1.72203     1.27187
 Zero-point vibrational energy     420157.1 (Joules/Mol)
                                  100.41997 (Kcal/Mol)
 Warning -- explicit consideration of   9 degrees of freedom as
           vibrations may cause significant error
 Vibrational temperatures:    206.55   244.10   315.40   426.88   459.72
          (Kelvin)            546.27   556.33   731.00   774.74   912.97
                             1061.79  1080.02  1127.34  1216.79  1232.72
                             1290.24  1319.93  1347.35  1404.05  1444.35
                             1451.38  1505.31  1515.58  1527.50  1575.30
                             1608.09  1634.50  1656.20  1707.69  1753.81
                             1791.96  1835.57  1852.18  1895.43  1944.52
                             1989.12  2012.62  2031.71  2060.20  2136.90
                             2156.06  4254.62  4381.51  4428.61  4481.97
                             4491.56  4497.96  4554.86  4584.16  4603.40
                             5447.65

 Zero-point correction=                           0.160029 (Hartree/Particle)
 Thermal correction to Energy=                    0.167668
 Thermal correction to Enthalpy=                  0.168612
 Thermal correction to Gibbs Free Energy=         0.128270
 Sum of electronic and zero-point Energies=           -422.992584
 Sum of electronic and thermal Energies=              -422.984945
 Sum of electronic and thermal Enthalpies=            -422.984001
 Sum of electronic and thermal Free Energies=         -423.024343

                     E (Thermal)             CV                S
                      KCal/Mol        Cal/Mol-Kelvin    Cal/Mol-Kelvin
 Total                  105.213             30.876             84.907
 Electronic               0.000              0.000              0.000
 Translational            0.889              2.981             40.409
 Rotational               0.889              2.981             28.413
 Vibrational            103.436             24.915             16.086
 Vibration     1          0.616              1.910              2.756
 Vibration     2          0.625              1.880              2.439
 Vibration     3          0.647              1.812              1.966
 Vibration     4          0.690              1.680              1.435
 Vibration     5          0.705              1.636              1.313
 Vibration     6          0.750              1.513              1.040
 Vibration     7          0.755              1.499              1.013
 Vibration     8          0.863              1.232              0.638
 Vibration     9          0.894              1.165              0.569

 Optimization completed.
    -- Stationary point found.
 Normal termination of Gaussian 09 at Mon Jan 27 23:03:23 2020.
