 Gaussian 09, Revision D.01,
 Gaussian 09:  ES64L-G09RevD.01 24-Apr-2013

 -----------------------------
 # b3lyp 6-31G(2df,p) opt Freq
 -----------------------------

 -----
 titel
 -----
 Symbolic Z-matrix:
 Charge =  0 Multiplicity = 1

 SCF Done:  E(RB3LYP) =  -423.111868406     A.U. after   13 cycles
 Optimization completed.
    -- Stationary point found.
 Normal termination of Gaussian 09 at Mon Jan 27 18:42:10 2020.

 ----------------------------------------------------------------------
 #N Geom=AllCheck Guess=TCheck SCRF=Check GenChk RB3LYP/6-31G(2df,p) Fr
 eq
 ----------------------------------------------------------------------

 Structure from the checkpoint file:  "/scratch/puck/g09_7dadc1e0-adc4-46c0-8013-039c091a5272/Gau-83024.chk"
 -----
 titel
 -----
 Charge =  0 Multiplicity = 1

                         Standard orientation:
 ---------------------------------------------------------------------
 Center     Atomic      Atomic             Coordinates (Angstroms)
 Number     Number       Type             X           Y           Z
 ---------------------------------------------------------------------
      1          8           0       -0.854803    1.863106   -0.444479
      2          6           0       -0.995184    0.569350    0.014039
      3          6           0       -2.259238    0.013640    0.663743
      4          8           0       -2.070716   -1.263811   -0.009285
      5          6           0       -0.941252   -0.749734   -0.719495
      6          6           0        0.166682   -0.384423    0.241602
      7          6           0        1.486846    0.023712   -0.334675
      8          6           0        2.600459    0.495964    0.575242
      9          6           0        2.705973   -0.837517   -0.123268
     10          1           0       -0.214609    2.315057    0.116299
     11          1           0       -2.285079   -0.087748    1.755452
     12          1           0       -3.169696    0.509324    0.307428
     13          1           0       -0.804104   -1.032158   -1.756869
     14          1           0        0.217264   -0.939216    1.179055
     15          1           0        1.418545    0.527345   -1.294441
     16          1           0        3.236455    1.307258    0.238231
     17          1           0        2.415075    0.490255    1.644569
     18          1           0        3.412218   -0.936632   -0.939961
     19          1           0        2.592369   -1.733806    0.477229
 ---------------------------------------------------------------------

 SCF Done:  E(RB3LYP) =  -423.111868406     A.U. after    1 cycles

 The electronic state is 1-A.
 Alpha  occ. eigenvalues --  -19.15718 -19.13601 -10.24156 -10.23161 -10.22970
 Alpha  occ. eigenvalues --  -10.20002 -10.19600 -10.19006 -10.18851  -1.05766
 Alpha  occ. eigenvalues --   -1.03060  -0.86704  -0.81673  -0.69974  -0.63720
 Alpha  occ. eigenvalues --   -0.60394  -0.58075  -0.55699  -0.53154  -0.50198
 Alpha  occ. eigenvalues --   -0.47608  -0.45812  -0.44637  -0.42872  -0.40165
 Alpha  occ. eigenvalues --   -0.37264  -0.36690  -0.35912  -0.34852  -0.30668
 Alpha  occ. eigenvalues --   -0.30025  -0.28683  -0.25216  -0.22246
 Alpha virt. eigenvalues --    0.06789   0.07999   0.09466   0.10059   0.12232
 Alpha virt. eigenvalues --    0.12981   0.14145   0.14336   0.15304   0.16719
 Alpha virt. eigenvalues --    0.17992   0.19103   0.21333   0.21916   0.22560

 Mulliken charges:
               1
     1  O   -0.451711
     2  C    0.296984
     3  C   -0.143342
     4  O   -0.291231
     5  C    0.014083
     6  C   -0.119409
     7  C   -0.004001
     8  C   -0.278505
     9  C   -0.276194
    10  H    0.294428
    11  H    0.100097
    12  H    0.114720
    13  H    0.111013
    14  H    0.082154
    15  H    0.095009
    16  H    0.112600
    17  H    0.111553
    18  H    0.114816
    19  H    0.116937
 Sum of Mulliken charges =   0.00000

 Dipole moment (field-independent basis, Debye):
    X=              1.8247    Y=              1.2625    Z=              0.8840  Tot=              2.3885
 Quadrupole moment (field-independent basis, Debye-Ang):
   XX=            -54.9915   YY=            -54.8903   ZZ=            -50.8944
   XY=             -1.2320   XZ=             -2.3086   YZ=              2.4573

  Exact polarizability:  92.196  -0.814  69.979  -1.530   2.414  66.489
 Approx polarizability: 115.712   0.137 109.102   0.528   4.226 102.346

                      1                      2                      3
                      A                      A                      A
 Frequencies --     54.3581               135.3553               149.9597
 Red. masses --      2.9799                 2.9007                 3.0907
 Frc consts  --      0.0052                 0.0313                 0.0410
 IR Inten    --      3.6836                 0.2480                 0.3512

                      4                      5                      6
                      A                      A                      A
 Frequencies --    222.4864               282.0549               308.7695
 Red. masses --      1.6300                 2.3935                 2.8915
 Frc consts  --      0.0475                 0.1122                 0.1624
 IR Inten    --     75.4022                37.0931                 1.1946

                      7                      8                      9
                      A                      A                      A
 Frequencies --    363.9259               404.0620               428.2476
 Red. masses --      3.0145                 2.4281                 3.2590
 Frc consts  --      0.2352                 0.2336                 0.3522
 IR Inten    --      1.5436                 9.4985                 2.4730

                     10                     11                     12
                      A                      A                      A
 Frequencies --    493.8385               699.9058               733.1783
 Red. masses --      3.5336                 4.7328                 2.6552
 Frc consts  --      0.5077                 1.3660                 0.8409
 IR Inten    --      4.5719                 1.4764                 8.2165

                     13                     14                     15
                      A                      A                      A
 Frequencies --    779.0785               827.6843               868.4203
 Red. masses --      1.1170                 1.3663                 2.1139
 Frc consts  --      0.3995                 0.5515                 0.9393
 IR Inten    --      0.7033                 7.9834                 0.7372

                     16                     17                     18
                      A                      A                      A
 Frequencies --    888.6782               923.3123               941.7215
 Red. masses --      2.8509                 3.2836                 2.5781
 Frc consts  --      1.3265                 1.6493                 1.3471
 IR Inten    --      3.7576                10.2711                 9.4068

                     19                     20                     21
                      A                      A                      A
 Frequencies --    969.6903               989.5396              1016.5164
 Red. masses --      1.9939                 2.8980                 2.2846
 Frc consts  --      1.1047                 1.6719                 1.3909
 IR Inten    --     15.5857                53.6303                20.1521

                     22                     23                     24
                      A                      A                      A
 Frequencies --   1030.5516              1059.1965              1070.9906
 Red. masses --      2.3407                 1.3502                 2.4264
 Frc consts  --      1.4647                 0.8925                 1.6398
 IR Inten    --     11.0371                 2.3993                17.5697

                     25                     26                     27
                      A                      A                      A
 Frequencies --   1078.8353              1091.7507              1135.8405
 Red. masses --      1.3956                 1.5565                 1.1166
 Frc consts  --      0.9570                 1.0931                 0.8487
 IR Inten    --      4.8623                16.1984                 0.4341

                     28                     29                     30
                      A                      A                      A
 Frequencies --   1143.8679              1174.8692              1192.1395
 Red. masses --      1.1898                 2.4106                 1.7331
 Frc consts  --      0.9172                 1.9605                 1.4512
 IR Inten    --      3.8122                18.5208                 0.9726

                     31                     32                     33
                      A                      A                      A
 Frequencies --   1199.5231              1228.0630              1245.7720
 Red. masses --      1.3940                 1.8131                 1.5112
 Frc consts  --      1.1818                 1.6110                 1.3818
 IR Inten    --      0.3534                 0.2460                38.9753

                     34                     35                     36
                      A                      A                      A
 Frequencies --   1280.1137              1304.7603              1344.4051
 Red. masses --      1.5663                 1.6340                 1.5748
 Frc consts  --      1.5122                 1.6389                 1.6770
 IR Inten    --     97.2003                 0.9101                24.4067

                     37                     38                     39
                      A                      A                      A
 Frequencies --   1427.9545              1461.5062              1469.0350
 Red. masses --      2.0781                 2.4553                 1.0888
 Frc consts  --      2.4965                 3.0900                 1.3844
 IR Inten    --     15.6217                14.1093                 0.7071

                     40                     41                     42
                      A                      A                      A
 Frequencies --   1506.5462              1513.4567              3020.3658
 Red. masses --      1.3965                 1.1977                 1.0545
 Frc consts  --      1.8674                 1.6164                 5.6679
 IR Inten    --      1.3677                 4.4096                73.6068

                     43                     44                     45
                      A                      A                      A
 Frequencies --   3075.0714              3097.8399              3128.1616
 Red. masses --      1.1113                 1.0880                 1.0516
 Frc consts  --      6.1912                 6.1519                 6.0628
 IR Inten    --     34.0337                11.9786                18.4684

                     46                     47                     48
                      A                      A                      A
 Frequencies --   3135.1852              3151.4830              3183.9288
 Red. masses --      1.0571                 1.0883                 1.0940
 Frc consts  --      6.1219                 6.3684                 6.5340
 IR Inten    --     13.2616                 4.6435                13.1023

                     49                     50                     51
                      A                      A                      A
 Frequencies --   3207.9707              3224.1414              3796.1386
 Red. masses --      1.1180                 1.1155                 1.0664
 Frc consts  --      6.7787                 6.8322                 9.0544
 IR Inten    --      0.9844                19.2599                22.3888

 - Thermochemistry -
 -------------------
 Temperature   298.150 Kelvin.  Pressure   1.00000 Atm.
 Atom     1 has atomic number  8 and mass  15.99491

 Molecular mass:   126.06808 amu.
 Principal axes and moments of inertia in atomic units:
                           1         2         3
     Eigenvalues --   545.518061595.597961897.45912
           X            0.99994  -0.00926  -0.00618
           Y            0.00937   0.99980   0.01742
           Z            0.00602  -0.01748   0.99983
 This molecule is an asymmetric top.
 Rotational symmetry number  1.
 Warning -- assumption of classical behavior for rotation
           may cause significant error
 Rotational temperatures (Kelvin)      0.15877     0.05428     0.04565
 Rotational constants (GHZ):           3.30831     1.13108     0.95114
 Zero-point vibrational energy     415464.5 (Joules/Mol)
                                   99.29841 (Kcal/Mol)
 Warning -- explicit consideration of  10 degrees of freedom as
           vibrations may cause significant error
 Vibrational temperatures:     78.21   194.75   215.76   320.11   405.81
          (Kelvin)            444.25   523.61   581.35   616.15   710.52
                             1007.01  1054.88  1120.92  1190.85  1249.46
                             1278.61  1328.44  1354.93  1395.17  1423.72
                             1462.54  1482.73  1523.95  1540.91  1552.20
                             1570.78  1634.22  1645.77  1690.37  1715.22
                             1725.84  1766.91  1792.39  1841.80  1877.26
                             1934.30  2054.51  2102.78  2113.61  2167.58
                             2177.52  4345.63  4424.34  4457.10  4500.72
                             4510.83  4534.28  4580.96  4615.55  4638.81
                             5461.79

 Zero-point correction=                           0.158242 (Hartree/Particle)
 Thermal correction to Energy=                    0.166777
 Thermal correction to Enthalpy=                  0.167721
 Thermal correction to Gibbs Free Energy=         0.124697
 Sum of electronic and zero-point Energies=           -422.953626
 Sum of electronic and thermal Energies=              -422.945092
 Sum of electronic and thermal Enthalpies=            -422.944147
 Sum of electronic and thermal Free Energies=         -422.987172

                     E (Thermal)             CV                S
                      KCal/Mol        Cal/Mol-Kelvin    Cal/Mol-Kelvin
 Total                  104.654             32.525             90.552
 Electronic               0.000              0.000              0.000
 Translational            0.889              2.981             40.409
 Rotational               0.889              2.981             28.892
 Vibrational            102.877             26.563             21.251
 Vibration     1          0.596              1.976              4.652
 Vibration     2          0.613              1.918              2.869
 Vibration     3          0.618              1.903              2.673
 Vibration     4          0.648              1.807              1.939
 Vibration     5          0.681              1.707              1.521
 Vibration     6          0.698              1.657              1.369
 Vibration     7          0.737              1.547              1.105
 Vibration     8          0.769              1.461              0.948
 Vibration     9          0.790              1.409              0.864
 Vibration    10          0.849              1.264              0.674

 Optimization completed.
    -- Stationary point found.
 Normal termination of Gaussian 09 at Mon Jan 27 19:30:10 2020.
