 Gaussian 09, Revision D.01,
 Gaussian 09:  ES64L-G09RevD.01 24-Apr-2013

 -----------------------------
 # b3lyp 6-31G(2df,p) opt Freq
 -----------------------------

 -----
 titel
 -----
 Symbolic Z-matrix:
 Charge =  0 Multiplicity = 1

 SCF Done:  E(RB3LYP) =  -423.199274206     A.U. after   15 cycles
 SCF Done:  E(RB3LYP) =  -423.199274693     A.U. after    8 cycles
 SCF Done:  E(RB3LYP) =  -423.199275277     A.U. after    9 cycles
 SCF Done:  E(RB3LYP) =  -423.199275775     A.U. after    7 cycles
 SCF Done:  E(RB3LYP) =  -423.199276090     A.U. after   10 cycles
 SCF Done:  E(RB3LYP) =  -423.199277033     A.U. after   10 cycles
 SCF Done:  E(RB3LYP) =  -423.199277298     A.U. after    7 cycles
 SCF Done:  E(RB3LYP) =  -423.199277029     A.U. after   10 cycles
 SCF Done:  E(RB3LYP) =  -423.199277559     A.U. after    8 cycles
 Optimization completed.
    -- Stationary point found.
 Normal termination of Gaussian 09 at Tue Jan 28 12:43:26 2020.

 ----------------------------------------------------------------------
 #N Geom=AllCheck Guess=TCheck SCRF=Check GenChk RB3LYP/6-31G(2df,p) Fr
 eq
 ----------------------------------------------------------------------

 Structure from the checkpoint file:  "/scratch/puck/g09_de7f126f-7f0e-4d30-abf7-b2ce590937ee/Gau-1508.chk"
 -----
 titel
 -----
 Charge =  0 Multiplicity = 1

                         Standard orientation:
 ---------------------------------------------------------------------
 Center     Atomic      Atomic             Coordinates (Angstroms)
 Number     Number       Type             X           Y           Z
 ---------------------------------------------------------------------
      1          6           0        2.438658   -1.640492   -0.620640
      2          6           0        2.165985   -0.855528    0.653240
      3          8           0        0.866229   -0.225599    0.616523
      4          6           0        0.796129    0.964382    0.002898
      5          8           0        1.730468    1.536177   -0.499620
      6          6           0       -0.612322    1.557909    0.065168
      7          6           0       -1.713363    0.607667    0.010129
      8          6           0       -2.637957   -0.159695   -0.048397
      9          6           0       -3.749820   -1.096713   -0.115237
     10          1           0        3.391140   -2.172399   -0.529943
     11          1           0        1.648988   -2.375484   -0.800443
     12          1           0        2.500726   -0.968565   -1.479634
     13          1           0        2.123982   -1.511520    1.525724
     14          1           0        2.925433   -0.086376    0.812175
     15          1           0       -0.657122    2.136222    0.999321
     16          1           0       -0.671268    2.289187   -0.746573
     17          1           0       -3.411899   -2.124270    0.059059
     18          1           0       -4.510916   -0.866662    0.638551
     19          1           0       -4.236505   -1.069945   -1.096424
 ---------------------------------------------------------------------

 SCF Done:  E(RB3LYP) =  -423.199277559     A.U. after    1 cycles

 The electronic state is 1-A.
 Alpha  occ. eigenvalues --  -19.18118 -19.12429 -10.30817 -10.23988 -10.21718
 Alpha  occ. eigenvalues --  -10.20317 -10.18130 -10.17389 -10.17041  -1.10060
 Alpha  occ. eigenvalues --   -1.01345  -0.80129  -0.77001  -0.75034  -0.68041
 Alpha  occ. eigenvalues --   -0.64934  -0.55620  -0.51884  -0.48813  -0.48286
 Alpha  occ. eigenvalues --   -0.45640  -0.43887  -0.43518  -0.42793  -0.42388
 Alpha  occ. eigenvalues --   -0.42167  -0.39674  -0.37513  -0.36599  -0.33851
 Alpha  occ. eigenvalues --   -0.29931  -0.28281  -0.24975  -0.24419
 Alpha virt. eigenvalues --    0.01514   0.05703   0.06123   0.10521   0.11115
 Alpha virt. eigenvalues --    0.11450   0.13649   0.15042   0.15371   0.16747
 Alpha virt. eigenvalues --    0.17169   0.18545   0.18832   0.20253   0.20929

 Mulliken charges:
               1
     1  C   -0.385588
     2  C   -0.054126
     3  O   -0.226832
     4  C    0.454373
     5  O   -0.366355
     6  C   -0.475074
     7  C    0.092582
     8  C    0.056223
     9  C   -0.496448
    10  H    0.120513
    11  H    0.128633
    12  H    0.145744
    13  H    0.114767
    14  H    0.131669
    15  H    0.157161
    16  H    0.157776
    17  H    0.149214
    18  H    0.147935
    19  H    0.147832
 Sum of Mulliken charges =   0.00000

 Dipole moment (field-independent basis, Debye):
    X=             -0.9233    Y=             -1.6658    Z=              0.7712  Tot=              2.0547
 Quadrupole moment (field-independent basis, Debye-Ang):
   XX=            -48.2291   YY=            -51.3563   ZZ=            -52.8294
   XY=             -3.0394   XZ=              2.7137   YZ=              1.7120

  Exact polarizability: 100.527  10.671  82.183   0.437  -1.543  59.161
 Approx polarizability: 133.303  28.590 121.748  -2.210  -5.929  88.413

                      1                      2                      3
                      A                      A                      A
 Frequencies --     18.9800                21.0275                56.2274
 Red. masses --      3.2730                 1.0437                 3.7498
 Frc consts  --      0.0007                 0.0003                 0.0070
 IR Inten    --      0.8742                 0.0188                 1.0463

                      4                      5                      6
                      A                      A                      A
 Frequencies --     86.6381               118.9579               197.5915
 Red. masses --      3.0852                 3.8920                 2.6264
 Frc consts  --      0.0136                 0.0324                 0.0604
 IR Inten    --      0.4480                 1.5398                 6.9967

                      7                      8                      9
                      A                      A                      A
 Frequencies --    208.7862               247.7901               322.9594
 Red. masses --      1.4857                 2.1225                 2.7091
 Frc consts  --      0.0382                 0.0768                 0.1665
 IR Inten    --      3.1749                 4.7842                10.7099

                     10                     11                     12
                      A                      A                      A
 Frequencies --    358.7094               382.9894               435.2335
 Red. masses --      3.2420                 4.5101                 3.8462
 Frc consts  --      0.2458                 0.3898                 0.4293
 IR Inten    --      2.5044                 0.5595                 5.2630

                     13                     14                     15
                      A                      A                      A
 Frequencies --    456.2932               594.3576               696.7463
 Red. masses --      7.0846                 3.4608                 3.6363
 Frc consts  --      0.8691                 0.7203                 1.0401
 IR Inten    --      2.2963                 8.3516                 8.3064

                     16                     17                     18
                      A                      A                      A
 Frequencies --    778.8075               807.2115               869.5360
 Red. masses --      1.8208                 2.0367                 2.9567
 Frc consts  --      0.6507                 0.7819                 1.3171
 IR Inten    --      8.5571                 1.5022                 8.1232

                     19                     20                     21
                      A                      A                      A
 Frequencies --    923.3268               953.8343              1052.2293
 Red. masses --      2.7160                 2.3732                 2.6094
 Frc consts  --      1.3642                 1.2721                 1.7022
 IR Inten    --      6.1730                 2.9311                32.9246

                     22                     23                     24
                      A                      A                      A
 Frequencies --   1053.0445              1055.8424              1117.3896
 Red. masses --      1.4030                 1.7970                 2.0025
 Frc consts  --      0.9166                 1.1803                 1.4731
 IR Inten    --      0.7998                22.2826                24.6463

                     25                     26                     27
                      A                      A                      A
 Frequencies --   1172.2170              1195.1898              1210.2857
 Red. masses --      3.0719                 1.7405                 1.3558
 Frc consts  --      2.4870                 1.4649                 1.1701
 IR Inten    --      6.6794                 6.4742               100.7910

                     28                     29                     30
                      A                      A                      A
 Frequencies --   1274.8271              1323.7628              1333.0225
 Red. masses --      2.7928                 1.4866                 1.2401
 Frc consts  --      2.6742                 1.5348                 1.2983
 IR Inten    --    292.1869                23.3227                13.2556

                     31                     32                     33
                      A                      A                      A
 Frequencies --   1399.4345              1415.0608              1420.3064
 Red. masses --      1.2542                 1.2538                 1.3488
 Frc consts  --      1.4472                 1.4792                 1.6030
 IR Inten    --      9.0909                 5.5358                 6.8090

                     34                     35                     36
                      A                      A                      A
 Frequencies --   1449.2422              1478.1668              1478.9648
 Red. masses --      1.0927                 1.0396                 1.0398
 Frc consts  --      1.3522                 1.3383                 1.3400
 IR Inten    --      3.2563                 4.9777                 5.0483

                     37                     38                     39
                      A                      A                      A
 Frequencies --   1484.7216              1487.1829              1507.3463
 Red. masses --      1.0546                 1.0770                 1.0588
 Frc consts  --      1.3697                 1.4035                 1.4173
 IR Inten    --      8.9516                 6.2055                 5.7139

                     40                     41                     42
                      A                      A                      A
 Frequencies --   1815.7609              2381.7788              3015.7780
 Red. masses --     11.3673                11.8244                 1.0683
 Frc consts  --     22.0812                39.5214                 5.7243
 IR Inten    --    248.1129                 1.7526                12.7132

                     43                     44                     45
                      A                      A                      A
 Frequencies --   3027.0692              3046.5345              3070.3285
 Red. masses --      1.0348                 1.0355                 1.0577
 Frc consts  --      5.5865                 5.6623                 5.8749
 IR Inten    --     31.5260                13.7851                27.6500

                     46                     47                     48
                      A                      A                      A
 Frequencies --   3084.3463              3087.7249              3088.0998
 Red. masses --      1.0905                 1.1001                 1.1001
 Frc consts  --      6.1125                 6.1796                 6.1812
 IR Inten    --      4.4249                10.4603                10.2020

                     49                     50                     51
                      A                      A                      A
 Frequencies --   3113.7732              3121.0202              3141.9991
 Red. masses --      1.1034                 1.1022                 1.1057
 Frc consts  --      6.3029                 6.3259                 6.4314
 IR Inten    --     10.9185                16.7266                22.1967

 - Thermochemistry -
 -------------------
 Temperature   298.150 Kelvin.  Pressure   1.00000 Atm.
 Atom     1 has atomic number  6 and mass  12.00000

 Molecular mass:   126.06808 amu.
 Principal axes and moments of inertia in atomic units:
                           1         2         3
     Eigenvalues --   707.505722148.074712646.12807
           X            0.99994  -0.01073   0.00021
           Y            0.01073   0.99971   0.02174
           Z           -0.00044  -0.02174   0.99976
 This molecule is an asymmetric top.
 Rotational symmetry number  1.
 Warning -- assumption of classical behavior for rotation
           may cause significant error
 Rotational temperatures (Kelvin)      0.12242     0.04032     0.03273
 Rotational constants (GHZ):           2.55085     0.84017     0.68203
 Zero-point vibrational energy     409352.9 (Joules/Mol)
                                   97.83768 (Kcal/Mol)
 Warning -- explicit consideration of  14 degrees of freedom as
           vibrations may cause significant error
 Vibrational temperatures:     27.31    30.25    80.90   124.65   171.15
          (Kelvin)            284.29   300.40   356.51   464.67   516.10
                              551.04   626.20   656.50   855.15  1002.46
                             1120.53  1161.40  1251.07  1328.46  1372.35
                             1513.92  1515.09  1519.12  1607.67  1686.56
                             1719.61  1741.33  1834.19  1904.60  1917.92
                             2013.47  2035.95  2043.50  2085.13  2126.75
                             2127.90  2136.18  2139.72  2168.73  2612.47
                             3426.84  4339.03  4355.27  4383.28  4417.51
                             4437.68  4442.54  4443.08  4480.02  4490.45
                             4520.63

 Zero-point correction=                           0.155914 (Hartree/Particle)
 Thermal correction to Energy=                    0.166878
 Thermal correction to Enthalpy=                  0.167822
 Thermal correction to Gibbs Free Energy=         0.116443
 Sum of electronic and zero-point Energies=           -423.043363
 Sum of electronic and thermal Energies=              -423.032400
 Sum of electronic and thermal Enthalpies=            -423.031456
 Sum of electronic and thermal Free Energies=         -423.082835

                     E (Thermal)             CV                S
                      KCal/Mol        Cal/Mol-Kelvin    Cal/Mol-Kelvin
 Total                  104.717             36.424            108.136
 Electronic               0.000              0.000              0.000
 Translational            0.889              2.981             40.409
 Rotational               0.889              2.981             29.776
 Vibrational            102.940             30.462             37.951
 Vibration     1          0.593              1.986              6.738
 Vibration     2          0.593              1.986              6.535
 Vibration     3          0.596              1.975              4.585
 Vibration     4          0.601              1.959              3.735
 Vibration     5          0.609              1.934              3.117
 Vibration     6          0.637              1.843              2.155
 Vibration     7          0.642              1.827              2.054
 Vibration     8          0.661              1.766              1.746
 Vibration     9          0.708              1.629              1.295
 Vibration    10          0.734              1.557              1.128
 Vibration    11          0.752              1.506              1.027
 Vibration    12          0.796              1.393              0.842
 Vibration    13          0.815              1.347              0.777
 Vibration    14          0.952              1.044              0.459

 Normal termination of Gaussian 09 at Tue Jan 28 13:18:59 2020.
