 Gaussian 09, Revision D.01,
 Gaussian 09:  ES64L-G09RevD.01 24-Apr-2013

 -----------------------------
 # b3lyp 6-31G(2df,p) opt Freq
 -----------------------------

 -----
 titel
 -----
 Symbolic Z-matrix:
 Charge =  0 Multiplicity = 1

 SCF Done:  E(RB3LYP) =  -423.164253367     A.U. after   13 cycles
 Optimization completed.
    -- Stationary point found.
 Normal termination of Gaussian 09 at Mon Jan 27 23:10:17 2020.

 ----------------------------------------------------------------------
 #N Geom=AllCheck Guess=TCheck SCRF=Check GenChk RB3LYP/6-31G(2df,p) Fr
 eq
 ----------------------------------------------------------------------

 Structure from the checkpoint file:  "/scratch/puck/g09_893a7b8e-f107-4cc7-8395-22729a2b1b5a/Gau-79794.chk"
 -----
 titel
 -----
 Charge =  0 Multiplicity = 1

                         Standard orientation:
 ---------------------------------------------------------------------
 Center     Atomic      Atomic             Coordinates (Angstroms)
 Number     Number       Type             X           Y           Z
 ---------------------------------------------------------------------
      1          6           0       -2.439026   -0.000002    0.596174
      2          6           0       -1.235579   -0.000003   -0.362575
      3          6           0       -0.426010   -1.271549   -0.169596
      4          8           0        0.742045   -1.462073   -0.968003
      5          6           0        0.913079   -1.274362    0.438769
      6          6           0        1.588903    0.000003    0.895843
      7          6           0        0.913074    1.274365    0.438769
      8          8           0        0.742040    1.462076   -0.968003
      9          6           0       -0.426013    1.271546   -0.169598
     10          1           0       -3.064284   -0.883923    0.439437
     11          1           0       -2.113210    0.000009    1.642198
     12          1           0       -3.064294    0.883909    0.439420
     13          1           0       -1.614585   -0.000005   -1.394388
     14          1           0       -1.036160   -2.171576   -0.065816
     15          1           0        1.237276   -2.173247    0.966149
     16          1           0        1.616808    0.000003    1.993805
     17          1           0        2.634101    0.000005    0.560190
     18          1           0        1.237267    2.173250    0.966150
     19          1           0       -1.036169    2.171570   -0.065818
 ---------------------------------------------------------------------

 SCF Done:  E(RB3LYP) =  -423.164253367     A.U. after    1 cycles

 The electronic state is 1-A.
 Alpha  occ. eigenvalues --  -19.14335 -19.14335 -10.23745 -10.23745 -10.23532
 Alpha  occ. eigenvalues --  -10.23532 -10.19988 -10.19517 -10.18792  -1.07393
 Alpha  occ. eigenvalues --   -1.06090  -0.80211  -0.77245  -0.67216  -0.66290
 Alpha  occ. eigenvalues --   -0.63062  -0.60727  -0.53370  -0.51931  -0.49166
 Alpha  occ. eigenvalues --   -0.45832  -0.45387  -0.44336  -0.41322  -0.41302
 Alpha  occ. eigenvalues --   -0.39973  -0.37602  -0.36569  -0.34061  -0.33689
 Alpha  occ. eigenvalues --   -0.31013  -0.28323  -0.27412  -0.24420
 Alpha virt. eigenvalues --    0.08188   0.09330   0.09697   0.10733   0.12329
 Alpha virt. eigenvalues --    0.12807   0.13242   0.14796   0.16137   0.17259
 Alpha virt. eigenvalues --    0.17521   0.18584   0.18869   0.19187   0.20655

 Mulliken charges:
               1
     1  C   -0.406041
     2  C   -0.064429
     3  C    0.059096
     4  O   -0.255388
     5  C    0.048455
     6  C   -0.278705
     7  C    0.048455
     8  O   -0.255388
     9  C    0.059097
    10  H    0.122419
    11  H    0.121032
    12  H    0.122419
    13  H    0.101180
    14  H    0.084088
    15  H    0.087920
    16  H    0.107700
    17  H    0.126081
    18  H    0.087920
    19  H    0.084088
 Sum of Mulliken charges =   0.00000

 Dipole moment (field-independent basis, Debye):
    X=             -1.4417    Y=              0.0000    Z=              2.9970  Tot=              3.3258
 Quadrupole moment (field-independent basis, Debye-Ang):
   XX=            -50.0857   YY=            -53.3386   ZZ=            -55.6795
   XY=              0.0000   XZ=              4.5469   YZ=              0.0000

  Exact polarizability:  84.805   0.000  72.673   6.094   0.000  64.005
 Approx polarizability: 118.286   0.000  98.850   5.811   0.000 107.087

                      1                      2                      3
                      A                      A                      A
 Frequencies --     96.7250               203.6810               219.1746
 Red. masses --      2.9426                 1.1579                 4.2372
 Frc consts  --      0.0162                 0.0283                 0.1199
 IR Inten    --      1.2409                 0.2361                 0.6254

                      4                      5                      6
                      A                      A                      A
 Frequencies --    264.7998               330.3898               338.2748
 Red. masses --      2.2369                 3.6240                 2.3148
 Frc consts  --      0.0924                 0.2331                 0.1561
 IR Inten    --      0.2168                 1.4363                 3.0094

                      7                      8                      9
                      A                      A                      A
 Frequencies --    411.0095               497.1541               505.7629
 Red. masses --      7.7358                 4.0282                 5.5659
 Frc consts  --      0.7699                 0.5866                 0.8388
 IR Inten    --     14.9581                 8.2553                 0.1424

                     10                     11                     12
                      A                      A                      A
 Frequencies --    570.1094               748.3504               762.8831
 Red. masses --      3.3297                 4.1474                 2.7119
 Frc consts  --      0.6376                 1.3685                 0.9299
 IR Inten    --      0.4846                 5.5861                16.8230

                     13                     14                     15
                      A                      A                      A
 Frequencies --    820.1924               834.5800               875.5844
 Red. masses --      2.3761                 4.8254                 2.2906
 Frc consts  --      0.9418                 1.9803                 1.0346
 IR Inten    --      4.0277                 0.7568                32.7499

                     16                     17                     18
                      A                      A                      A
 Frequencies --    900.5862               945.1721               955.1161
 Red. masses --      3.8786                 4.2430                 2.0847
 Frc consts  --      1.8534                 2.2333                 1.1205
 IR Inten    --      2.2212                22.0067                 0.4398

                     19                     20                     21
                      A                      A                      A
 Frequencies --   1000.7654              1030.1253              1038.9197
 Red. masses --      1.7382                 1.9233                 2.1673
 Frc consts  --      1.0257                 1.2024                 1.3783
 IR Inten    --      8.2638                 1.0660                10.5243

                     22                     23                     24
                      A                      A                      A
 Frequencies --   1063.4817              1088.4860              1107.5683
 Red. masses --      1.1854                 2.2133                 1.2331
 Frc consts  --      0.7899                 1.5450                 0.8912
 IR Inten    --      2.2559                 0.4241                 0.1637

                     25                     26                     27
                      A                      A                      A
 Frequencies --   1142.7770              1169.1852              1197.0075
 Red. masses --      2.1519                 1.3694                 1.5328
 Frc consts  --      1.6558                 1.1029                 1.2940
 IR Inten    --     12.8579                 2.1425                 0.0665

                     28                     29                     30
                      A                      A                      A
 Frequencies --   1256.8654              1289.7689              1307.5704
 Red. masses --      1.2076                 1.3034                 1.2062
 Frc consts  --      1.1239                 1.2775                 1.2151
 IR Inten    --      0.0892                 5.4431                 3.8259

                     31                     32                     33
                      A                      A                      A
 Frequencies --   1319.4585              1352.2047              1362.7936
 Red. masses --      1.3518                 1.4378                 1.9150
 Frc consts  --      1.3866                 1.5489                 2.0954
 IR Inten    --      4.8043                 0.1301                 2.1011

                     34                     35                     36
                      A                      A                      A
 Frequencies --   1380.1422              1401.9986              1423.7581
 Red. masses --      2.0887                 1.2782                 1.3082
 Frc consts  --      2.3441                 1.4803                 1.5624
 IR Inten    --      4.4310                 1.4157                 6.7467

                     37                     38                     39
                      A                      A                      A
 Frequencies --   1462.7028              1463.1848              1496.8674
 Red. masses --      1.1146                 2.6376                 1.0980
 Frc consts  --      1.4050                 3.3271                 1.4494
 IR Inten    --      5.4662                10.4829                 9.3977

                     40                     41                     42
                      A                      A                      A
 Frequencies --   1501.2031              1513.4993              3010.4961
 Red. masses --      1.0630                 2.7609                 1.0821
 Frc consts  --      1.4115                 3.7262                 5.7783
 IR Inten    --      3.3586                14.8726                17.8169

                     43                     44                     45
                      A                      A                      A
 Frequencies --   3019.3997              3034.8293              3054.4179
 Red. masses --      1.0597                 1.0356                 1.1009
 Frc consts  --      5.6923                 5.6197                 6.0513
 IR Inten    --     19.7414                18.4219                14.9002

                     46                     47                     48
                      A                      A                      A
 Frequencies --   3075.8449              3079.2149              3092.2092
 Red. masses --      1.0847                 1.0855                 1.0895
 Frc consts  --      6.0461                 6.0640                 6.1377
 IR Inten    --     11.4867                41.7486                81.9947

                     49                     50                     51
                      A                      A                      A
 Frequencies --   3096.3093              3103.9262              3112.0755
 Red. masses --      1.0914                 1.1007                 1.1017
 Frc consts  --      6.1647                 6.2479                 6.2867
 IR Inten    --     30.5513                25.3015                31.4852

 - Thermochemistry -
 -------------------
 Temperature   298.150 Kelvin.  Pressure   1.00000 Atm.
 Atom     1 has atomic number  6 and mass  12.00000

 Molecular mass:   126.06808 amu.
 Principal axes and moments of inertia in atomic units:
                           1         2         3
     Eigenvalues --   815.99579 944.569051319.61992
           X            0.99976   0.00000   0.02170
           Y            0.00000   1.00000   0.00000
           Z           -0.02170   0.00000   0.99976
 This molecule is an asymmetric top.
 Rotational symmetry number  1.
 Warning -- assumption of classical behavior for rotation
           may cause significant error
 Rotational temperatures (Kelvin)      0.10614     0.09170     0.06564
 Rotational constants (GHZ):           2.21170     1.91065     1.36762
 Zero-point vibrational energy     420658.5 (Joules/Mol)
                                  100.53978 (Kcal/Mol)
 Warning -- explicit consideration of  10 degrees of freedom as
           vibrations may cause significant error
 Vibrational temperatures:    139.17   293.05   315.34   380.99   475.36
          (Kelvin)            486.70   591.35   715.29   727.68   820.26
                             1076.71  1097.62  1180.07  1200.77  1259.77
                             1295.74  1359.89  1374.20  1439.88  1482.12
                             1494.77  1530.11  1566.09  1593.54  1644.20
                             1682.19  1722.22  1808.35  1855.69  1881.30
                             1898.40  1945.52  1960.75  1985.71  2017.16
                             2048.47  2104.50  2105.19  2153.66  2159.89
                             2177.59  4331.43  4344.24  4366.44  4394.62
                             4425.45  4430.30  4448.99  4454.89  4465.85
                             4477.58

 Zero-point correction=                           0.160220 (Hartree/Particle)
 Thermal correction to Energy=                    0.167904
 Thermal correction to Enthalpy=                  0.168848
 Thermal correction to Gibbs Free Energy=         0.128223
 Sum of electronic and zero-point Energies=           -423.004033
 Sum of electronic and thermal Energies=              -422.996349
 Sum of electronic and thermal Enthalpies=            -422.995405
 Sum of electronic and thermal Free Energies=         -423.036030

                     E (Thermal)             CV                S
                      KCal/Mol        Cal/Mol-Kelvin    Cal/Mol-Kelvin
 Total                  105.361             30.291             85.503
 Electronic               0.000              0.000              0.000
 Translational            0.889              2.981             40.409
 Rotational               0.889              2.981             28.410
 Vibrational            103.584             24.329             16.684
 Vibration     1          0.603              1.952              3.519
 Vibration     2          0.639              1.835              2.100
 Vibration     3          0.647              1.812              1.966
 Vibration     4          0.671              1.738              1.630
 Vibration     5          0.713              1.615              1.258
 Vibration     6          0.719              1.599              1.220
 Vibration     7          0.775              1.446              0.923
 Vibration     8          0.853              1.256              0.665
 Vibration     9          0.861              1.237              0.644
 Vibration    10          0.926              1.096              0.504

 Optimization completed.
    -- Stationary point found.
 Normal termination of Gaussian 09 at Mon Jan 27 23:56:50 2020.
