 Gaussian 09, Revision D.01,
 Gaussian 09:  ES64L-G09RevD.01 24-Apr-2013

 -----------------------------
 # b3lyp 6-31G(2df,p) opt Freq
 -----------------------------

 -----
 titel
 -----
 Symbolic Z-matrix:
 Charge =  0 Multiplicity = 1

 SCF Done:  E(RB3LYP) =  -423.148140461     A.U. after   14 cycles
 Optimization completed.
    -- Stationary point found.
 Normal termination of Gaussian 09 at Mon Jan 27 13:11:07 2020.

 ----------------------------------------------------------------------
 #N Geom=AllCheck Guess=TCheck SCRF=Check GenChk RB3LYP/6-31G(2df,p) Fr
 eq
 ----------------------------------------------------------------------

 Structure from the checkpoint file:  "/scratch/puck/g09_ae59351c-c9ac-4467-acc3-f4829a5ea2d0/Gau-74606.chk"
 -----
 titel
 -----
 Charge =  0 Multiplicity = 1

                         Standard orientation:
 ---------------------------------------------------------------------
 Center     Atomic      Atomic             Coordinates (Angstroms)
 Number     Number       Type             X           Y           Z
 ---------------------------------------------------------------------
      1          8           0       -0.156010    2.304795    0.115052
      2          6           0       -0.060199    1.321150   -0.572692
      3          6           0       -0.291993   -0.097775   -0.094354
      4          6           0       -1.397575   -0.805325   -0.930323
      5          8           0       -2.325776   -0.732866    0.163233
      6          6           0       -1.320873   -0.204075    1.056184
      7          6           0        1.005345   -0.858737    0.093708
      8          6           0        2.286978   -0.539864   -0.643485
      9          6           0        2.173367   -0.250590    0.831755
     10          1           0        0.208517    1.401733   -1.650930
     11          1           0       -1.757518   -0.270261   -1.819542
     12          1           0       -1.157664   -1.839509   -1.211527
     13          1           0       -1.618659    0.744938    1.511470
     14          1           0       -1.047523   -0.922522    1.838712
     15          1           0        0.832272   -1.915345    0.283323
     16          1           0        2.901878   -1.374772   -0.960006
     17          1           0        2.312338    0.301917   -1.326107
     18          1           0        2.719226   -0.877668    1.527217
     19          1           0        2.091133    0.787356    1.136356
 ---------------------------------------------------------------------

 SCF Done:  E(RB3LYP) =  -423.148140461     A.U. after    1 cycles

 The electronic state is 1-A.
 Alpha  occ. eigenvalues --  -19.15265 -19.13797 -10.28000 -10.24109 -10.23165
 Alpha  occ. eigenvalues --  -10.21423 -10.21125 -10.19981 -10.19640  -1.06029
 Alpha  occ. eigenvalues --   -1.04286  -0.87445  -0.77570  -0.69972  -0.63417
 Alpha  occ. eigenvalues --   -0.61204  -0.61107  -0.54341  -0.51507  -0.51203
 Alpha  occ. eigenvalues --   -0.48019  -0.46731  -0.44506  -0.43632  -0.40848
 Alpha  occ. eigenvalues --   -0.39628  -0.38093  -0.37589  -0.35571  -0.33032
 Alpha  occ. eigenvalues --   -0.29708  -0.28922  -0.26101  -0.25429
 Alpha virt. eigenvalues --   -0.03608   0.07377   0.07901   0.10108   0.10906
 Alpha virt. eigenvalues --    0.11746   0.12337   0.13772   0.15520   0.15970
 Alpha virt. eigenvalues --    0.17420   0.17962   0.19241   0.21022   0.22257

 Mulliken charges:
               1
     1  O   -0.251151
     2  C    0.086196
     3  C    0.190660
     4  C   -0.125290
     5  O   -0.269708
     6  C   -0.115074
     7  C   -0.065243
     8  C   -0.286191
     9  C   -0.272293
    10  H    0.088230
    11  H    0.104607
    12  H    0.101662
    13  H    0.127493
    14  H    0.098916
    15  H    0.094215
    16  H    0.119570
    17  H    0.119200
    18  H    0.118807
    19  H    0.135396
 Sum of Mulliken charges =   0.00000

 Dipole moment (field-independent basis, Debye):
    X=              2.0428    Y=             -1.8250    Z=             -1.0156  Tot=              2.9216
 Quadrupole moment (field-independent basis, Debye-Ang):
   XX=            -58.0808   YY=            -58.0971   ZZ=            -50.1292
   XY=             -2.3310   XZ=              0.9588   YZ=             -1.3611

  Exact polarizability:  77.252  -0.574  73.492  -0.555   2.136  74.586
 Approx polarizability: 103.910   1.088 112.956  -1.739   8.077 113.110

                      1                      2                      3
                      A                      A                      A
 Frequencies --     42.3299                60.4920                74.2842
 Red. masses --      4.3605                 3.5845                 4.0308
 Frc consts  --      0.0046                 0.0077                 0.0131
 IR Inten    --      3.9432                 2.8283                 2.0984

                      4                      5                      6
                      A                      A                      A
 Frequencies --    196.6459               244.2594               261.2402
 Red. masses --      2.4284                 3.0390                 2.5970
 Frc consts  --      0.0553                 0.1068                 0.1044
 IR Inten    --      0.7515                 4.5930                 4.2727

                      7                      8                      9
                      A                      A                      A
 Frequencies --    349.1587               361.1408               444.7831
 Red. masses --      2.5836                 2.9090                 2.6468
 Frc consts  --      0.1856                 0.2235                 0.3085
 IR Inten    --      1.1049                 1.0844                 3.6411

                     10                     11                     12
                      A                      A                      A
 Frequencies --    536.7215               691.0750               785.4146
 Red. masses --      3.6390                 2.9516                 1.1297
 Frc consts  --      0.6176                 0.8305                 0.4106
 IR Inten    --      0.3612                10.8456                 2.9844

                     13                     14                     15
                      A                      A                      A
 Frequencies --    831.7832               842.0418               863.9765
 Red. masses --      1.2412                 2.7129                 2.5918
 Frc consts  --      0.5059                 1.1333                 1.1399
 IR Inten    --      6.1822                 4.6076                11.5473

                     16                     17                     18
                      A                      A                      A
 Frequencies --    915.7289               928.0443               963.7384
 Red. masses --      3.4569                 2.3379                 2.4776
 Frc consts  --      1.7080                 1.1863                 1.3558
 IR Inten    --      1.0464                31.5243                 0.4620

                     19                     20                     21
                      A                      A                      A
 Frequencies --    991.7831              1006.5413              1038.7803
 Red. masses --      1.7071                 2.3919                10.1291
 Frc consts  --      0.9893                 1.4278                 6.4397
 IR Inten    --      6.5895                 7.0722                71.7160

                     22                     23                     24
                      A                      A                      A
 Frequencies --   1062.3224              1076.2910              1085.7153
 Red. masses --      1.3311                 2.0029                 1.3873
 Frc consts  --      0.8851                 1.3670                 0.9635
 IR Inten    --      4.7397                 1.9004                 1.6181

                     25                     26                     27
                      A                      A                      A
 Frequencies --   1111.9563              1142.3623              1157.0938
 Red. masses --      2.5019                 1.0996                 1.1242
 Frc consts  --      1.8227                 0.8454                 0.8868
 IR Inten    --     12.3407                 0.8998                 1.5216

                     28                     29                     30
                      A                      A                      A
 Frequencies --   1157.8835              1173.0429              1199.3809
 Red. masses --      1.2184                 3.8267                 1.4021
 Frc consts  --      0.9624                 3.1025                 1.1883
 IR Inten    --      3.4606                 8.5512                 1.1259

                     31                     32                     33
                      A                      A                      A
 Frequencies --   1235.0209              1299.5903              1301.7805
 Red. masses --      1.9898                 2.6569                 1.2883
 Frc consts  --      1.7881                 2.6439                 1.2863
 IR Inten    --      3.9529                 7.8749                 1.1608

                     34                     35                     36
                      A                      A                      A
 Frequencies --   1366.5865              1397.8984              1420.5421
 Red. masses --      1.4303                 1.6544                 1.2411
 Frc consts  --      1.5738                 1.9048                 1.4755
 IR Inten    --      6.0280                 1.4204                 5.0469

                     37                     38                     39
                      A                      A                      A
 Frequencies --   1474.2933              1508.4344              1510.7887
 Red. masses --      1.0859                 1.3255                 1.0794
 Frc consts  --      1.3907                 1.7770                 1.4515
 IR Inten    --      3.0732                 2.1401                 0.1001

                     40                     41                     42
                      A                      A                      A
 Frequencies --   1535.7784              1822.9214              2866.8741
 Red. masses --      1.1067                10.8261                 1.0822
 Frc consts  --      1.5380                21.1962                 5.2403
 IR Inten    --      2.0115               139.9090                86.0551

                     43                     44                     45
                      A                      A                      A
 Frequencies --   2997.6568              3024.8872              3041.1046
 Red. masses --      1.0536                 1.0618                 1.1108
 Frc consts  --      5.5782                 5.7240                 6.0526
 IR Inten    --     78.8088                31.4023                42.1466

                     46                     47                     48
                      A                      A                      A
 Frequencies --   3091.2342              3130.5890              3137.7411
 Red. masses --      1.1048                 1.0853                 1.0512
 Frc consts  --      6.2203                 6.2666                 6.0979
 IR Inten    --     20.0834                13.5113                13.0579

                     49                     50                     51
                      A                      A                      A
 Frequencies --   3141.6543              3215.4211              3229.0784
 Red. masses --      1.0612                 1.1178                 1.1155
 Frc consts  --      6.1714                 6.8091                 6.8531
 IR Inten    --      6.0956                 0.9961                12.7875

 - Thermochemistry -
 -------------------
 Temperature   298.150 Kelvin.  Pressure   1.00000 Atm.
 Atom     1 has atomic number  8 and mass  15.99491

 Molecular mass:   126.06808 amu.
 Principal axes and moments of inertia in atomic units:
                           1         2         3
     Eigenvalues --   754.629971285.492911600.67484
           X            0.99978  -0.02089   0.00324
           Y            0.02090   0.99978  -0.00249
           Z           -0.00319   0.00256   0.99999
 This molecule is an asymmetric top.
 Rotational symmetry number  1.
 Warning -- assumption of classical behavior for rotation
           may cause significant error
 Rotational temperatures (Kelvin)      0.11478     0.06738     0.05411
 Rotational constants (GHZ):           2.39156     1.40393     1.12749
 Zero-point vibrational energy     414780.5 (Joules/Mol)
                                   99.13492 (Kcal/Mol)
 Warning -- explicit consideration of  10 degrees of freedom as
           vibrations may cause significant error
 Vibrational temperatures:     60.90    87.03   106.88   282.93   351.43
          (Kelvin)            375.87   502.36   519.60   639.94   772.22
                              994.30  1130.03  1196.75  1211.51  1243.07
                             1317.53  1335.25  1386.60  1426.95  1448.19
                             1494.57  1528.44  1548.54  1562.10  1599.86
                             1643.60  1664.80  1665.93  1687.74  1725.64
                             1776.92  1869.82  1872.97  1966.21  2011.26
                             2043.84  2121.18  2170.30  2173.69  2209.64
                             2622.77  4124.79  4312.95  4352.13  4375.47
                             4447.59  4504.21  4514.50  4520.13  4626.27
                             4645.92

 Zero-point correction=                           0.157982 (Hartree/Particle)
 Thermal correction to Energy=                    0.166901
 Thermal correction to Enthalpy=                  0.167845
 Thermal correction to Gibbs Free Energy=         0.122939
 Sum of electronic and zero-point Energies=           -422.990159
 Sum of electronic and thermal Energies=              -422.981240
 Sum of electronic and thermal Enthalpies=            -422.980296
 Sum of electronic and thermal Free Energies=         -423.025202

                     E (Thermal)             CV                S
                      KCal/Mol        Cal/Mol-Kelvin    Cal/Mol-Kelvin
 Total                  104.732             32.062             94.513
 Electronic               0.000              0.000              0.000
 Translational            0.889              2.981             40.409
 Rotational               0.889              2.981             28.831
 Vibrational            102.954             26.100             25.273
 Vibration     1          0.595              1.980              5.147
 Vibration     2          0.597              1.973              4.441
 Vibration     3          0.599              1.966              4.037
 Vibration     4          0.636              1.845              2.164
 Vibration     5          0.660              1.772              1.772
 Vibration     6          0.669              1.744              1.653
 Vibration     7          0.726              1.577              1.170
 Vibration     8          0.735              1.552              1.117
 Vibration     9          0.804              1.372              0.812
 Vibration    10          0.892              1.169              0.572

 Normal termination of Gaussian 09 at Mon Jan 27 13:54:37 2020.
