 Gaussian 09, Revision D.01,
 Gaussian 09:  ES64L-G09RevD.01 24-Apr-2013

 -----------------------------
 # b3lyp 6-31G(2df,p) opt Freq
 -----------------------------

 -----
 titel
 -----
 Symbolic Z-matrix:
 Charge =  0 Multiplicity = 1

 SCF Done:  E(RB3LYP) =  -423.138041198     A.U. after   13 cycles
 Optimization completed.
    -- Stationary point found.
 Normal termination of Gaussian 09 at Mon Jan 27 12:18:12 2020.

 ----------------------------------------------------------------------
 #N Geom=AllCheck Guess=TCheck SCRF=Check GenChk RB3LYP/6-31G(2df,p) Fr
 eq
 ----------------------------------------------------------------------

 Structure from the checkpoint file:  "/scratch/puck/g09_a4dd6e9f-d08c-40f8-b801-ae5d7035ee86/Gau-153443.chk"
 -----
 titel
 -----
 Charge =  0 Multiplicity = 1

                         Standard orientation:
 ---------------------------------------------------------------------
 Center     Atomic      Atomic             Coordinates (Angstroms)
 Number     Number       Type             X           Y           Z
 ---------------------------------------------------------------------
      1          6           0       -1.851865    0.499391   -0.720382
      2          6           0       -1.906120   -0.626655    0.392682
      3          6           0       -0.370623   -0.477217    0.440043
      4          6           0        0.113922    0.763783    1.228391
      5          8           0        0.993547    1.434095    0.299708
      6          6           0        1.038261    0.573087   -0.834623
      7          6           0        1.695865   -0.778058   -0.361674
      8          8           0        0.689103   -1.427042    0.486806
      9          6           0       -0.382600    0.033390   -0.987667
     10          1           0       -2.541977    0.388098   -1.557028
     11          1           0       -1.944195    1.506473   -0.313088
     12          1           0       -2.472195   -0.435394    1.307043
     13          1           0       -2.215882   -1.581858   -0.036942
     14          1           0       -0.678292    1.454372    1.535738
     15          1           0        0.668451    0.438941    2.115438
     16          1           0        1.566449    1.074762   -1.645725
     17          1           0        1.954153   -1.448184   -1.190014
     18          1           0        2.591019   -0.567089    0.230693
     19          1           0       -0.409766   -0.812876   -1.678855
 ---------------------------------------------------------------------

 SCF Done:  E(RB3LYP) =  -423.138041198     A.U. after    1 cycles

 The electronic state is 1-A.
 Alpha  occ. eigenvalues --  -19.13778 -19.13652 -10.24118 -10.23269 -10.22845
 Alpha  occ. eigenvalues --  -10.22190 -10.19961 -10.19807 -10.18341  -1.05779
 Alpha  occ. eigenvalues --   -1.00649  -0.85126  -0.76140  -0.69140  -0.66351
 Alpha  occ. eigenvalues --   -0.64239  -0.57832  -0.54456  -0.50836  -0.50692
 Alpha  occ. eigenvalues --   -0.46928  -0.43382  -0.42239  -0.41571  -0.40769
 Alpha  occ. eigenvalues --   -0.38764  -0.37020  -0.35163  -0.34269  -0.33371
 Alpha  occ. eigenvalues --   -0.32149  -0.29342  -0.24290  -0.23757
 Alpha virt. eigenvalues --    0.06707   0.09172   0.10785   0.11673   0.11871
 Alpha virt. eigenvalues --    0.14284   0.14831   0.15101   0.15846   0.17452
 Alpha virt. eigenvalues --    0.18249   0.18711   0.19195   0.20273   0.20760

 Mulliken charges:
               1
     1  C   -0.301986
     2  C   -0.328445
     3  C    0.398844
     4  C   -0.120470
     5  O   -0.275178
     6  C   -0.001390
     7  C   -0.099403
     8  O   -0.348372
     9  C    0.018067
    10  H    0.108487
    11  H    0.126064
    12  H    0.104391
    13  H    0.119530
    14  H    0.098178
    15  H    0.108407
    16  H    0.082891
    17  H    0.104691
    18  H    0.115913
    19  H    0.089781
 Sum of Mulliken charges =   0.00000

 Dipole moment (field-independent basis, Debye):
    X=             -1.0304    Y=             -0.0449    Z=             -1.0155  Tot=              1.4475
 Quadrupole moment (field-independent basis, Debye-Ang):
   XX=            -50.4485   YY=            -58.5839   ZZ=            -50.7578
   XY=             -1.0631   XZ=             -2.0999   YZ=              1.7031

  Exact polarizability:  84.771  -1.682  65.614  -2.722   2.352  70.980
 Approx polarizability: 115.561  -1.166 102.846  -4.024   1.944 107.740

                      1                      2                      3
                      A                      A                      A
 Frequencies --    193.6860               299.4791               317.7563
 Red. masses --      3.0909                 2.3391                 2.6745
 Frc consts  --      0.0683                 0.1236                 0.1591
 IR Inten    --      4.3384                 1.6291                 2.7721

                      4                      5                      6
                      A                      A                      A
 Frequencies --    353.8137               418.9751               485.8821
 Red. masses --      2.3924                 3.1080                 2.8868
 Frc consts  --      0.1765                 0.3214                 0.4015
 IR Inten    --      1.4474                 5.1705                 2.4751

                      7                      8                      9
                      A                      A                      A
 Frequencies --    588.4199               624.3298               654.8081
 Red. masses --      3.9317                 4.7329                 2.7955
 Frc consts  --      0.8021                 1.0869                 0.7062
 IR Inten    --      4.3565                 3.8885                 4.5718

                     10                     11                     12
                      A                      A                      A
 Frequencies --    752.5414               787.3366               832.7427
 Red. masses --      2.9347                 1.8356                 2.9998
 Frc consts  --      0.9792                 0.6704                 1.2256
 IR Inten    --      0.3479                 0.3587                 6.1229

                     13                     14                     15
                      A                      A                      A
 Frequencies --    837.6551               858.9671               887.7282
 Red. masses --      2.1873                 2.4157                 4.6920
 Frc consts  --      0.9042                 1.0501                 2.1785
 IR Inten    --      4.4502                 8.2754                49.3890

                     16                     17                     18
                      A                      A                      A
 Frequencies --    918.9429               932.2274               963.3173
 Red. masses --      2.5324                 3.6895                 1.9680
 Frc consts  --      1.2599                 1.8891                 1.0760
 IR Inten    --     10.7386                10.2083                12.5094

                     19                     20                     21
                      A                      A                      A
 Frequencies --    993.9453              1011.1735              1045.1265
 Red. masses --      2.6138                 3.3847                 1.9827
 Frc consts  --      1.5214                 2.0390                 1.2760
 IR Inten    --      9.4882                82.2186                 5.6553

                     22                     23                     24
                      A                      A                      A
 Frequencies --   1081.5301              1093.0562              1115.2982
 Red. masses --      2.0416                 1.6849                 2.1599
 Frc consts  --      1.4070                 1.1860                 1.5829
 IR Inten    --     10.1099                 2.6754                30.7473

                     25                     26                     27
                      A                      A                      A
 Frequencies --   1143.7525              1174.5231              1187.8534
 Red. masses --      2.2193                 1.4284                 1.2381
 Frc consts  --      1.7105                 1.1610                 1.0293
 IR Inten    --      5.7580                 4.4916                 1.6198

                     28                     29                     30
                      A                      A                      A
 Frequencies --   1208.7403              1220.6426              1224.1777
 Red. masses --      1.3836                 1.5729                 1.3313
 Frc consts  --      1.1910                 1.3808                 1.1754
 IR Inten    --      1.9922                 4.1850                 2.4744

                     31                     32                     33
                      A                      A                      A
 Frequencies --   1240.8527              1258.4653              1271.8925
 Red. masses --      1.5708                 1.6203                 2.0011
 Frc consts  --      1.4250                 1.5119                 1.9073
 IR Inten    --      1.1063                11.2001                20.3119

                     34                     35                     36
                      A                      A                      A
 Frequencies --   1312.3004              1344.2599              1378.9021
 Red. masses --      1.4439                 1.3717                 1.5259
 Frc consts  --      1.4651                 1.4604                 1.7094
 IR Inten    --     10.0719                 3.5461                 2.1872

                     37                     38                     39
                      A                      A                      A
 Frequencies --   1391.9932              1482.4321              1494.2031
 Red. masses --      1.3839                 1.0862                 1.1177
 Frc consts  --      1.5799                 1.4063                 1.4703
 IR Inten    --      0.3654                 1.1988                 1.5873

                     40                     41                     42
                      A                      A                      A
 Frequencies --   1502.7422              1525.8062              3030.3711
 Red. masses --      1.1047                 1.0891                 1.0598
 Frc consts  --      1.4698                 1.4939                 5.7339
 IR Inten    --      1.0687                 2.3266                75.9565

                     43                     44                     45
                      A                      A                      A
 Frequencies --   3034.4173              3067.8445              3077.2339
 Red. masses --      1.0567                 1.0592                 1.0851
 Frc consts  --      5.7328                 5.8733                 6.0542
 IR Inten    --     25.5171                37.5253                11.7319

                     46                     47                     48
                      A                      A                      A
 Frequencies --   3077.8660              3091.3168              3092.4078
 Red. masses --      1.1071                 1.0600                 1.1068
 Frc consts  --      6.1794                 5.9685                 6.2361
 IR Inten    --     18.8931                43.9051                28.3939

                     49                     50                     51
                      A                      A                      A
 Frequencies --   3123.6518              3124.9355              3150.3759
 Red. masses --      1.0897                 1.1094                 1.1085
 Frc consts  --      6.2644                 6.3832                 6.4822
 IR Inten    --     36.8982                11.5025                28.3521

 - Thermochemistry -
 -------------------
 Temperature   298.150 Kelvin.  Pressure   1.00000 Atm.
 Atom     1 has atomic number  6 and mass  12.00000

 Molecular mass:   126.06808 amu.
 Principal axes and moments of inertia in atomic units:
                           1         2         3
     Eigenvalues --   640.47236 957.166171074.12360
           X            0.99958  -0.02403  -0.01619
           Y            0.02532   0.99606   0.08497
           Z            0.01409  -0.08534   0.99625
 This molecule is an asymmetric top.
 Rotational symmetry number  1.
 Warning -- assumption of classical behavior for rotation
           may cause significant error
 Rotational temperatures (Kelvin)      0.13523     0.09049     0.08064
 Rotational constants (GHZ):           2.81783     1.88550     1.68020
 Zero-point vibrational energy     426365.2 (Joules/Mol)
                                  101.90373 (Kcal/Mol)
 Warning -- explicit consideration of   7 degrees of freedom as
           vibrations may cause significant error
 Vibrational temperatures:    278.67   430.88   457.18   509.06   602.81
          (Kelvin)            699.08   846.60   898.27   942.12  1082.74
                             1132.80  1198.13  1205.20  1235.86  1277.24
                             1322.15  1341.27  1386.00  1430.06  1454.85
                             1503.70  1556.08  1572.66  1604.66  1645.60
                             1689.87  1709.05  1739.11  1756.23  1761.32
                             1785.31  1810.65  1829.97  1888.11  1934.09
                             1983.93  2002.77  2132.89  2149.82  2162.11
                             2195.29  4360.02  4365.84  4413.94  4427.45
                             4428.36  4447.71  4449.28  4494.23  4496.08
                             4532.68

 Zero-point correction=                           0.162394 (Hartree/Particle)
 Thermal correction to Energy=                    0.168898
 Thermal correction to Enthalpy=                  0.169842
 Thermal correction to Gibbs Free Energy=         0.131952
 Sum of electronic and zero-point Energies=           -422.975647
 Sum of electronic and thermal Energies=              -422.969144
 Sum of electronic and thermal Enthalpies=            -422.968199
 Sum of electronic and thermal Free Energies=         -423.006089

                     E (Thermal)             CV                S
                      KCal/Mol        Cal/Mol-Kelvin    Cal/Mol-Kelvin
 Total                  105.985             27.871             79.746
 Electronic               0.000              0.000              0.000
 Translational            0.889              2.981             40.409
 Rotational               0.889              2.981             27.978
 Vibrational            104.207             21.909             11.359
 Vibration     1          0.635              1.849              2.192
 Vibration     2          0.692              1.675              1.420
 Vibration     3          0.704              1.640              1.322
 Vibration     4          0.730              1.567              1.149
 Vibration     5          0.782              1.429              0.895
 Vibration     6          0.842              1.281              0.694
 Vibration     7          0.946              1.056              0.470

 Optimization completed.
    -- Stationary point found.
 Normal termination of Gaussian 09 at Mon Jan 27 13:06:41 2020.
