 Gaussian 09, Revision D.01,
 Gaussian 09:  ES64L-G09RevD.01 24-Apr-2013

 -----------------------------
 # b3lyp 6-31G(2df,p) opt Freq
 -----------------------------

 -----
 titel
 -----
 Symbolic Z-matrix:
 Charge =  0 Multiplicity = 1

 SCF Done:  E(RB3LYP) =  -423.178532998     A.U. after   14 cycles
 Optimization completed.
    -- Stationary point found.
 Normal termination of Gaussian 09 at Thu Jan 30 15:31:54 2020.

 ----------------------------------------------------------------------
 #N Geom=AllCheck Guess=TCheck SCRF=Check GenChk RB3LYP/6-31G(2df,p) Fr
 eq
 ----------------------------------------------------------------------

 Structure from the checkpoint file:  "/scratch/puck/g09_0154bdbb-d28d-4060-9692-a69e0b74b4c7/Gau-190924.chk"
 -----
 titel
 -----
 Charge =  0 Multiplicity = 1

                         Standard orientation:
 ---------------------------------------------------------------------
 Center     Atomic      Atomic             Coordinates (Angstroms)
 Number     Number       Type             X           Y           Z
 ---------------------------------------------------------------------
      1          6           0        1.986992    1.217026    0.382451
      2          6           0        0.790273    0.308054    0.649286
      3          6           0        0.811223   -1.031282   -0.124311
      4          8           0        1.652728   -1.873235   -0.262420
      5          6           0       -0.569291   -0.799585   -0.722854
      6          6           0       -1.729151   -1.159202    0.273044
      7          6           0       -1.840379    0.331776    0.709511
      8          6           0       -0.558572    0.643535   -0.097850
      9          8           0       -0.543017    1.743118   -0.958844
     10          1           0        1.893511    2.168059    0.917903
     11          1           0        2.905423    0.728583    0.719491
     12          1           0        2.085309    1.435794   -0.683753
     13          1           0        0.660303    0.158496    1.727795
     14          1           0       -0.736551   -1.015226   -1.777808
     15          1           0       -2.615720   -1.555395   -0.223071
     16          1           0       -1.440248   -1.856085    1.063092
     17          1           0       -2.708804    0.822086    0.262338
     18          1           0       -1.821903    0.547350    1.781786
     19          1           0       -0.445579    2.545344   -0.433320
 ---------------------------------------------------------------------

 SCF Done:  E(RB3LYP) =  -423.178532998     A.U. after    1 cycles

 The electronic state is 1-A.
 Alpha  occ. eigenvalues --  -19.15177 -19.13255 -10.26280 -10.24557 -10.19982
 Alpha  occ. eigenvalues --  -10.19377 -10.19069 -10.18853 -10.18520  -1.04216
 Alpha  occ. eigenvalues --   -1.03525  -0.87285  -0.77541  -0.70757  -0.66526
 Alpha  occ. eigenvalues --   -0.61523  -0.57086  -0.52049  -0.50724  -0.48300
 Alpha  occ. eigenvalues --   -0.46831  -0.44745  -0.42215  -0.41525  -0.39532
 Alpha  occ. eigenvalues --   -0.39131  -0.37590  -0.36803  -0.34757  -0.33981
 Alpha  occ. eigenvalues --   -0.33041  -0.28810  -0.26742  -0.23463
 Alpha virt. eigenvalues --   -0.01896   0.06087   0.09054   0.09791   0.11205
 Alpha virt. eigenvalues --    0.13718   0.13913   0.15040   0.16629   0.16725
 Alpha virt. eigenvalues --    0.17234   0.18632   0.20177   0.20829   0.21371

 Mulliken charges:
               1
     1  C   -0.414367
     2  C   -0.185408
     3  C    0.423001
     4  O   -0.316657
     5  C   -0.203705
     6  C   -0.234332
     7  C   -0.293503
     8  C    0.400333
     9  O   -0.471352
    10  H    0.108900
    11  H    0.138688
    12  H    0.136157
    13  H    0.090730
    14  H    0.096557
    15  H    0.120739
    16  H    0.116296
    17  H    0.110833
    18  H    0.095340
    19  H    0.281753
 Sum of Mulliken charges =   0.00000

 Dipole moment (field-independent basis, Debye):
    X=             -1.8922    Y=              2.2791    Z=              1.5895  Tot=              3.3618
 Quadrupole moment (field-independent basis, Debye-Ang):
   XX=            -55.1381   YY=            -53.9770   ZZ=            -53.4211
   XY=              5.6536   XZ=              0.4824   YZ=              1.6794

  Exact polarizability:  83.760   0.996  78.118   0.493   3.207  64.670
 Approx polarizability: 114.599  -6.659 115.162   0.497   4.267 100.960

                      1                      2                      3
                      A                      A                      A
 Frequencies --     50.6804               175.7569               186.8858
 Red. masses --      3.7460                 3.3211                 1.7170
 Frc consts  --      0.0057                 0.0604                 0.0353
 IR Inten    --      1.5904                 0.6068                 3.9165

                      4                      5                      6
                      A                      A                      A
 Frequencies --    191.2649               213.9799               237.1403
 Red. masses --      1.2895                 1.0839                 2.6172
 Frc consts  --      0.0278                 0.0292                 0.0867
 IR Inten    --      1.3941                94.3610                15.5907

                      7                      8                      9
                      A                      A                      A
 Frequencies --    330.1623               346.4855               427.3520
 Red. masses --      3.3147                 4.1030                 5.1678
 Frc consts  --      0.2129                 0.2902                 0.5561
 IR Inten    --     12.9221                 4.6758                 7.7819

                     10                     11                     12
                      A                      A                      A
 Frequencies --    442.9861               592.2140               659.6109
 Red. masses --      3.9013                 4.3956                 3.7779
 Frc consts  --      0.4511                 0.9083                 0.9685
 IR Inten    --      2.8709                 2.7117                 0.5902

                     13                     14                     15
                      A                      A                      A
 Frequencies --    702.1538               738.0814               776.2457
 Red. masses --      1.9637                 2.2042                 2.5981
 Frc consts  --      0.5704                 0.7075                 0.9224
 IR Inten    --      1.3316                 0.7930                 2.4221

                     16                     17                     18
                      A                      A                      A
 Frequencies --    808.1597               870.4863               918.0626
 Red. masses --      1.8893                 2.3849                 1.9083
 Frc consts  --      0.7270                 1.0647                 0.9477
 IR Inten    --      6.4728                 4.4087                 9.1347

                     19                     20                     21
                      A                      A                      A
 Frequencies --    943.8531               966.8275              1016.9146
 Red. masses --      2.3865                 1.9848                 1.6303
 Frc consts  --      1.2526                 1.0931                 0.9933
 IR Inten    --      3.5870                 6.3687                 5.0829

                     22                     23                     24
                      A                      A                      A
 Frequencies --   1028.2991              1049.5797              1090.5096
 Red. masses --      1.9517                 1.8821                 2.7781
 Frc consts  --      1.2159                 1.2216                 1.9465
 IR Inten    --     21.3067                61.8388                 6.2488

                     25                     26                     27
                      A                      A                      A
 Frequencies --   1113.0098              1140.8796              1169.1983
 Red. masses --      1.6625                 2.1926                 2.5024
 Frc consts  --      1.2134                 1.6814                 2.0155
 IR Inten    --      2.5293                14.8680                40.7105

                     28                     29                     30
                      A                      A                      A
 Frequencies --   1208.4076              1221.4189              1238.4814
 Red. masses --      1.3747                 1.5958                 1.5145
 Frc consts  --      1.1827                 1.4027                 1.3686
 IR Inten    --      5.9759                16.1658                 2.4969

                     31                     32                     33
                      A                      A                      A
 Frequencies --   1256.4874              1262.0011              1300.0444
 Red. masses --      1.5263                 1.4451                 2.1168
 Frc consts  --      1.4197                 1.3561                 2.1079
 IR Inten    --     18.4591                15.0576                70.2734

                     34                     35                     36
                      A                      A                      A
 Frequencies --   1320.0660              1352.7880              1402.3089
 Red. masses --      1.6603                 1.8749                 1.2253
 Frc consts  --      1.7046                 2.0215                 1.4196
 IR Inten    --      8.8864                 9.9606                 2.8983

                     37                     38                     39
                      A                      A                      A
 Frequencies --   1476.8416              1491.7869              1495.0158
 Red. masses --      1.0854                 1.0475                 1.1098
 Frc consts  --      1.3948                 1.3734                 1.4615
 IR Inten    --      0.6126                 5.4327                 2.8278

                     40                     41                     42
                      A                      A                      A
 Frequencies --   1501.0575              1880.7663              3035.3506
 Red. masses --      1.0541                12.5185                 1.0651
 Frc consts  --      1.3993                26.0898                 5.7816
 IR Inten    --      5.5558               255.6949                20.9716

                     43                     44                     45
                      A                      A                      A
 Frequencies --   3039.4207              3052.8159              3074.5780
 Red. masses --      1.0545                 1.0586                 1.0606
 Frc consts  --      5.7396                 5.8130                 5.9071
 IR Inten    --     16.8587                36.9885                29.1210

                     46                     47                     48
                      A                      A                      A
 Frequencies --   3105.8420              3106.3537              3121.6528
 Red. masses --      1.0986                 1.1068                 1.0933
 Frc consts  --      6.2436                 6.2925                 6.2770
 IR Inten    --     15.7504                10.4898                 3.9601

                     49                     50                     51
                      A                      A                      A
 Frequencies --   3127.6779              3134.4004              3794.8354
 Red. masses --      1.1021                 1.1036                 1.0658
 Frc consts  --      6.3520                 6.3883                 9.0433
 IR Inten    --     11.0652                28.6955                19.1999

 - Thermochemistry -
 -------------------
 Temperature   298.150 Kelvin.  Pressure   1.00000 Atm.
 Atom     1 has atomic number  6 and mass  12.00000

 Molecular mass:   126.06808 amu.
 Principal axes and moments of inertia in atomic units:
                           1         2         3
     Eigenvalues --   834.799281016.169581503.22440
           X            0.96842   0.24931   0.00149
           Y           -0.24930   0.96830   0.01557
           Z            0.00244  -0.01545   0.99988
 This molecule is an asymmetric top.
 Rotational symmetry number  1.
 Warning -- assumption of classical behavior for rotation
           may cause significant error
 Rotational temperatures (Kelvin)      0.10375     0.08524     0.05762
 Rotational constants (GHZ):           2.16189     1.77602     1.20058
 Zero-point vibrational energy     413831.2 (Joules/Mol)
                                   98.90804 (Kcal/Mol)
 Warning -- explicit consideration of  11 degrees of freedom as
           vibrations may cause significant error
 Vibrational temperatures:     72.92   252.87   268.89   275.19   307.87
          (Kelvin)            341.19   475.03   498.51   614.86   637.36
                              852.06   949.03  1010.24  1061.93  1116.84
                             1162.76  1252.43  1320.89  1357.99  1391.05
                             1463.11  1479.49  1510.11  1569.00  1601.37
                             1641.47  1682.21  1738.63  1757.35  1781.90
                             1807.80  1815.74  1870.47  1899.28  1946.36
                             2017.61  2124.84  2146.35  2150.99  2159.68
                             2706.00  4367.19  4373.04  4392.32  4423.63
                             4468.61  4469.34  4491.36  4500.03  4509.70
                             5459.91

 Zero-point correction=                           0.157620 (Hartree/Particle)
 Thermal correction to Energy=                    0.166572
 Thermal correction to Enthalpy=                  0.167516
 Thermal correction to Gibbs Free Energy=         0.123917
 Sum of electronic and zero-point Energies=           -423.020913
 Sum of electronic and thermal Energies=              -423.011961
 Sum of electronic and thermal Enthalpies=            -423.011017
 Sum of electronic and thermal Free Energies=         -423.054616

                     E (Thermal)             CV                S
                      KCal/Mol        Cal/Mol-Kelvin    Cal/Mol-Kelvin
 Total                  104.525             33.670             91.761
 Electronic               0.000              0.000              0.000
 Translational            0.889              2.981             40.409
 Rotational               0.889              2.981             28.635
 Vibrational            102.748             27.708             22.717
 Vibration     1          0.595              1.977              4.791
 Vibration     2          0.628              1.872              2.373
 Vibration     3          0.632              1.858              2.259
 Vibration     4          0.634              1.852              2.216
 Vibration     5          0.644              1.820              2.009
 Vibration     6          0.656              1.784              1.824
 Vibration     7          0.713              1.615              1.259
 Vibration     8          0.724              1.582              1.182
 Vibration     9          0.789              1.411              0.867
 Vibration    10          0.803              1.376              0.817
 Vibration    11          0.950              1.048              0.463

 Normal termination of Gaussian 09 at Thu Jan 30 16:16:14 2020.
