 Gaussian 09, Revision D.01,
 Gaussian 09:  ES64L-G09RevD.01 24-Apr-2013

 -----------------------------
 # b3lyp 6-31G(2df,p) opt Freq
 -----------------------------

 -----
 titel
 -----
 Symbolic Z-matrix:
 Charge =  0 Multiplicity = 1

 SCF Done:  E(RB3LYP) =  -423.198129072     A.U. after   14 cycles
 Optimization completed.
    -- Stationary point found.
 Normal termination of Gaussian 09 at Mon Jan 27 15:52:39 2020.

 ----------------------------------------------------------------------
 #N Geom=AllCheck Guess=TCheck SCRF=Check GenChk RB3LYP/6-31G(2df,p) Fr
 eq
 ----------------------------------------------------------------------

 Structure from the checkpoint file:  "/scratch/puck/g09_b5119a60-6323-405f-afc2-6857fb4b552b/Gau-35048.chk"
 -----
 titel
 -----
 Charge =  0 Multiplicity = 1

                         Standard orientation:
 ---------------------------------------------------------------------
 Center     Atomic      Atomic             Coordinates (Angstroms)
 Number     Number       Type             X           Y           Z
 ---------------------------------------------------------------------
      1          8           0       -1.374829    1.838813   -0.014738
      2          6           0       -1.068510    0.479526   -0.291913
      3          6           0       -2.175795   -0.420792    0.244246
      4          8           0       -2.475078   -1.493840   -0.211990
      5          6           0        0.258325    0.156651    0.416562
      6          6           0        1.418132    1.094286   -0.019813
      7          6           0        2.683941    0.200323   -0.043644
      8          6           0        2.113792   -1.194754   -0.132458
      9          6           0        0.806006   -1.223158    0.115504
     10          1           0       -2.113621    2.106707   -0.570419
     11          1           0       -0.955370    0.291336   -1.369387
     12          1           0       -2.693748    0.012440    1.132263
     13          1           0        0.073050    0.261458    1.497254
     14          1           0        1.212279    1.467460   -1.028280
     15          1           0        1.515823    1.965917    0.629088
     16          1           0        3.352617    0.444145   -0.876907
     17          1           0        3.282357    0.315131    0.871267
     18          1           0        2.725904   -2.066303   -0.337736
     19          1           0        0.184633   -2.110577    0.135771
 ---------------------------------------------------------------------

 SCF Done:  E(RB3LYP) =  -423.198129072     A.U. after    1 cycles

 The electronic state is 1-A.
 Alpha  occ. eigenvalues --  -19.15420 -19.14665 -10.27134 -10.24346 -10.19820
 Alpha  occ. eigenvalues --  -10.18425 -10.18213 -10.18061 -10.17797  -1.05474
 Alpha  occ. eigenvalues --   -1.03384  -0.84667  -0.75651  -0.70835  -0.67361
 Alpha  occ. eigenvalues --   -0.58835  -0.57025  -0.54957  -0.51476  -0.49473
 Alpha  occ. eigenvalues --   -0.47235  -0.44928  -0.44548  -0.41277  -0.38501
 Alpha  occ. eigenvalues --   -0.38078  -0.35871  -0.35089  -0.34526  -0.34119
 Alpha  occ. eigenvalues --   -0.33674  -0.30323  -0.25112  -0.24077
 Alpha virt. eigenvalues --   -0.03309   0.02160   0.07174   0.10292   0.11599
 Alpha virt. eigenvalues --    0.13194   0.14570   0.15593   0.15875   0.17046
 Alpha virt. eigenvalues --    0.17774   0.18544   0.19237   0.20946   0.22420

 Mulliken charges:
               1
     1  O   -0.428490
     2  C    0.014984
     3  C    0.120758
     4  O   -0.242867
     5  C   -0.022295
     6  C   -0.221326
     7  C   -0.261712
     8  C   -0.075651
     9  C   -0.074351
    10  H    0.291322
    11  H    0.091797
    12  H    0.085040
    13  H    0.086320
    14  H    0.106050
    15  H    0.108962
    16  H    0.104307
    17  H    0.107651
    18  H    0.095245
    19  H    0.114256
 Sum of Mulliken charges =   0.00000

 Dipole moment (field-independent basis, Debye):
    X=              0.5853    Y=              1.6087    Z=             -0.2817  Tot=              1.7349
 Quadrupole moment (field-independent basis, Debye-Ang):
   XX=            -51.4417   YY=            -56.7377   ZZ=            -52.2289
   XY=             -6.8761   XZ=              0.4871   YZ=             -2.7777

  Exact polarizability:  96.902   0.775  77.502  -4.106   2.666  59.173
 Approx polarizability: 132.355   4.778 116.357  -5.619   7.716  94.760

                      1                      2                      3
                      A                      A                      A
 Frequencies --     61.1672                75.4474                94.4055
 Red. masses --      4.1899                 4.4963                 2.3044
 Frc consts  --      0.0092                 0.0151                 0.0121
 IR Inten    --      7.6248                 2.0164                 0.5067

                      4                      5                      6
                      A                      A                      A
 Frequencies --    176.9305               265.1112               270.5189
 Red. masses --      3.0404                 2.2516                 3.0645
 Frc consts  --      0.0561                 0.0932                 0.1321
 IR Inten    --      3.4842                 0.2380                16.2097

                      7                      8                      9
                      A                      A                      A
 Frequencies --    312.9934               369.4826               414.6686
 Red. masses --      1.1683                 4.0132                 3.9573
 Frc consts  --      0.0674                 0.3228                 0.4009
 IR Inten    --     74.8437                16.0479                14.8296

                     10                     11                     12
                      A                      A                      A
 Frequencies --    475.1367               549.8298               632.4581
 Red. masses --      2.8120                 3.1937                 2.5165
 Frc consts  --      0.3740                 0.5689                 0.5931
 IR Inten    --      4.1411                 7.4855                13.6527

                     13                     14                     15
                      A                      A                      A
 Frequencies --    749.2330               781.3554               846.1427
 Red. masses --      1.4073                 4.7475                 1.5343
 Frc consts  --      0.4655                 1.7077                 0.6472
 IR Inten    --     22.7538                 2.8726                 1.3981

                     16                     17                     18
                      A                      A                      A
 Frequencies --    866.1639               924.5559               969.6806
 Red. masses --      2.7649                 2.5356                 1.8013
 Frc consts  --      1.2221                 1.2770                 0.9979
 IR Inten    --      5.9686                 2.2174                 9.7829

                     19                     20                     21
                      A                      A                      A
 Frequencies --    978.1377               993.3954              1022.8693
 Red. masses --      1.5559                 1.6020                 2.3025
 Frc consts  --      0.8771                 0.9315                 1.4193
 IR Inten    --      2.0291                 1.7087                 8.0938

                     22                     23                     24
                      A                      A                      A
 Frequencies --   1051.2232              1066.5581              1078.9901
 Red. masses --      2.8554                 2.1120                 3.9322
 Frc consts  --      1.8591                 1.4155                 2.6972
 IR Inten    --     10.5348                10.9693                39.9500

                     25                     26                     27
                      A                      A                      A
 Frequencies --   1109.6770              1142.8185              1175.2979
 Red. masses --      2.2054                 1.1574                 1.3911
 Frc consts  --      1.6001                 0.8906                 1.1322
 IR Inten    --     33.4344                 2.9805                 9.6231

                     28                     29                     30
                      A                      A                      A
 Frequencies --   1218.3203              1227.3840              1282.4432
 Red. masses --      1.3136                 1.2601                 1.3057
 Frc consts  --      1.1488                 1.1184                 1.2653
 IR Inten    --     13.9757                 1.4156                11.1470

                     31                     32                     33
                      A                      A                      A
 Frequencies --   1298.1706              1313.2773              1323.1403
 Red. masses --      1.3706                 1.2699                 1.5281
 Frc consts  --      1.3609                 1.2904                 1.5762
 IR Inten    --     22.0208                 0.4226                 4.0802

                     34                     35                     36
                      A                      A                      A
 Frequencies --   1343.8953              1382.9072              1386.2038
 Red. masses --      1.2852                 1.4305                 1.5267
 Frc consts  --      1.3676                 1.6119                 1.7284
 IR Inten    --      2.5245                 5.8755                 8.6692

                     37                     38                     39
                      A                      A                      A
 Frequencies --   1407.8254              1482.0341              1498.6441
 Red. masses --      1.2751                 1.0832                 1.0973
 Frc consts  --      1.4889                 1.4018                 1.4520
 IR Inten    --      1.7239                 1.3375                 1.2806

                     40                     41                     42
                      A                      A                      A
 Frequencies --   1687.1789              1830.2020              2863.6095
 Red. masses --      6.4317                10.6949                 1.0831
 Frc consts  --     10.7870                21.1069                 5.2328
 IR Inten    --      0.7014               133.8402               103.0440

                     43                     44                     45
                      A                      A                      A
 Frequencies --   2976.1560              3008.5362              3009.6298
 Red. masses --      1.0806                 1.0705                 1.0830
 Frc consts  --      5.6392                 5.7088                 5.7798
 IR Inten    --     16.5297                46.2730                31.5037

                     46                     47                     48
                      A                      A                      A
 Frequencies --   3049.1057              3063.8998              3119.2820
 Red. masses --      1.0822                 1.0761                 1.0992
 Frc consts  --      5.9281                 5.9519                 6.3016
 IR Inten    --     11.1093                42.4149                25.6510

                     49                     50                     51
                      A                      A                      A
 Frequencies --   3186.6218              3214.9598              3819.2129
 Red. masses --      1.0858                 1.1026                 1.0666
 Frc consts  --      6.4965                 6.7144                 9.1665
 IR Inten    --      7.6761                11.5824                29.2224

 - Thermochemistry -
 -------------------
 Temperature   298.150 Kelvin.  Pressure   1.00000 Atm.
 Atom     1 has atomic number  8 and mass  15.99491

 Molecular mass:   126.06808 amu.
 Principal axes and moments of inertia in atomic units:
                           1         2         3
     Eigenvalues --   637.128081540.238032078.57093
           X            0.99991  -0.01316  -0.00409
           Y            0.01313   0.99989  -0.00759
           Z            0.00419   0.00754   0.99996
 This molecule is an asymmetric top.
 Rotational symmetry number  1.
 Warning -- assumption of classical behavior for rotation
           may cause significant error
 Rotational temperatures (Kelvin)      0.13594     0.05623     0.04167
 Rotational constants (GHZ):           2.83262     1.17173     0.86826
 Zero-point vibrational energy     415384.6 (Joules/Mol)
                                   99.27931 (Kcal/Mol)
 Warning -- explicit consideration of  11 degrees of freedom as
           vibrations may cause significant error
 Vibrational temperatures:     88.01   108.55   135.83   254.56   381.44
          (Kelvin)            389.22   450.33   531.60   596.61   683.61
                              791.08   909.96  1077.98  1124.19  1217.41
                             1246.22  1330.23  1395.15  1407.32  1429.27
                             1471.68  1512.47  1534.54  1552.42  1596.58
                             1644.26  1690.99  1752.89  1765.93  1845.15
                             1867.78  1889.51  1903.70  1933.56  1989.69
                             1994.44  2025.54  2132.31  2156.21  2427.47
                             2633.25  4120.09  4282.02  4328.61  4330.18
                             4386.98  4408.26  4487.95  4584.83  4625.60
                             5494.99

 Zero-point correction=                           0.158212 (Hartree/Particle)
 Thermal correction to Energy=                    0.167299
 Thermal correction to Enthalpy=                  0.168244
 Thermal correction to Gibbs Free Energy=         0.123544
 Sum of electronic and zero-point Energies=           -423.039917
 Sum of electronic and thermal Energies=              -423.030830
 Sum of electronic and thermal Enthalpies=            -423.029885
 Sum of electronic and thermal Free Energies=         -423.074585

                     E (Thermal)             CV                S
                      KCal/Mol        Cal/Mol-Kelvin    Cal/Mol-Kelvin
 Total                  104.982             33.092             94.079
 Electronic               0.000              0.000              0.000
 Translational            0.889              2.981             40.409
 Rotational               0.889              2.981             29.102
 Vibrational            103.204             27.130             24.568
 Vibration     1          0.597              1.973              4.419
 Vibration     2          0.599              1.965              4.006
 Vibration     3          0.603              1.953              3.567
 Vibration     4          0.628              1.871              2.361
 Vibration     5          0.671              1.737              1.628
 Vibration     6          0.674              1.728              1.593
 Vibration     7          0.701              1.649              1.346
 Vibration     8          0.742              1.535              1.082
 Vibration     9          0.778              1.438              0.910
 Vibration    10          0.832              1.305              0.723
 Vibration    11          0.905              1.140              0.545

 Optimization completed.
    -- Stationary point found.
 Normal termination of Gaussian 09 at Mon Jan 27 16:43:38 2020.
