 Gaussian 09, Revision D.01,
 Gaussian 09:  ES64L-G09RevD.01 24-Apr-2013

 -----------------------------
 # b3lyp 6-31G(2df,p) opt Freq
 -----------------------------

 -----
 titel
 -----
 Symbolic Z-matrix:
 Charge =  0 Multiplicity = 1

 SCF Done:  E(RB3LYP) =  -423.153045419     A.U. after   14 cycles
 Optimization completed.
    -- Stationary point found.
 Normal termination of Gaussian 09 at Mon Jan 27 18:05:58 2020.

 ----------------------------------------------------------------------
 #N Geom=AllCheck Guess=TCheck SCRF=Check GenChk RB3LYP/6-31G(2df,p) Fr
 eq
 ----------------------------------------------------------------------

 Structure from the checkpoint file:  "/scratch/puck/g09_3f48a270-a374-49f7-95d1-79e847023f8c/Gau-89105.chk"
 -----
 titel
 -----
 Charge =  0 Multiplicity = 1

                         Standard orientation:
 ---------------------------------------------------------------------
 Center     Atomic      Atomic             Coordinates (Angstroms)
 Number     Number       Type             X           Y           Z
 ---------------------------------------------------------------------
      1          6           0        2.195034   -0.149365   -0.551998
      2          6           0        0.782173   -0.345986   -0.091337
      3          6           0       -0.076963   -1.535801   -0.564429
      4          6           0       -1.386998   -0.945215   -0.007137
      5          6           0       -1.554352    0.336622   -0.872996
      6          6           0       -0.326943    0.816001   -0.104180
      7          8           0        0.062376    2.142038   -0.126904
      8          6           0       -0.723331   -0.027847    1.130058
      9          8           0        0.619591   -0.462055    1.365812
     10          1           0        2.609434    0.789731   -0.172190
     11          1           0        2.830419   -0.969401   -0.201944
     12          1           0        2.238188   -0.121561   -1.645040
     13          1           0       -0.105830   -1.672273   -1.649195
     14          1           0        0.250127   -2.460469   -0.083050
     15          1           0       -2.225423   -1.606463    0.196350
     16          1           0       -1.503465    0.228644   -1.960021
     17          1           0       -2.432351    0.926857   -0.595922
     18          1           0        0.721519    2.271137    0.565672
     19          1           0       -1.290069    0.283483    2.006195
 ---------------------------------------------------------------------

 SCF Done:  E(RB3LYP) =  -423.153045419     A.U. after    1 cycles

 The electronic state is 1-A.
 Alpha  occ. eigenvalues --  -19.15030 -19.13192 -10.23722 -10.23671 -10.22787
 Alpha  occ. eigenvalues --  -10.19311 -10.18316 -10.18238 -10.18132  -1.05880
 Alpha  occ. eigenvalues --   -1.02437  -0.85206  -0.76122  -0.70504  -0.64501
 Alpha  occ. eigenvalues --   -0.64206  -0.57011  -0.54267  -0.50007  -0.49022
 Alpha  occ. eigenvalues --   -0.47014  -0.44788  -0.41981  -0.41126  -0.39067
 Alpha  occ. eigenvalues --   -0.37519  -0.37143  -0.35510  -0.34142  -0.33672
 Alpha  occ. eigenvalues --   -0.32152  -0.29278  -0.25030  -0.23810
 Alpha virt. eigenvalues --    0.07053   0.09185   0.10810   0.12396   0.12530
 Alpha virt. eigenvalues --    0.14213   0.14332   0.15658   0.15988   0.17389
 Alpha virt. eigenvalues --    0.17991   0.18404   0.19647   0.21650   0.21855

 Mulliken charges:
               1
     1  C   -0.499102
     2  C    0.322471
     3  C   -0.239283
     4  C   -0.095397
     5  C   -0.295228
     6  C    0.380298
     7  O   -0.483990
     8  C    0.022954
     9  O   -0.335646
    10  H    0.114292
    11  H    0.132909
    12  H    0.127249
    13  H    0.095440
    14  H    0.103800
    15  H    0.073239
    16  H    0.097518
    17  H    0.106892
    18  H    0.288600
    19  H    0.082986
 Sum of Mulliken charges =   0.00000

 Dipole moment (field-independent basis, Debye):
    X=             -0.0657    Y=             -0.3363    Z=             -0.4586  Tot=              0.5725
 Quadrupole moment (field-independent basis, Debye-Ang):
   XX=            -50.3507   YY=            -54.8688   ZZ=            -53.9602
   XY=              2.0240   XZ=             -1.9362   YZ=              4.0015

  Exact polarizability:  80.624   0.147  72.516  -0.826   2.155  68.776
 Approx polarizability: 112.006  -0.187 107.216   1.552   1.262 109.263

                      1                      2                      3
                      A                      A                      A
 Frequencies --    167.9406               207.6405               221.5149
 Red. masses --      1.0340                 2.8450                 3.1566
 Frc consts  --      0.0172                 0.0723                 0.0913
 IR Inten    --      1.2769                 3.4049                 0.9880

                      4                      5                      6
                      A                      A                      A
 Frequencies --    311.8956               332.7480               366.8155
 Red. masses --      1.7750                 1.8154                 2.2197
 Frc consts  --      0.1017                 0.1184                 0.1760
 IR Inten    --     42.5292                44.9428                17.4849

                      7                      8                      9
                      A                      A                      A
 Frequencies --    455.9607               483.1185               529.8351
 Red. masses --      1.8059                 2.5082                 5.2250
 Frc consts  --      0.2212                 0.3449                 0.8642
 IR Inten    --      1.2974                11.2169                 1.3201

                     10                     11                     12
                      A                      A                      A
 Frequencies --    597.3392               655.4382               696.5077
 Red. masses --      4.1238                 3.2024                 4.1000
 Frc consts  --      0.8669                 0.8106                 1.1719
 IR Inten    --      2.8040                 3.8515                 2.9195

                     13                     14                     15
                      A                      A                      A
 Frequencies --    730.4798               785.6547               832.6961
 Red. masses --      4.5409                 3.0579                 3.6111
 Frc consts  --      1.4276                 1.1121                 1.4752
 IR Inten    --      4.7034                 4.4771                28.3703

                     16                     17                     18
                      A                      A                      A
 Frequencies --    887.1238               893.5719               926.7649
 Red. masses --      2.2873                 2.2399                 1.8004
 Frc consts  --      1.0606                 1.0538                 0.9111
 IR Inten    --      3.6908                 3.1774                 7.4680

                     19                     20                     21
                      A                      A                      A
 Frequencies --    941.9440               966.7426              1004.6085
 Red. masses --      2.0797                 1.9612                 2.6167
 Frc consts  --      1.0872                 1.0799                 1.5560
 IR Inten    --      9.2733                15.9573                17.1725

                     22                     23                     24
                      A                      A                      A
 Frequencies --   1028.3740              1038.5463              1061.8055
 Red. masses --      1.3948                 1.4858                 1.9167
 Frc consts  --      0.8691                 0.9442                 1.2732
 IR Inten    --     15.8418                19.0445                27.4527

                     25                     26                     27
                      A                      A                      A
 Frequencies --   1116.3601              1140.4765              1152.4129
 Red. masses --      1.5230                 1.9760                 1.8285
 Frc consts  --      1.1183                 1.5143                 1.4308
 IR Inten    --      8.6944                10.1688                 8.3494

                     28                     29                     30
                      A                      A                      A
 Frequencies --   1171.3985              1187.8439              1228.5639
 Red. masses --      1.7800                 1.6843                 1.4896
 Frc consts  --      1.4390                 1.4002                 1.3247
 IR Inten    --      5.5640                 4.8366                 8.9137

                     31                     32                     33
                      A                      A                      A
 Frequencies --   1237.4169              1273.7315              1294.5166
 Red. masses --      1.9577                 1.7769                 1.6479
 Frc consts  --      1.7662                 1.6986                 1.6271
 IR Inten    --     34.7841                 8.6368                18.6784

                     34                     35                     36
                      A                      A                      A
 Frequencies --   1323.0418              1345.5181              1393.2951
 Red. masses --      2.1959                 3.2791                 1.7053
 Frc consts  --      2.2647                 3.4977                 1.9504
 IR Inten    --     21.3460               127.8973                 4.9997

                     37                     38                     39
                      A                      A                      A
 Frequencies --   1421.5860              1478.1712              1480.7372
 Red. masses --      1.7312                 1.1231                 1.0645
 Frc consts  --      2.0613                 1.4459                 1.3752
 IR Inten    --      6.6871                 0.2550                 8.2124

                     40                     41                     42
                      A                      A                      A
 Frequencies --   1486.5342              1504.9725              3036.9286
 Red. masses --      1.0505                 1.1626                 1.0352
 Frc consts  --      1.3677                 1.5515                 5.6254
 IR Inten    --      3.7610                 6.7242                18.5652

                     43                     44                     45
                      A                      A                      A
 Frequencies --   3053.4800              3059.5357              3105.1816
 Red. masses --      1.0573                 1.0580                 1.1012
 Frc consts  --      5.8079                 5.8349                 6.2561
 IR Inten    --     33.0742                27.0506                16.2132

                     46                     47                     48
                      A                      A                      A
 Frequencies --   3109.9119              3112.2030              3116.2892
 Red. masses --      1.1078                 1.1030                 1.1056
 Frc consts  --      6.3128                 6.2946                 6.3258
 IR Inten    --     20.1823                 1.0994                35.1864

                     49                     50                     51
                      A                      A                      A
 Frequencies --   3134.1574              3150.7559              3788.6895
 Red. masses --      1.0911                 1.0920                 1.0653
 Frc consts  --      6.3150                 6.3868                 9.0096
 IR Inten    --     26.8285                37.0272                20.9624

 - Thermochemistry -
 -------------------
 Temperature   298.150 Kelvin.  Pressure   1.00000 Atm.
 Atom     1 has atomic number  6 and mass  12.00000

 Molecular mass:   126.06808 amu.
 Principal axes and moments of inertia in atomic units:
                           1         2         3
     Eigenvalues --   794.21608 866.944321117.75618
           X            0.99839   0.04800  -0.03011
           Y           -0.04634   0.99749   0.05362
           Z            0.03261  -0.05214   0.99811
 This molecule is an asymmetric top.
 Rotational symmetry number  1.
 Warning -- assumption of classical behavior for rotation
           may cause significant error
 Rotational temperatures (Kelvin)      0.10906     0.09991     0.07749
 Rotational constants (GHZ):           2.27236     2.08173     1.61461
 Zero-point vibrational energy     418865.1 (Joules/Mol)
                                  100.11116 (Kcal/Mol)
 Warning -- explicit consideration of  10 degrees of freedom as
           vibrations may cause significant error
 Vibrational temperatures:    241.63   298.75   318.71   448.75   478.75
          (Kelvin)            527.77   656.02   695.10   762.31   859.44
                              943.03  1002.12  1051.00  1130.38  1198.06
                             1276.37  1285.65  1333.41  1355.25  1390.93
                             1445.41  1479.60  1494.23  1527.70  1606.19
                             1640.89  1658.06  1685.38  1709.04  1767.63
                             1780.36  1832.61  1862.52  1903.56  1935.90
                             2004.64  2045.34  2126.76  2130.45  2138.79
                             2165.32  4369.46  4393.27  4401.98  4467.66
                             4474.46  4477.76  4483.64  4509.35  4533.23
                             5451.07

 Zero-point correction=                           0.159537 (Hartree/Particle)
 Thermal correction to Energy=                    0.167136
 Thermal correction to Enthalpy=                  0.168080
 Thermal correction to Gibbs Free Energy=         0.128142
 Sum of electronic and zero-point Energies=           -422.993508
 Sum of electronic and thermal Energies=              -422.985910
 Sum of electronic and thermal Enthalpies=            -422.984966
 Sum of electronic and thermal Free Energies=         -423.024903

                     E (Thermal)             CV                S
                      KCal/Mol        Cal/Mol-Kelvin    Cal/Mol-Kelvin
 Total                  104.879             31.314             84.055
 Electronic               0.000              0.000              0.000
 Translational            0.889              2.981             40.409
 Rotational               0.889              2.981             28.133
 Vibrational            103.102             25.352             15.513
 Vibration     1          0.625              1.882              2.458
 Vibration     2          0.641              1.829              2.064
 Vibration     3          0.648              1.808              1.947
 Vibration     4          0.700              1.651              1.352
 Vibration     5          0.715              1.610              1.247
 Vibration     6          0.740              1.541              1.093
 Vibration     7          0.814              1.348              0.778
 Vibration     8          0.839              1.287              0.702
 Vibration     9          0.885              1.184              0.588
 Vibration    10          0.955              1.037              0.454

 Normal termination of Gaussian 09 at Mon Jan 27 18:53:55 2020.
