 Gaussian 09, Revision D.01,
 Gaussian 09:  ES64L-G09RevD.01 24-Apr-2013

 -----------------------------
 # b3lyp 6-31G(2df,p) opt Freq
 -----------------------------

 -----
 titel
 -----
 Symbolic Z-matrix:
 Charge =  0 Multiplicity = 1

 SCF Done:  E(RB3LYP) =  -423.164637552     A.U. after   15 cycles
 SCF Done:  E(RB3LYP) =  -423.164637190     A.U. after    7 cycles
 SCF Done:  E(RB3LYP) =  -423.164637555     A.U. after    7 cycles
 SCF Done:  E(RB3LYP) =  -423.164637525     A.U. after    7 cycles
 SCF Done:  E(RB3LYP) =  -423.164637563     A.U. after    7 cycles
 Optimization completed.
    -- Stationary point found.
 Normal termination of Gaussian 09 at Mon Jan 27 15:52:53 2020.

 ----------------------------------------------------------------------
 #N Geom=AllCheck Guess=TCheck SCRF=Check GenChk RB3LYP/6-31G(2df,p) Fr
 eq
 ----------------------------------------------------------------------

 Structure from the checkpoint file:  "/scratch/puck/g09_750641d3-e09c-4796-8469-04648dbc9e5a/Gau-82298.chk"
 -----
 titel
 -----
 Charge =  0 Multiplicity = 1

                         Standard orientation:
 ---------------------------------------------------------------------
 Center     Atomic      Atomic             Coordinates (Angstroms)
 Number     Number       Type             X           Y           Z
 ---------------------------------------------------------------------
      1          6           0       -2.872920    0.304638    0.398156
      2          6           0       -1.360095    0.325690    0.204278
      3          8           0       -1.105988    0.975230   -1.029881
      4          6           0       -0.785850   -1.108491    0.211768
      5          6           0        0.708988   -1.215757   -0.037501
      6          8           0        1.180474   -1.950563   -0.866665
      7          6           0        1.649786   -0.361554    0.857072
      8          6           0        1.817125    0.986177    0.328740
      9          6           0        1.938577    2.090363   -0.134761
     10          1           0       -3.349644   -0.241159   -0.422062
     11          1           0       -3.144542   -0.176941    1.342282
     12          1           0       -3.262138    1.325769    0.399093
     13          1           0       -0.907774    0.894238    1.031755
     14          1           0       -0.186662    1.269989   -1.027839
     15          1           0       -0.983744   -1.561717    1.194337
     16          1           0       -1.284771   -1.713982   -0.549521
     17          1           0        1.258501   -0.314262    1.880433
     18          1           0        2.615228   -0.875930    0.879399
     19          1           0        2.075993    3.070251   -0.522025
 ---------------------------------------------------------------------

 SCF Done:  E(RB3LYP) =  -423.164637563     A.U. after    1 cycles

 The electronic state is 1-A.
 Alpha  occ. eigenvalues --  -19.14134 -19.12871 -10.28406 -10.24199 -10.22805
 Alpha  occ. eigenvalues --  -10.20943 -10.19552 -10.19397 -10.17733  -1.05384
 Alpha  occ. eigenvalues --   -1.01457  -0.81536  -0.78363  -0.73406  -0.70815
 Alpha  occ. eigenvalues --   -0.59975  -0.56086  -0.53769  -0.52281  -0.49007
 Alpha  occ. eigenvalues --   -0.48495  -0.45657  -0.44494  -0.42629  -0.39662
 Alpha  occ. eigenvalues --   -0.39004  -0.38330  -0.37533  -0.36076  -0.32587
 Alpha  occ. eigenvalues --   -0.29981  -0.28742  -0.26760  -0.24932
 Alpha virt. eigenvalues --   -0.02905   0.03429   0.03793   0.07635   0.11328
 Alpha virt. eigenvalues --    0.11934   0.12253   0.13495   0.13597   0.16302
 Alpha virt. eigenvalues --    0.16676   0.17575   0.18619   0.20810   0.21367

 Mulliken charges:
               1
     1  C   -0.377608
     2  C    0.111985
     3  O   -0.434366
     4  C   -0.292852
     5  C    0.360773
     6  O   -0.279715
     7  C   -0.418455
     8  C    0.297100
     9  C   -0.451053
    10  H    0.128829
    11  H    0.109627
    12  H    0.125222
    13  H    0.074706
    14  H    0.289446
    15  H    0.114274
    16  H    0.128723
    17  H    0.140171
    18  H    0.160062
    19  H    0.213131
 Sum of Mulliken charges =   0.00000

 Dipole moment (field-independent basis, Debye):
    X=              0.0276    Y=              1.1115    Z=              2.8722  Tot=              3.0798
 Quadrupole moment (field-independent basis, Debye-Ang):
   XX=            -53.5603   YY=            -53.1858   ZZ=            -54.7019
   XY=              5.2516   XZ=             -0.2121   YZ=             -4.5726

  Exact polarizability:  82.319   3.873  86.992  -1.916  -3.649  64.366
 Approx polarizability: 103.488   3.135 138.218  -4.482  -8.368 106.575

                      1                      2                      3
                      A                      A                      A
 Frequencies --     54.7778                73.5331                98.0548
 Red. masses --      3.4160                 5.9103                 3.2647
 Frc consts  --      0.0060                 0.0188                 0.0185
 IR Inten    --      1.6289                 1.6347                 0.7103

                      4                      5                      6
                      A                      A                      A
 Frequencies --    137.9556               160.7948               236.6790
 Red. masses --      4.8177                 4.3000                 1.0675
 Frc consts  --      0.0540                 0.0655                 0.0352
 IR Inten    --      1.1565                 1.7989                 0.2033

                      7                      8                      9
                      A                      A                      A
 Frequencies --    300.3184               333.2966               363.5923
 Red. masses --      2.8674                 3.0005                 2.9718
 Frc consts  --      0.1524                 0.1964                 0.2315
 IR Inten    --      1.6015                 2.5758                 3.6867

                     10                     11                     12
                      A                      A                      A
 Frequencies --    399.5508               412.1787               452.8519
 Red. masses --      1.2476                 3.4616                 3.4492
 Frc consts  --      0.1173                 0.3465                 0.4168
 IR Inten    --     50.6734                 4.4262                 6.0830

                     13                     14                     15
                      A                      A                      A
 Frequencies --    471.4854               540.3395               629.0984
 Red. masses --      2.1582                 3.3190                 2.3534
 Frc consts  --      0.2827                 0.5709                 0.5488
 IR Inten    --     10.7035                16.5617                14.3305

                     16                     17                     18
                      A                      A                      A
 Frequencies --    630.2866               651.8228               803.2916
 Red. masses --      1.5525                 1.2156                 2.7033
 Frc consts  --      0.3634                 0.3043                 1.0278
 IR Inten    --     36.3551                51.8954                 0.1277

                     19                     20                     21
                      A                      A                      A
 Frequencies --    861.8197               886.1451               943.5544
 Red. masses --      2.7800                 2.1568                 1.6476
 Frc consts  --      1.2165                 0.9979                 0.8643
 IR Inten    --      4.8918                 5.3683                 1.5519

                     22                     23                     24
                      A                      A                      A
 Frequencies --    956.4309               967.3401              1061.1371
 Red. masses --      1.9922                 3.4407                 2.0749
 Frc consts  --      1.0737                 1.8970                 1.3765
 IR Inten    --     23.4106                 1.4080                26.4598

                     25                     26                     27
                      A                      A                      A
 Frequencies --   1065.9407              1141.8856              1157.9060
 Red. masses --      1.9975                 2.2539                 1.9988
 Frc consts  --      1.3372                 1.7315                 1.5789
 IR Inten    --     30.7517                20.8797                25.4477

                     28                     29                     30
                      A                      A                      A
 Frequencies --   1215.2301              1252.9789              1278.8296
 Red. masses --      1.1788                 1.5428                 1.5964
 Frc consts  --      1.0256                 1.4271                 1.5382
 IR Inten    --      5.9376                59.3360                22.0933

                     31                     32                     33
                      A                      A                      A
 Frequencies --   1299.2732              1309.9658              1386.5109
 Red. masses --      1.4294                 1.2084                 1.2902
 Frc consts  --      1.4217                 1.2218                 1.4614
 IR Inten    --     18.2770                28.2638                22.5078

                     34                     35                     36
                      A                      A                      A
 Frequencies --   1401.4880              1436.3841              1450.1739
 Red. masses --      1.2248                 1.4248                 1.1212
 Frc consts  --      1.4175                 1.7319                 1.3893
 IR Inten    --      0.9153                30.6731                 2.9252

                     37                     38                     39
                      A                      A                      A
 Frequencies --   1457.0799              1484.3379              1499.8855
 Red. masses --      1.0956                 1.0477                 1.0510
 Frc consts  --      1.3704                 1.3600                 1.3931
 IR Inten    --     13.0250                 2.6943                 2.2296

                     40                     41                     42
                      A                      A                      A
 Frequencies --   1824.5008              2225.4385              2979.2078
 Red. masses --     11.3753                 5.9504                 1.0827
 Frc consts  --     22.3101                17.3632                 5.6618
 IR Inten    --    183.7806                 3.0983                37.6798

                     43                     44                     45
                      A                      A                      A
 Frequencies --   3011.7706              3036.2857              3042.9427
 Red. masses --      1.0654                 1.0598                 1.0350
 Frc consts  --      5.6937                 5.7568                 5.6466
 IR Inten    --      7.7243                 9.0379                17.7446

                     46                     47                     48
                      A                      A                      A
 Frequencies --   3093.8281              3104.6773              3116.7585
 Red. masses --      1.1005                 1.0957                 1.1014
 Frc consts  --      6.2062                 6.2225                 6.3038
 IR Inten    --      2.7191                 5.7580                28.5694

                     49                     50                     51
                      A                      A                      A
 Frequencies --   3125.4460              3498.6325              3761.9712
 Red. masses --      1.1021                 1.1612                 1.0660
 Frc consts  --      6.3428                 8.3746                 8.8887
 IR Inten    --     19.3327                80.1332               117.0495

 - Thermochemistry -
 -------------------
 Temperature   298.150 Kelvin.  Pressure   1.00000 Atm.
 Atom     1 has atomic number  6 and mass  12.00000

 Molecular mass:   126.06808 amu.
 Principal axes and moments of inertia in atomic units:
                           1         2         3
     Eigenvalues --   890.517231409.176731923.53074
           X            0.99973   0.02222  -0.00708
           Y           -0.02240   0.99940  -0.02646
           Z            0.00649   0.02661   0.99962
 This molecule is an asymmetric top.
 Rotational symmetry number  1.
 Warning -- assumption of classical behavior for rotation
           may cause significant error
 Rotational temperatures (Kelvin)      0.09726     0.06146     0.04503
 Rotational constants (GHZ):           2.02662     1.28071     0.93824
 Zero-point vibrational energy     407242.7 (Joules/Mol)
                                   97.33334 (Kcal/Mol)
 Warning -- explicit consideration of  14 degrees of freedom as
           vibrations may cause significant error
 Vibrational temperatures:     78.81   105.80   141.08   198.49   231.35
          (Kelvin)            340.53   432.09   479.54   523.13   574.86
                              593.03   651.55   678.36   777.43   905.13
                              906.84   937.83  1155.76  1239.96  1274.96
                             1357.56  1376.09  1391.78  1526.74  1533.65
                             1642.92  1665.97  1748.44  1802.75  1839.95
                             1869.36  1884.75  1994.88  2016.43  2066.63
                             2086.47  2096.41  2135.63  2158.00  2625.05
                             3201.91  4286.41  4333.26  4368.53  4378.11
                             4451.32  4466.93  4484.31  4496.81  5033.75
                             5412.63

 Zero-point correction=                           0.155111 (Hartree/Particle)
 Thermal correction to Energy=                    0.165502
 Thermal correction to Enthalpy=                  0.166446
 Thermal correction to Gibbs Free Energy=         0.119251
 Sum of electronic and zero-point Energies=           -423.009527
 Sum of electronic and thermal Energies=              -422.999135
 Sum of electronic and thermal Enthalpies=            -422.998191
 Sum of electronic and thermal Free Energies=         -423.045386

                     E (Thermal)             CV                S
                      KCal/Mol        Cal/Mol-Kelvin    Cal/Mol-Kelvin
 Total                  103.854             37.478             99.330
 Electronic               0.000              0.000              0.000
 Translational            0.889              2.981             40.409
 Rotational               0.889              2.981             29.269
 Vibrational            102.077             31.516             29.653
 Vibration     1          0.596              1.976              4.637
 Vibration     2          0.599              1.966              4.056
 Vibration     3          0.603              1.951              3.493
 Vibration     4          0.614              1.915              2.832
 Vibration     5          0.622              1.890              2.540
 Vibration     6          0.656              1.785              1.828
 Vibration     7          0.693              1.673              1.415
 Vibration     8          0.715              1.609              1.244
 Vibration     9          0.737              1.547              1.107
 Vibration    10          0.766              1.471              0.964
 Vibration    11          0.776              1.444              0.919
 Vibration    12          0.811              1.355              0.787
 Vibration    13          0.828              1.313              0.733
 Vibration    14          0.895              1.161              0.565

 Optimization completed.
    -- Stationary point found.
 Normal termination of Gaussian 09 at Mon Jan 27 16:34:24 2020.
