 Gaussian 09, Revision D.01,
 Gaussian 09:  ES64L-G09RevD.01 24-Apr-2013

 -----------------------------
 # b3lyp 6-31G(2df,p) opt Freq
 -----------------------------

 -----
 titel
 -----
 Symbolic Z-matrix:
 Charge =  0 Multiplicity = 1

 SCF Done:  E(RB3LYP) =  -423.129874493     A.U. after   12 cycles
 Optimization completed.
    -- Stationary point found.
 Normal termination of Gaussian 09 at Mon Jan 27 22:02:39 2020.

 ----------------------------------------------------------------------
 #N Geom=AllCheck Guess=TCheck SCRF=Check GenChk RB3LYP/6-31G(2df,p) Fr
 eq
 ----------------------------------------------------------------------

 Structure from the checkpoint file:  "/scratch/puck/g09_6c69a855-f552-4b81-92f4-02a60c60c262/Gau-176394.chk"
 -----
 titel
 -----
 Charge =  0 Multiplicity = 1

                         Standard orientation:
 ---------------------------------------------------------------------
 Center     Atomic      Atomic             Coordinates (Angstroms)
 Number     Number       Type             X           Y           Z
 ---------------------------------------------------------------------
      1          6           0        1.774653    1.566729    0.310920
      2          6           0        0.620243    0.653656    0.001105
      3          6           0       -0.645106    1.156316   -0.758656
      4          6           0       -1.380293    0.038850   -0.025913
      5          8           0       -2.740541   -0.089408    0.163265
      6          6           0       -0.440566   -1.178584    0.022888
      7          6           0       -0.347795   -0.053914    1.053827
      8          6           0        0.875190   -0.760997   -0.621364
      9          8           0        2.010343   -1.428425   -0.111839
     10          1           0        2.199786    1.976606   -0.612896
     11          1           0        1.464617    2.408353    0.938809
     12          1           0        2.572389    1.023520    0.826871
     13          1           0       -0.968709    2.139645   -0.403608
     14          1           0       -0.610982    1.148042   -1.855605
     15          1           0       -3.119299   -0.505393   -0.619304
     16          1           0       -0.839771   -2.175762    0.165388
     17          1           0       -0.434998   -0.041565    2.130477
     18          1           0        0.973427   -0.805410   -1.712147
     19          1           0        1.867163   -1.557707    0.833760
 ---------------------------------------------------------------------

 SCF Done:  E(RB3LYP) =  -423.129874493     A.U. after    1 cycles

 The electronic state is 1-A.
 Alpha  occ. eigenvalues --  -19.15175 -19.13466 -10.24309 -10.22939 -10.19924
 Alpha  occ. eigenvalues --  -10.18932 -10.18906 -10.18170 -10.17478  -1.03929
 Alpha  occ. eigenvalues --   -1.01942  -0.91821  -0.74871  -0.70505  -0.67571
 Alpha  occ. eigenvalues --   -0.60901  -0.57718  -0.53903  -0.51409  -0.47837
 Alpha  occ. eigenvalues --   -0.46435  -0.44796  -0.43840  -0.40540  -0.40179
 Alpha  occ. eigenvalues --   -0.38775  -0.35920  -0.35360  -0.34709  -0.31377
 Alpha  occ. eigenvalues --   -0.29835  -0.26280  -0.25191  -0.24075
 Alpha virt. eigenvalues --    0.07644   0.07770   0.10420   0.11965   0.12409
 Alpha virt. eigenvalues --    0.13269   0.14639   0.15265   0.15637   0.16484
 Alpha virt. eigenvalues --    0.16939   0.19199   0.20252   0.20917   0.22742

 Mulliken charges:
               1
     1  C   -0.503298
     2  C    0.278851
     3  C   -0.348973
     4  C    0.405722
     5  O   -0.465224
     6  C   -0.192159
     7  C   -0.216141
     8  C    0.115230
     9  O   -0.443342
    10  H    0.120627
    11  H    0.116485
    12  H    0.121034
    13  H    0.102517
    14  H    0.083343
    15  H    0.286089
    16  H    0.088310
    17  H    0.097168
    18  H    0.074644
    19  H    0.279118
 Sum of Mulliken charges =   0.00000

 Dipole moment (field-independent basis, Debye):
    X=             -0.7592    Y=              0.0463    Z=             -0.1348  Tot=              0.7725
 Quadrupole moment (field-independent basis, Debye-Ang):
   XX=            -57.3319   YY=            -52.9705   ZZ=            -49.9878
   XY=              4.4180   XZ=              6.1185   YZ=             -1.2861

  Exact polarizability:  81.773   1.901  74.440   2.103  -0.827  68.678
 Approx polarizability: 114.086  -1.243 107.821   2.457   0.652 110.014

                      1                      2                      3
                      A                      A                      A
 Frequencies --    184.9913               201.9519               212.7482
 Red. masses --      2.2931                 1.3808                 2.5012
 Frc consts  --      0.0462                 0.0332                 0.0667
 IR Inten    --      6.6856                 4.9403                 1.4088

                      4                      5                      6
                      A                      A                      A
 Frequencies --    246.5910               260.9525               314.5370
 Red. masses --      3.1367                 1.8991                 1.4482
 Frc consts  --      0.1124                 0.0762                 0.0844
 IR Inten    --      1.8739                19.5084                35.4295

                      7                      8                      9
                      A                      A                      A
 Frequencies --    360.8519               394.9716               430.5295
 Red. masses --      1.2955                 2.5415                 2.2857
 Frc consts  --      0.0994                 0.2336                 0.2496
 IR Inten    --    110.7153                 7.5173                10.2817

                     10                     11                     12
                      A                      A                      A
 Frequencies --    466.1108               495.6571               593.7189
 Red. masses --      2.7695                 4.9047                 4.2161
 Frc consts  --      0.3545                 0.7100                 0.8756
 IR Inten    --      1.9096                 7.0681                 2.4483

                     13                     14                     15
                      A                      A                      A
 Frequencies --    661.8651               752.5095               784.5109
 Red. masses --      2.8707                 3.4779                 2.4343
 Frc consts  --      0.7409                 1.1603                 0.8827
 IR Inten    --      1.0073                 1.4583                 5.9284

                     16                     17                     18
                      A                      A                      A
 Frequencies --    845.5138               858.0407               882.2011
 Red. masses --      1.4313                 2.4660                 2.2270
 Frc consts  --      0.6029                 1.0697                 1.0212
 IR Inten    --      8.9421                 9.7937                 6.9150

                     19                     20                     21
                      A                      A                      A
 Frequencies --    916.5924               938.6463               975.3088
 Red. masses --      2.8454                 1.5246                 1.5964
 Frc consts  --      1.4085                 0.7914                 0.8947
 IR Inten    --     11.6853                 4.3856                 0.5996

                     22                     23                     24
                      A                      A                      A
 Frequencies --    991.7913              1017.4919              1069.5818
 Red. masses --      2.3254                 1.7916                 2.0649
 Frc consts  --      1.3477                 1.0928                 1.3918
 IR Inten    --     13.2227                 9.4434                88.5042

                     25                     26                     27
                      A                      A                      A
 Frequencies --   1092.0590              1111.9655              1125.3134
 Red. masses --      2.1305                 1.7055                 2.0953
 Frc consts  --      1.4970                 1.2425                 1.5633
 IR Inten    --     29.0720                28.2073                 1.3703

                     28                     29                     30
                      A                      A                      A
 Frequencies --   1168.5268              1193.2873              1223.7523
 Red. masses --      1.7552                 1.5933                 1.6440
 Frc consts  --      1.4121                 1.3367                 1.4506
 IR Inten    --      4.1308                 6.6351                 3.5834

                     31                     32                     33
                      A                      A                      A
 Frequencies --   1248.0087              1263.9083              1296.6239
 Red. masses --      2.0093                 1.9065                 1.9969
 Frc consts  --      1.8439                 1.7944                 1.9781
 IR Inten    --      2.5759                46.6757                10.2195

                     34                     35                     36
                      A                      A                      A
 Frequencies --   1303.0055              1340.7605              1409.5334
 Red. masses --      1.9191                 2.9128                 1.3852
 Frc consts  --      1.9197                 3.0851                 1.6215
 IR Inten    --    141.1270                12.0224                 7.1058

                     37                     38                     39
                      A                      A                      A
 Frequencies --   1427.9514              1438.9616              1486.8020
 Red. masses --      1.3746                 2.2932                 1.0488
 Frc consts  --      1.6514                 2.7976                 1.3660
 IR Inten    --     35.9791                76.1965                 3.3548

                     40                     41                     42
                      A                      A                      A
 Frequencies --   1491.1577              1507.6836              3018.8843
 Red. masses --      1.0565                 1.2617                 1.0609
 Frc consts  --      1.3841                 1.6898                 5.6964
 IR Inten    --      9.7461                 5.4647                40.4340

                     43                     44                     45
                      A                      A                      A
 Frequencies --   3028.0570              3046.1631              3088.0250
 Red. masses --      1.0368                 1.0841                 1.1031
 Frc consts  --      5.6014                 5.9268                 6.1974
 IR Inten    --     29.8512                61.6613                14.9388

                     46                     47                     48
                      A                      A                      A
 Frequencies --   3091.3218              3105.7412              3188.7296
 Red. masses --      1.0996                 1.1010                 1.0918
 Frc consts  --      6.1910                 6.2568                 6.5406
 IR Inten    --     30.1027                17.8799                13.7331

                     49                     50                     51
                      A                      A                      A
 Frequencies --   3224.7142              3780.0634              3791.1552
 Red. masses --      1.0978                 1.0651                 1.0660
 Frc consts  --      6.7258                 8.9669                 9.0272
 IR Inten    --      3.9493                10.8652                22.9452

 - Thermochemistry -
 -------------------
 Temperature   298.150 Kelvin.  Pressure   1.00000 Atm.
 Atom     1 has atomic number  6 and mass  12.00000

 Molecular mass:   126.06808 amu.
 Principal axes and moments of inertia in atomic units:
                           1         2         3
     Eigenvalues --   615.508791211.907671535.91804
           X            0.99884   0.04512   0.01673
           Y           -0.04494   0.99893  -0.01128
           Z           -0.01722   0.01051   0.99980
 This molecule is an asymmetric top.
 Rotational symmetry number  1.
 Warning -- assumption of classical behavior for rotation
           may cause significant error
 Rotational temperatures (Kelvin)      0.14072     0.07147     0.05639
 Rotational constants (GHZ):           2.93211     1.48917     1.17502
 Zero-point vibrational energy     414804.0 (Joules/Mol)
                                   99.14055 (Kcal/Mol)
 Warning -- explicit consideration of  12 degrees of freedom as
           vibrations may cause significant error
 Vibrational temperatures:    266.16   290.56   306.10   354.79   375.45
          (Kelvin)            452.55   519.18   568.28   619.44   670.63
                              713.14   854.23   952.28  1082.69  1128.73
                             1216.50  1234.53  1269.29  1318.77  1350.50
                             1403.25  1426.96  1463.94  1538.89  1571.23
                             1599.87  1619.07  1681.25  1716.87  1760.70
                             1795.60  1818.48  1865.55  1874.73  1929.05
                             2028.00  2054.50  2070.34  2139.17  2145.44
                             2169.22  4343.50  4356.69  4382.74  4442.97
                             4447.72  4468.46  4587.86  4639.64  5438.66
                             5454.62

 Zero-point correction=                           0.157991 (Hartree/Particle)
 Thermal correction to Energy=                    0.166405
 Thermal correction to Enthalpy=                  0.167349
 Thermal correction to Gibbs Free Energy=         0.125828
 Sum of electronic and zero-point Energies=           -422.971884
 Sum of electronic and thermal Energies=              -422.963469
 Sum of electronic and thermal Enthalpies=            -422.962525
 Sum of electronic and thermal Free Energies=         -423.004047

                     E (Thermal)             CV                S
                      KCal/Mol        Cal/Mol-Kelvin    Cal/Mol-Kelvin
 Total                  104.421             33.797             87.389
 Electronic               0.000              0.000              0.000
 Translational            0.889              2.981             40.409
 Rotational               0.889              2.981             28.529
 Vibrational            102.643             27.835             18.452
 Vibration     1          0.631              1.860              2.277
 Vibration     2          0.639              1.837              2.115
 Vibration     3          0.644              1.821              2.020
 Vibration     4          0.661              1.768              1.755
 Vibration     5          0.669              1.744              1.655
 Vibration     6          0.702              1.646              1.338
 Vibration     7          0.735              1.553              1.118
 Vibration     8          0.762              1.481              0.981
 Vibration     9          0.792              1.404              0.857
 Vibration    10          0.823              1.325              0.749
 Vibration    11          0.851              1.260              0.669
 Vibration    12          0.951              1.045              0.461

 Optimization completed.
    -- Stationary point found.
 Normal termination of Gaussian 09 at Mon Jan 27 22:54:59 2020.
