 Gaussian 09, Revision D.01,
 Gaussian 09:  ES64L-G09RevD.01 24-Apr-2013

 -----------------------------
 # b3lyp 6-31G(2df,p) opt Freq
 -----------------------------

 -----
 titel
 -----
 Symbolic Z-matrix:
 Charge =  0 Multiplicity = 1

 SCF Done:  E(RB3LYP) =  -423.141297784     A.U. after   14 cycles
 Optimization completed.
    -- Stationary point found.
 Normal termination of Gaussian 09 at Tue Jan 28 03:16:21 2020.

 ----------------------------------------------------------------------
 #N Geom=AllCheck Guess=TCheck SCRF=Check GenChk RB3LYP/6-31G(2df,p) Fr
 eq
 ----------------------------------------------------------------------

 Structure from the checkpoint file:  "/scratch/puck/g09_6d66a2a9-f47e-4d9c-8f11-87666132ee59/Gau-66900.chk"
 -----
 titel
 -----
 Charge =  0 Multiplicity = 1

                         Standard orientation:
 ---------------------------------------------------------------------
 Center     Atomic      Atomic             Coordinates (Angstroms)
 Number     Number       Type             X           Y           Z
 ---------------------------------------------------------------------
      1          6           0       -2.666356   -0.606835   -0.266812
      2          6           0       -1.217771   -0.654083    0.210252
      3          6           0       -0.837874    0.466552    1.244179
      4          6           0        0.267919    1.155780    0.421707
      5          8           0       -0.319119    1.203023   -0.920122
      6          6           0       -0.196105   -0.256468   -0.883328
      7          6           0        1.088560   -0.033649   -0.084074
      8          6           0        2.494491   -0.206655   -0.396637
      9          8           0        1.838378   -0.962203    0.653687
     10          1           0       -2.868330   -1.388072   -1.007964
     11          1           0       -3.359820   -0.752398    0.567925
     12          1           0       -2.884017    0.363242   -0.723831
     13          1           0       -0.976979   -1.647066    0.603398
     14          1           0       -1.669450    1.146758    1.443872
     15          1           0       -0.465534    0.069830    2.192032
     16          1           0        0.694308    2.099211    0.760284
     17          1           0       -0.240455   -0.737319   -1.860410
     18          1           0        2.793877   -0.790920   -1.264932
     19          1           0        3.225149    0.522317   -0.050620
 ---------------------------------------------------------------------

 SCF Done:  E(RB3LYP) =  -423.141297784     A.U. after    1 cycles

 The electronic state is 1-A.
 Alpha  occ. eigenvalues --  -19.15797 -19.14128 -10.24615 -10.23991 -10.23916
 Alpha  occ. eigenvalues --  -10.23667 -10.19108 -10.18355 -10.17283  -1.08317
 Alpha  occ. eigenvalues --   -1.04831  -0.80266  -0.73377  -0.70405  -0.67461
 Alpha  occ. eigenvalues --   -0.64226  -0.56203  -0.54258  -0.52479  -0.49541
 Alpha  occ. eigenvalues --   -0.48685  -0.44324  -0.42052  -0.41643  -0.39843
 Alpha  occ. eigenvalues --   -0.39074  -0.36488  -0.34049  -0.33108  -0.32830
 Alpha  occ. eigenvalues --   -0.32649  -0.30857  -0.26779  -0.25554
 Alpha virt. eigenvalues --    0.08044   0.08944   0.10351   0.11329   0.12544
 Alpha virt. eigenvalues --    0.13776   0.14548   0.14979   0.15618   0.16127
 Alpha virt. eigenvalues --    0.16753   0.17247   0.18531   0.19108   0.22674

 Mulliken charges:
               1
     1  C   -0.418399
     2  C    0.039584
     3  C   -0.245746
     4  C   -0.029193
     5  O   -0.300464
     6  C   -0.049292
     7  C    0.505283
     8  C   -0.295561
     9  O   -0.284355
    10  H    0.110314
    11  H    0.114699
    12  H    0.130857
    13  H    0.086008
    14  H    0.106378
    15  H    0.112993
    16  H    0.085889
    17  H    0.082848
    18  H    0.124167
    19  H    0.123990
 Sum of Mulliken charges =   0.00000

 Dipole moment (field-independent basis, Debye):
    X=              0.2521    Y=             -0.0175    Z=             -0.0780  Tot=              0.2644
 Quadrupole moment (field-independent basis, Debye-Ang):
   XX=            -50.8950   YY=            -54.7171   ZZ=            -53.3625
   XY=              3.3525   XZ=             -3.1720   YZ=              4.8078

  Exact polarizability:  89.406   2.150  67.157  -2.519   4.754  68.139
 Approx polarizability: 112.508  -0.357 106.688  -0.895   0.149 106.842

                      1                      2                      3
                      A                      A                      A
 Frequencies --    126.2168               172.5639               241.3136
 Red. masses --      3.8116                 3.0159                 1.5049
 Frc consts  --      0.0358                 0.0529                 0.0516
 IR Inten    --      1.7844                 3.6640                 0.8719

                      4                      5                      6
                      A                      A                      A
 Frequencies --    243.6361               288.5522               370.0141
 Red. masses --      1.5750                 3.1467                 2.6236
 Frc consts  --      0.0551                 0.1544                 0.2116
 IR Inten    --      1.6282                 4.5055                 1.7491

                      7                      8                      9
                      A                      A                      A
 Frequencies --    430.0459               469.9194               600.7640
 Red. masses --      2.9006                 3.0440                 6.5370
 Frc consts  --      0.3161                 0.3960                 1.3901
 IR Inten    --      2.9191                 1.2330                 6.1963

                     10                     11                     12
                      A                      A                      A
 Frequencies --    626.1417               711.1035               826.1011
 Red. masses --      3.8877                 3.4858                 2.9229
 Frc consts  --      0.8980                 1.0385                 1.1752
 IR Inten    --      8.6925                 1.9038                11.7266

                     13                     14                     15
                      A                      A                      A
 Frequencies --    837.9456               853.5158               871.0668
 Red. masses --      3.0482                 2.9931                 2.5839
 Frc consts  --      1.2610                 1.2847                 1.1551
 IR Inten    --     11.7033                13.3988                 8.9910

                     16                     17                     18
                      A                      A                      A
 Frequencies --    894.7081               924.2331               932.6429
 Red. masses --      3.4374                 1.8689                 2.0294
 Frc consts  --      1.6212                 0.9406                 1.0401
 IR Inten    --     19.6191                25.1737                16.9975

                     19                     20                     21
                      A                      A                      A
 Frequencies --    948.2517              1000.0218              1041.8700
 Red. masses --      2.1469                 2.4825                 1.5395
 Frc consts  --      1.1374                 1.4627                 0.9846
 IR Inten    --     15.5383                36.7298                 3.1166

                     22                     23                     24
                      A                      A                      A
 Frequencies --   1053.9276              1063.9160              1106.0116
 Red. masses --      2.3657                 2.1458                 1.6523
 Frc consts  --      1.5482                 1.4311                 1.1908
 IR Inten    --      0.4688                 0.8388                 9.7248

                     25                     26                     27
                      A                      A                      A
 Frequencies --   1111.6757              1160.2121              1167.1554
 Red. masses --      1.2764                 1.8158                 1.5119
 Frc consts  --      0.9294                 1.4401                 1.2135
 IR Inten    --      1.5359                 0.3235                 7.0515

                     28                     29                     30
                      A                      A                      A
 Frequencies --   1192.5907              1213.1299              1218.0924
 Red. masses --      1.6281                 1.9700                 1.5052
 Frc consts  --      1.3643                 1.7081                 1.3159
 IR Inten    --      3.6600                 3.0333                 5.9176

                     31                     32                     33
                      A                      A                      A
 Frequencies --   1237.2948              1275.0741              1295.5523
 Red. masses --      1.3970                 1.5810                 1.4936
 Frc consts  --      1.2601                 1.5144                 1.4771
 IR Inten    --      1.0767                 6.0694                 2.5551

                     34                     35                     36
                      A                      A                      A
 Frequencies --   1318.9988              1368.4491              1406.2711
 Red. masses --      1.4509                 1.5272                 1.2576
 Frc consts  --      1.4873                 1.6850                 1.4653
 IR Inten    --      1.2397                 1.6916                 3.2930

                     37                     38                     39
                      A                      A                      A
 Frequencies --   1470.8154              1483.9777              1496.1064
 Red. masses --      1.4776                 1.1026                 1.0436
 Frc consts  --      1.8834                 1.4306                 1.3763
 IR Inten    --     11.9964                 3.6003                 4.4741

                     40                     41                     42
                      A                      A                      A
 Frequencies --   1506.3111              1561.9686              3031.2319
 Red. masses --      1.0513                 2.6278                 1.0356
 Frc consts  --      1.4054                 3.7773                 5.6062
 IR Inten    --      1.7955                20.3061                29.4498

                     43                     44                     45
                      A                      A                      A
 Frequencies --   3056.0626              3066.8632              3089.7413
 Red. masses --      1.0825                 1.0605                 1.0511
 Frc consts  --      5.9568                 5.8772                 5.9123
 IR Inten    --     13.0061                20.5623                25.2280

                     46                     47                     48
                      A                      A                      A
 Frequencies --   3095.5921              3112.3175              3118.8859
 Red. masses --      1.1010                 1.1020                 1.1063
 Frc consts  --      6.2159                 6.2892                 6.3404
 IR Inten    --     23.8953                15.6697                23.5234

                     49                     50                     51
                      A                      A                      A
 Frequencies --   3127.2113              3134.4536              3177.3428
 Red. masses --      1.0901                 1.0930                 1.1195
 Frc consts  --      6.2813                 6.3268                 6.6588
 IR Inten    --     43.9937                21.1175                18.0684

 - Thermochemistry -
 -------------------
 Temperature   298.150 Kelvin.  Pressure   1.00000 Atm.
 Atom     1 has atomic number  6 and mass  12.00000

 Molecular mass:   126.06808 amu.
 Principal axes and moments of inertia in atomic units:
                           1         2         3
     Eigenvalues --   530.334821338.617131393.91116
           X            0.99949   0.03155  -0.00460
           Y           -0.02763   0.92907   0.36888
           Z            0.01591  -0.36857   0.92947
 This molecule is an asymmetric top.
 Rotational symmetry number  1.
 Warning -- assumption of classical behavior for rotation
           may cause significant error
 Rotational temperatures (Kelvin)      0.16332     0.06470     0.06214
 Rotational constants (GHZ):           3.40302     1.34821     1.29473
 Zero-point vibrational energy     419457.8 (Joules/Mol)
                                  100.25281 (Kcal/Mol)
 Warning -- explicit consideration of   9 degrees of freedom as
           vibrations may cause significant error
 Vibrational temperatures:    181.60   248.28   347.20   350.54   415.16
          (Kelvin)            532.37   618.74   676.11   864.36   900.88
                             1023.12  1188.57  1205.62  1228.02  1253.27
                             1287.28  1329.76  1341.86  1364.32  1438.81
                             1499.02  1516.36  1530.74  1591.30  1599.45
                             1669.28  1679.27  1715.87  1745.42  1752.56
                             1780.19  1834.54  1864.01  1897.74  1968.89
                             2023.31  2116.17  2135.11  2152.56  2167.24
                             2247.32  4361.26  4396.99  4412.53  4445.44
                             4453.86  4477.93  4487.38  4499.35  4509.77
                             4571.48

 Zero-point correction=                           0.159763 (Hartree/Particle)
 Thermal correction to Energy=                    0.167409
 Thermal correction to Enthalpy=                  0.168354
 Thermal correction to Gibbs Free Energy=         0.127897
 Sum of electronic and zero-point Energies=           -422.981535
 Sum of electronic and thermal Energies=              -422.973888
 Sum of electronic and thermal Enthalpies=            -422.972944
 Sum of electronic and thermal Free Energies=         -423.013400

                     E (Thermal)             CV                S
                      KCal/Mol        Cal/Mol-Kelvin    Cal/Mol-Kelvin
 Total                  105.051             30.432             85.147
 Electronic               0.000              0.000              0.000
 Translational            0.889              2.981             40.409
 Rotational               0.889              2.981             28.383
 Vibrational            103.273             24.470             16.355
 Vibration     1          0.611              1.927              3.003
 Vibration     2          0.626              1.876              2.407
 Vibration     3          0.658              1.777              1.793
 Vibration     4          0.659              1.773              1.776
 Vibration     5          0.685              1.695              1.482
 Vibration     6          0.742              1.534              1.080
 Vibration     7          0.791              1.405              0.859
 Vibration     8          0.827              1.317              0.738
 Vibration     9          0.959              1.030              0.448

 Optimization completed.
    -- Stationary point found.
 Normal termination of Gaussian 09 at Tue Jan 28 04:18:42 2020.
