 Gaussian 09, Revision D.01,
 Gaussian 09:  ES64L-G09RevD.01 24-Apr-2013

 -----------------------------
 # b3lyp 6-31G(2df,p) opt Freq
 -----------------------------

 -----
 titel
 -----
 Symbolic Z-matrix:
 Charge =  0 Multiplicity = 1

 SCF Done:  E(RB3LYP) =  -423.116452929     A.U. after   13 cycles
 Optimization completed.
    -- Stationary point found.
 Normal termination of Gaussian 09 at Tue Jan 28 00:04:43 2020.

 ----------------------------------------------------------------------
 #N Geom=AllCheck Guess=TCheck SCRF=Check GenChk RB3LYP/6-31G(2df,p) Fr
 eq
 ----------------------------------------------------------------------

 Structure from the checkpoint file:  "/scratch/puck/g09_51797836-c05c-4bd0-b99b-35ae5975cd63/Gau-58701.chk"
 -----
 titel
 -----
 Charge =  0 Multiplicity = 1

                         Standard orientation:
 ---------------------------------------------------------------------
 Center     Atomic      Atomic             Coordinates (Angstroms)
 Number     Number       Type             X           Y           Z
 ---------------------------------------------------------------------
      1          8           0       -1.495877   -1.963512   -0.017690
      2          6           0       -1.425971   -0.624577   -0.407102
      3          6           0       -1.375534    0.394479    0.725063
      4          6           0       -1.213751    1.777065    0.121161
      5          8           0       -0.085628    1.335504   -0.688211
      6          6           0       -0.124919    0.038800   -0.075522
      7          6           0        1.152824   -0.639754    0.221403
      8          6           0        2.347391   -0.375191   -0.667253
      9          6           0        2.329154    0.145331    0.746833
     10          1           0       -2.368548   -2.124899    0.356528
     11          1           0       -1.925684   -0.371732   -1.345712
     12          1           0       -1.656104    0.145098    1.740126
     13          1           0       -2.032397    2.164817   -0.497723
     14          1           0       -0.897396    2.544302    0.836829
     15          1           0        1.020154   -1.653716    0.580937
     16          1           0        2.992468   -1.212317   -0.908974
     17          1           0        2.223560    0.348828   -1.464148
     18          1           0        2.967533   -0.326395    1.485552
     19          1           0        2.193298    1.213152    0.876287
 ---------------------------------------------------------------------

 SCF Done:  E(RB3LYP) =  -423.116452929     A.U. after    1 cycles

 The electronic state is 1-A.
 Alpha  occ. eigenvalues --  -19.15112 -19.13877 -10.23979 -10.23629 -10.23510
 Alpha  occ. eigenvalues --  -10.19078 -10.18785 -10.17808 -10.17752  -1.05595
 Alpha  occ. eigenvalues --   -1.02997  -0.85064  -0.81658  -0.70488  -0.62673
 Alpha  occ. eigenvalues --   -0.59748  -0.59010  -0.52960  -0.52030  -0.50716
 Alpha  occ. eigenvalues --   -0.47815  -0.46412  -0.44493  -0.42764  -0.40067
 Alpha  occ. eigenvalues --   -0.37681  -0.35691  -0.33665  -0.32706  -0.31482
 Alpha  occ. eigenvalues --   -0.29436  -0.28724  -0.25069  -0.22314
 Alpha virt. eigenvalues --    0.06530   0.08841   0.10336   0.11335   0.12809
 Alpha virt. eigenvalues --    0.13222   0.14430   0.14955   0.15813   0.16931
 Alpha virt. eigenvalues --    0.18042   0.18890   0.21610   0.21670   0.23731

 Mulliken charges:
               1
     1  O   -0.429032
     2  C    0.023228
     3  C   -0.251635
     4  C   -0.100960
     5  O   -0.328308
     6  C    0.466914
     7  C   -0.103709
     8  C   -0.266619
     9  C   -0.273669
    10  H    0.291063
    11  H    0.086692
    12  H    0.099860
    13  H    0.103089
    14  H    0.111528
    15  H    0.103505
    16  H    0.110620
    17  H    0.131330
    18  H    0.107354
    19  H    0.118747
 Sum of Mulliken charges =   0.00000

 Dipole moment (field-independent basis, Debye):
    X=             -1.7684    Y=             -0.0975    Z=              1.4587  Tot=              2.2944
 Quadrupole moment (field-independent basis, Debye-Ang):
   XX=            -46.8034   YY=            -53.3283   ZZ=            -53.1178
   XY=             -0.4143   XZ=             -0.9640   YZ=              0.1367

  Exact polarizability:  87.088  -2.046  76.978  -0.768   1.426  65.554
 Approx polarizability: 115.759  -0.328 111.068  -4.456   1.473 101.531

                      1                      2                      3
                      A                      A                      A
 Frequencies --     76.2300               141.1574               178.7100
 Red. masses --      2.6970                 3.4383                 3.0570
 Frc consts  --      0.0092                 0.0404                 0.0575
 IR Inten    --      0.6954                 2.1456                 4.9021

                      4                      5                      6
                      A                      A                      A
 Frequencies --    238.3588               280.7602               301.6782
 Red. masses --      4.0327                 2.2981                 1.8072
 Frc consts  --      0.1350                 0.1067                 0.0969
 IR Inten    --      3.4823                12.3648                24.9161

                      7                      8                      9
                      A                      A                      A
 Frequencies --    332.9311               443.2472               472.0973
 Red. masses --      1.7923                 3.3578                 3.6793
 Frc consts  --      0.1170                 0.3887                 0.4831
 IR Inten    --     66.5798                 3.5012                 3.6930

                     10                     11                     12
                      A                      A                      A
 Frequencies --    549.8066               644.7785               749.9189
 Red. masses --      4.2920                 2.7443                 3.2328
 Frc consts  --      0.7644                 0.6722                 1.0712
 IR Inten    --      7.4870                 2.4189                 5.2525

                     13                     14                     15
                      A                      A                      A
 Frequencies --    792.2076               819.3259               882.4801
 Red. masses --      1.0789                 1.2989                 2.3023
 Frc consts  --      0.3989                 0.5137                 1.0564
 IR Inten    --      0.8805                 4.3149                 8.2311

                     16                     17                     18
                      A                      A                      A
 Frequencies --    892.0289               921.2733               950.3971
 Red. masses --      3.1346                 2.4030                 2.8379
 Frc consts  --      1.4696                 1.2016                 1.5103
 IR Inten    --     20.6772                 9.9913                 0.1352

                     19                     20                     21
                      A                      A                      A
 Frequencies --    962.3386               983.2365               990.5656
 Red. masses --      2.3760                 3.2698                 2.3948
 Frc consts  --      1.2964                 1.8625                 1.3845
 IR Inten    --      8.0941                16.2487                72.7175

                     22                     23                     24
                      A                      A                      A
 Frequencies --   1035.2673              1059.1062              1069.9812
 Red. masses --      1.9021                 1.3952                 1.3452
 Frc consts  --      1.2011                 0.9221                 0.9074
 IR Inten    --     10.6261                 1.0735                 3.6479

                     25                     26                     27
                      A                      A                      A
 Frequencies --   1085.4680              1107.3363              1135.1459
 Red. masses --      1.3599                 2.0886                 1.1130
 Frc consts  --      0.9441                 1.5089                 0.8450
 IR Inten    --      1.4969                11.6196                 1.1992

                     28                     29                     30
                      A                      A                      A
 Frequencies --   1149.5985              1160.7503              1195.7957
 Red. masses --      2.6389                 1.3527                 2.0610
 Frc consts  --      2.0548                 1.0738                 1.7364
 IR Inten    --     67.5000                18.7650                 1.7590

                     31                     32                     33
                      A                      A                      A
 Frequencies --   1202.5280              1217.3160              1255.6532
 Red. masses --      1.3671                 2.1785                 1.8290
 Frc consts  --      1.1648                 1.9020                 1.6990
 IR Inten    --      0.5643                 0.4981                 1.7418

                     34                     35                     36
                      A                      A                      A
 Frequencies --   1276.6282              1300.7471              1349.1504
 Red. masses --      1.3402                 1.4910                 1.4938
 Frc consts  --      1.2869                 1.4863                 1.6020
 IR Inten    --     96.3636                10.8501                 0.2969

                     37                     38                     39
                      A                      A                      A
 Frequencies --   1400.3249              1461.6814              1480.6070
 Red. masses --      1.7473                 1.0883                 1.7112
 Frc consts  --      2.0188                 1.3700                 2.2102
 IR Inten    --      4.0381                 1.7003                 7.0071

                     40                     41                     42
                      A                      A                      A
 Frequencies --   1511.3933              1520.0256              3018.7156
 Red. masses --      1.7473                 1.3511                 1.0551
 Frc consts  --      2.3516                 1.8393                 5.6650
 IR Inten    --      3.9493                 0.4090                85.6563

                     43                     44                     45
                      A                      A                      A
 Frequencies --   3065.4034              3067.0256              3135.9102
 Red. masses --      1.0917                 1.1065                 1.0515
 Frc consts  --      6.0440                 6.1324                 6.0925
 IR Inten    --     13.6499                63.2638                17.5993

                     46                     47                     48
                      A                      A                      A
 Frequencies --   3141.1560              3180.7546              3198.1464
 Red. masses --      1.0565                 1.0887                 1.0939
 Frc consts  --      6.1421                 6.4899                 6.5921
 IR Inten    --     12.1120                 1.4775                 8.8101

                     49                     50                     51
                      A                      A                      A
 Frequencies --   3219.2582              3234.4431              3798.1988
 Red. masses --      1.1180                 1.1156                 1.0664
 Frc consts  --      6.8264                 6.8761                 9.0641
 IR Inten    --      1.0925                13.4305                21.3212

 - Thermochemistry -
 -------------------
 Temperature   298.150 Kelvin.  Pressure   1.00000 Atm.
 Atom     1 has atomic number  8 and mass  15.99491

 Molecular mass:   126.06808 amu.
 Principal axes and moments of inertia in atomic units:
                           1         2         3
     Eigenvalues --   729.612991196.433711633.18840
           X            0.99954  -0.03033   0.00026
           Y            0.03032   0.99949   0.01021
           Z           -0.00057  -0.01019   0.99995
 This molecule is an asymmetric top.
 Rotational symmetry number  1.
 Warning -- assumption of classical behavior for rotation
           may cause significant error
 Rotational temperatures (Kelvin)      0.11871     0.07239     0.05303
 Rotational constants (GHZ):           2.47356     1.50843     1.10504
 Zero-point vibrational energy     416522.0 (Joules/Mol)
                                   99.55115 (Kcal/Mol)
 Warning -- explicit consideration of  10 degrees of freedom as
           vibrations may cause significant error
 Vibrational temperatures:    109.68   203.09   257.12   342.94   403.95
          (Kelvin)            434.05   479.01   637.73   679.24   791.05
                              927.69  1078.96  1139.81  1178.83  1269.69
                             1283.43  1325.51  1367.41  1384.59  1414.66
                             1425.20  1489.52  1523.82  1539.46  1561.74
                             1593.21  1633.22  1654.01  1670.06  1720.48
                             1730.17  1751.44  1806.60  1836.78  1871.48
                             1941.12  2014.75  2103.03  2130.26  2174.56
                             2186.98  4343.25  4410.43  4412.76  4511.87
                             4519.42  4576.39  4601.41  4631.79  4653.64
                             5464.75

 Zero-point correction=                           0.158645 (Hartree/Particle)
 Thermal correction to Energy=                    0.167001
 Thermal correction to Enthalpy=                  0.167945
 Thermal correction to Gibbs Free Energy=         0.125637
 Sum of electronic and zero-point Energies=           -422.957808
 Sum of electronic and thermal Energies=              -422.949452
 Sum of electronic and thermal Enthalpies=            -422.948508
 Sum of electronic and thermal Free Energies=         -422.990816

                     E (Thermal)             CV                S
                      KCal/Mol        Cal/Mol-Kelvin    Cal/Mol-Kelvin
 Total                  104.795             32.288             89.046
 Electronic               0.000              0.000              0.000
 Translational            0.889              2.981             40.409
 Rotational               0.889              2.981             28.746
 Vibrational            103.017             26.326             19.891
 Vibration     1          0.599              1.965              3.986
 Vibration     2          0.615              1.912              2.788
 Vibration     3          0.629              1.868              2.342
 Vibration     4          0.656              1.782              1.815
 Vibration     5          0.680              1.709              1.529
 Vibration     6          0.694              1.671              1.408
 Vibration     7          0.715              1.610              1.246
 Vibration     8          0.803              1.376              0.816
 Vibration     9          0.829              1.312              0.732
 Vibration    10          0.905              1.140              0.545

 Normal termination of Gaussian 09 at Tue Jan 28 00:49:30 2020.
