 Gaussian 09, Revision D.01,
 Gaussian 09:  ES64L-G09RevD.01 24-Apr-2013

 -----------------------------
 # b3lyp 6-31G(2df,p) opt Freq
 -----------------------------

 -----
 titel
 -----
 Symbolic Z-matrix:
 Charge =  0 Multiplicity = 1

 SCF Done:  E(RB3LYP) =  -423.157986877     A.U. after   15 cycles
 Optimization completed.
    -- Stationary point found.
 Normal termination of Gaussian 09 at Tue Jan 28 08:22:56 2020.

 ----------------------------------------------------------------------
 #N Geom=AllCheck Guess=TCheck SCRF=Check GenChk RB3LYP/6-31G(2df,p) Fr
 eq
 ----------------------------------------------------------------------

 Structure from the checkpoint file:  "/scratch/puck/g09_7baad1de-be55-4d0b-9513-7005421494cc/Gau-60276.chk"
 -----
 titel
 -----
 Charge =  0 Multiplicity = 1

                         Standard orientation:
 ---------------------------------------------------------------------
 Center     Atomic      Atomic             Coordinates (Angstroms)
 Number     Number       Type             X           Y           Z
 ---------------------------------------------------------------------
      1          6           0       -0.384165   -1.104630   -1.230526
      2          6           0       -0.386904   -0.193472    0.014737
      3          6           0       -0.363767   -1.054275    1.295521
      4          6           0       -1.635264    0.717995    0.015373
      5          8           0       -2.847927   -0.020912    0.059445
      6          6           0        0.856704    0.698866   -0.012703
      7          8           0        0.805166    1.910935   -0.024855
      8          6           0        2.146543    0.018205   -0.015902
      9          6           0        3.218172   -0.530833   -0.018022
     10          1           0       -1.244945   -1.779652   -1.196540
     11          1           0       -0.437314   -0.519486   -2.155453
     12          1           0        0.518286   -1.719745   -1.270978
     13          1           0       -1.301364   -1.611546    1.362113
     14          1           0        0.470784   -1.760070    1.288964
     15          1           0       -0.277680   -0.429488    2.190561
     16          1           0       -1.626963    1.347210    0.909256
     17          1           0       -1.604291    1.391096   -0.850600
     18          1           0       -3.033247   -0.346949   -0.825652
     19          1           0        4.170920   -1.002681   -0.019247
 ---------------------------------------------------------------------

 SCF Done:  E(RB3LYP) =  -423.157986877     A.U. after    1 cycles

 The electronic state is 1-A.
 Alpha  occ. eigenvalues --  -19.14432 -19.14049 -10.29208 -10.22619 -10.20952
 Alpha  occ. eigenvalues --  -10.20818 -10.20302 -10.18967 -10.18111  -1.05468
 Alpha  occ. eigenvalues --   -1.02041  -0.82526  -0.77308  -0.69829  -0.68267
 Alpha  occ. eigenvalues --   -0.66311  -0.58065  -0.53389  -0.50378  -0.48974
 Alpha  occ. eigenvalues --   -0.46652  -0.45126  -0.43489  -0.41842  -0.39135
 Alpha  occ. eigenvalues --   -0.38540  -0.37900  -0.36557  -0.34872  -0.32486
 Alpha  occ. eigenvalues --   -0.29975  -0.29881  -0.27534  -0.25847
 Alpha virt. eigenvalues --   -0.05971   0.03075   0.06468   0.09560   0.10648
 Alpha virt. eigenvalues --    0.10880   0.13492   0.13888   0.14855   0.15700
 Alpha virt. eigenvalues --    0.16525   0.18917   0.19447   0.20894   0.21115

 Mulliken charges:
               1
     1  C   -0.443711
     2  C    0.106858
     3  C   -0.425240
     4  C   -0.086883
     5  O   -0.428770
     6  C    0.228712
     7  O   -0.310397
     8  C    0.275661
     9  C   -0.402067
    10  H    0.120859
    11  H    0.120364
    12  H    0.134447
    13  H    0.139346
    14  H    0.123020
    15  H    0.123349
    16  H    0.121311
    17  H    0.102992
    18  H    0.286394
    19  H    0.213756
 Sum of Mulliken charges =   0.00000

 Dipole moment (field-independent basis, Debye):
    X=              0.8872    Y=             -2.6966    Z=             -1.1760  Tot=              3.0728
 Quadrupole moment (field-independent basis, Debye-Ang):
   XX=            -49.4889   YY=            -57.7087   ZZ=            -51.5066
   XY=             -4.2128   XZ=              4.1668   YZ=              0.7963

  Exact polarizability:  97.527  -8.831  74.115   0.912   0.463  62.432
 Approx polarizability: 140.412 -22.688 125.255   0.477   0.731  90.793

                      1                      2                      3
                      A                      A                      A
 Frequencies --     40.1047               116.4612               130.7783
 Red. masses --      4.8173                 2.7298                 4.2535
 Frc consts  --      0.0046                 0.0218                 0.0429
 IR Inten    --      1.1684                 3.9328                 0.8863

                      4                      5                      6
                      A                      A                      A
 Frequencies --    179.0533               215.8831               221.8989
 Red. masses --      1.9191                 1.4046                 4.9947
 Frc consts  --      0.0362                 0.0386                 0.1449
 IR Inten    --      1.3869                 8.5206                14.3950

                      7                      8                      9
                      A                      A                      A
 Frequencies --    246.2303               286.9312               301.4130
 Red. masses --      1.0701                 3.4205                 2.2341
 Frc consts  --      0.0382                 0.1659                 0.1196
 IR Inten    --      9.7559                 8.6736                24.2398

                     10                     11                     12
                      A                      A                      A
 Frequencies --    325.8135               341.2230               376.7665
 Red. masses --      1.4848                 2.6017                 1.9026
 Frc consts  --      0.0929                 0.1785                 0.1591
 IR Inten    --     53.7718                 2.8135                10.4075

                     13                     14                     15
                      A                      A                      A
 Frequencies --    413.8757               489.3051               636.5211
 Red. masses --      6.2913                 4.6164                 5.1087
 Frc consts  --      0.6349                 0.6512                 1.2195
 IR Inten    --      2.1798                 3.4312                 7.4899

                     16                     17                     18
                      A                      A                      A
 Frequencies --    646.6356               703.6865               713.3278
 Red. masses --      1.2516                 1.3269                 4.2917
 Frc consts  --      0.3083                 0.3871                 1.2867
 IR Inten    --     40.5333                25.9786                 3.1160

                     19                     20                     21
                      A                      A                      A
 Frequencies --    765.7400               822.1198               913.9031
 Red. masses --      5.5032                 2.8391                 1.6242
 Frc consts  --      1.9012                 1.1306                 0.7992
 IR Inten    --      7.6315                 0.1403                12.8570

                     22                     23                     24
                      A                      A                      A
 Frequencies --    959.6799               993.9476              1027.2708
 Red. masses --      1.3297                 2.0258                 1.4304
 Frc consts  --      0.7215                 1.1792                 0.8894
 IR Inten    --      3.1525                 3.6701                37.8379

                     25                     26                     27
                      A                      A                      A
 Frequencies --   1036.6023              1092.6229              1127.9209
 Red. masses --      3.3289                 4.0083                 1.6851
 Frc consts  --      2.1076                 2.8194                 1.2631
 IR Inten    --    249.6483                 7.1490                13.8770

                     28                     29                     30
                      A                      A                      A
 Frequencies --   1237.0458              1268.9395              1269.8285
 Red. masses --      2.8667                 2.9289                 1.7085
 Frc consts  --      2.5847                 2.7787                 1.6232
 IR Inten    --      2.0088                14.4737                20.8038

                     31                     32                     33
                      A                      A                      A
 Frequencies --   1387.6936              1389.9777              1403.8208
 Red. masses --      1.2571                 1.2179                 1.1883
 Frc consts  --      1.4263                 1.3863                 1.3798
 IR Inten    --      4.6571                 2.6591                34.5664

                     34                     35                     36
                      A                      A                      A
 Frequencies --   1422.1606              1484.1025              1487.5624
 Red. masses --      1.2360                 1.0534                 1.0682
 Frc consts  --      1.4729                 1.3671                 1.3927
 IR Inten    --      3.1242                 0.9186                 0.7633

                     37                     38                     39
                      A                      A                      A
 Frequencies --   1491.8673              1509.6502              1513.6083
 Red. masses --      1.0495                 1.0567                 1.0642
 Frc consts  --      1.3762                 1.4189                 1.4365
 IR Inten    --      0.5098                12.1682                12.7772

                     40                     41                     42
                      A                      A                      A
 Frequencies --   1753.9035              2206.6631              3026.9696
 Red. masses --     13.0419                 5.9135                 1.0634
 Frc consts  --     23.6375                16.9656                 5.7409
 IR Inten    --    161.3132                56.3036                30.2789

                     43                     44                     45
                      A                      A                      A
 Frequencies --   3033.1420              3042.3634              3098.5750
 Red. masses --      1.0377                 1.0360                 1.0991
 Frc consts  --      5.6251                 5.6498                 6.2177
 IR Inten    --     26.5174                 8.3591                14.4963

                     46                     47                     48
                      A                      A                      A
 Frequencies --   3102.0295              3113.2162              3120.1326
 Red. masses --      1.1011                 1.1002                 1.0998
 Frc consts  --      6.2426                 6.2828                 6.3084
 IR Inten    --     22.9574                19.3918                13.0119

                     49                     50                     51
                      A                      A                      A
 Frequencies --   3131.4865              3493.2091              3836.6964
 Red. masses --      1.1022                 1.1616                 1.0663
 Frc consts  --      6.3679                 8.3510                 9.2482
 IR Inten    --     14.3199                54.7723                22.3839

 - Thermochemistry -
 -------------------
 Temperature   298.150 Kelvin.  Pressure   1.00000 Atm.
 Atom     1 has atomic number  6 and mass  12.00000

 Molecular mass:   126.06808 amu.
 Principal axes and moments of inertia in atomic units:
                           1         2         3
     Eigenvalues --   628.254901637.369471860.27424
           X            0.99986  -0.01545   0.00662
           Y            0.01541   0.99986   0.00599
           Z           -0.00671  -0.00589   0.99996
 This molecule is an asymmetric top.
 Rotational symmetry number  1.
 Warning -- assumption of classical behavior for rotation
           may cause significant error
 Rotational temperatures (Kelvin)      0.13786     0.05290     0.04656
 Rotational constants (GHZ):           2.87263     1.10222     0.97015
 Zero-point vibrational energy     406433.4 (Joules/Mol)
                                   97.13992 (Kcal/Mol)
 Warning -- explicit consideration of  14 degrees of freedom as
           vibrations may cause significant error
 Vibrational temperatures:     57.70   167.56   188.16   257.62   310.61
          (Kelvin)            319.26   354.27   412.83   433.67   468.77
                              490.94   542.08   595.47   704.00   915.81
                              930.36  1012.45  1026.32  1101.73  1182.85
                             1314.90  1380.76  1430.07  1478.01  1491.44
                             1572.04  1622.82  1779.83  1825.72  1827.00
                             1996.58  1999.87  2019.78  2046.17  2135.29
                             2140.27  2146.46  2172.05  2177.74  2523.47
                             3174.89  4355.13  4364.01  4377.28  4458.15
                             4463.12  4479.22  4489.17  4505.51  5025.94
                             5520.14

 Zero-point correction=                           0.154802 (Hartree/Particle)
 Thermal correction to Energy=                    0.165495
 Thermal correction to Enthalpy=                  0.166439
 Thermal correction to Gibbs Free Energy=         0.119160
 Sum of electronic and zero-point Energies=           -423.003185
 Sum of electronic and thermal Energies=              -422.992492
 Sum of electronic and thermal Enthalpies=            -422.991547
 Sum of electronic and thermal Free Energies=         -423.038827

                     E (Thermal)             CV                S
                      KCal/Mol        Cal/Mol-Kelvin    Cal/Mol-Kelvin
 Total                  103.850             38.588             99.507
 Electronic               0.000              0.000              0.000
 Translational            0.889              2.981             40.409
 Rotational               0.889              2.981             29.038
 Vibrational            102.072             32.626             30.060
 Vibration     1          0.594              1.981              5.254
 Vibration     2          0.608              1.936              3.158
 Vibration     3          0.612              1.923              2.935
 Vibration     4          0.629              1.868              2.338
 Vibration     5          0.645              1.817              1.993
 Vibration     6          0.648              1.808              1.944
 Vibration     7          0.661              1.769              1.757
 Vibration     8          0.684              1.698              1.492
 Vibration     9          0.693              1.671              1.409
 Vibration    10          0.710              1.624              1.281
 Vibration    11          0.721              1.593              1.206
 Vibration    12          0.747              1.520              1.052
 Vibration    13          0.777              1.440              0.913
 Vibration    14          0.845              1.274              0.685

 Optimization completed.
    -- Stationary point found.
 Normal termination of Gaussian 09 at Tue Jan 28 10:15:56 2020.
