 Gaussian 09, Revision D.01,
 Gaussian 09:  ES64L-G09RevD.01 24-Apr-2013

 -----------------------------
 # b3lyp 6-31G(2df,p) opt Freq
 -----------------------------

 -----
 titel
 -----
 Symbolic Z-matrix:
 Charge =  0 Multiplicity = 1

 SCF Done:  E(RB3LYP) =  -423.159056236     A.U. after   14 cycles
 Optimization completed.
    -- Stationary point found.
 Normal termination of Gaussian 09 at Tue Jan 28 14:13:02 2020.

 ----------------------------------------------------------------------
 #N Geom=AllCheck Guess=TCheck SCRF=Check GenChk RB3LYP/6-31G(2df,p) Fr
 eq
 ----------------------------------------------------------------------

 Structure from the checkpoint file:  "/scratch/puck/g09_4f8cab74-e967-4ad3-b764-6637843b5088/Gau-33705.chk"
 -----
 titel
 -----
 Charge =  0 Multiplicity = 1

                         Standard orientation:
 ---------------------------------------------------------------------
 Center     Atomic      Atomic             Coordinates (Angstroms)
 Number     Number       Type             X           Y           Z
 ---------------------------------------------------------------------
      1          6           0        3.619204   -0.168778   -0.000565
      2          8           0        2.261421   -0.286750   -0.352271
      3          6           0        1.423986    0.565710    0.407056
      4          6           0        0.002283    0.312189    0.028360
      5          6           0       -0.931140    1.231341   -0.243866
      6          6           0       -2.262863    0.585079   -0.427384
      7          8           0       -2.718598   -0.126858    0.748496
      8          6           0       -2.049856   -0.865879   -0.275227
      9          6           0       -0.567795   -1.097705   -0.015781
     10          1           0        3.790728   -0.420891    1.058243
     11          1           0        4.180754   -0.866835   -0.625961
     12          1           0        4.000272    0.850026   -0.174829
     13          1           0        1.568569    0.363103    1.484897
     14          1           0        1.685136    1.623928    0.241796
     15          1           0       -0.769285    2.301877   -0.286350
     16          1           0       -3.050023    1.027385   -1.030019
     17          1           0       -2.652986   -1.615033   -0.780938
     18          1           0       -0.397094   -1.640541    0.921934
     19          1           0       -0.101560   -1.685903   -0.814126
 ---------------------------------------------------------------------

 SCF Done:  E(RB3LYP) =  -423.159056235     A.U. after    1 cycles

 The electronic state is 1-A.
 Alpha  occ. eigenvalues --  -19.14380 -19.14092 -10.23498 -10.23175 -10.23047
 Alpha  occ. eigenvalues --  -10.22710 -10.19346 -10.18712 -10.18180  -1.06165
 Alpha  occ. eigenvalues --   -1.03635  -0.82674  -0.73353  -0.71544  -0.66392
 Alpha  occ. eigenvalues --   -0.62365  -0.57811  -0.53610  -0.52084  -0.48555
 Alpha  occ. eigenvalues --   -0.47706  -0.45382  -0.43506  -0.42904  -0.40579
 Alpha  occ. eigenvalues --   -0.38737  -0.37865  -0.36801  -0.35299  -0.32288
 Alpha  occ. eigenvalues --   -0.30285  -0.26108  -0.25714  -0.24033
 Alpha virt. eigenvalues --   -0.00023   0.08972   0.11245   0.11597   0.13124
 Alpha virt. eigenvalues --    0.13880   0.14439   0.15468   0.15675   0.16205
 Alpha virt. eigenvalues --    0.16892   0.17492   0.18590   0.20005   0.20740

 Mulliken charges:
               1
     1  C   -0.220395
     2  O   -0.235246
     3  C   -0.178888
     4  C    0.325070
     5  C   -0.215364
     6  C    0.015128
     7  O   -0.260574
     8  C    0.033064
     9  C   -0.325695
    10  H    0.104320
    11  H    0.128495
    12  H    0.104875
    13  H    0.096595
    14  H    0.093905
    15  H    0.096693
    16  H    0.095585
    17  H    0.094810
    18  H    0.121134
    19  H    0.126485
 Sum of Mulliken charges =   0.00000

 Dipole moment (field-independent basis, Debye):
    X=              1.7297    Y=              0.3722    Z=             -0.6690  Tot=              1.8916
 Quadrupole moment (field-independent basis, Debye-Ang):
   XX=            -52.0574   YY=            -49.7143   ZZ=            -54.7721
   XY=              0.6178   XZ=              6.5239   YZ=             -0.1511

  Exact polarizability:  99.640  -4.668  77.957   4.910  -1.837  57.494
 Approx polarizability: 126.141 -13.089 121.566   3.752  -4.221  92.948

                      1                      2                      3
                      A                      A                      A
 Frequencies --     64.6698                95.4612               112.0617
 Red. masses --      3.3197                 2.3302                 3.5709
 Frc consts  --      0.0082                 0.0125                 0.0264
 IR Inten    --      0.1515                 4.5964                 3.7947

                      4                      5                      6
                      A                      A                      A
 Frequencies --    212.6876               234.5083               333.5096
 Red. masses --      2.7449                 1.4139                 2.9822
 Frc consts  --      0.0732                 0.0458                 0.1954
 IR Inten    --      0.9224                 3.3243                 2.4431

                      7                      8                      9
                      A                      A                      A
 Frequencies --    353.5764               370.8857               482.0617
 Red. masses --      2.5962                 2.4842                 2.6863
 Frc consts  --      0.1912                 0.2013                 0.3678
 IR Inten    --      1.2995                 3.0438                 1.6788

                     10                     11                     12
                      A                      A                      A
 Frequencies --    533.6292               691.3094               722.1677
 Red. masses --      4.0244                 3.3566                 5.7489
 Frc consts  --      0.6752                 0.9451                 1.7665
 IR Inten    --     13.3891                 0.7347                 1.6627

                     13                     14                     15
                      A                      A                      A
 Frequencies --    813.8407               850.6057               864.8713
 Red. masses --      3.1795                 2.3538                 2.4624
 Frc consts  --      1.2407                 1.0034                 1.0852
 IR Inten    --      2.3500                21.2294                 6.1303

                     16                     17                     18
                      A                      A                      A
 Frequencies --    874.3234               926.8249               954.3710
 Red. masses --      2.5162                 2.4180                 1.8548
 Frc consts  --      1.1333                 1.2238                 0.9954
 IR Inten    --     35.6272                 9.3256                 7.5418

                     19                     20                     21
                      A                      A                      A
 Frequencies --    982.1946              1002.8452              1020.9452
 Red. masses --      2.9812                 1.8253                 1.7256
 Frc consts  --      1.6945                 1.0815                 1.0597
 IR Inten    --     20.6498                 7.5895                 3.7083

                     22                     23                     24
                      A                      A                      A
 Frequencies --   1048.4858              1109.8318              1146.6034
 Red. masses --      1.8822                 1.3205                 5.3108
 Frc consts  --      1.2191                 0.9583                 4.1137
 IR Inten    --      0.4378                 1.6404               129.6453

                     25                     26                     27
                      A                      A                      A
 Frequencies --   1177.4438              1185.6194              1199.8494
 Red. masses --      1.2688                 1.2837                 2.2754
 Frc consts  --      1.0364                 1.0632                 1.9300
 IR Inten    --      5.4414                 6.5228                69.4147

                     28                     29                     30
                      A                      A                      A
 Frequencies --   1221.6923              1243.9289              1258.7723
 Red. masses --      1.5373                 1.2660                 1.4058
 Frc consts  --      1.3518                 1.1542                 1.3124
 IR Inten    --     25.5561                 3.0539                 8.9628

                     31                     32                     33
                      A                      A                      A
 Frequencies --   1284.8159              1308.5617              1358.1710
 Red. masses --      1.2776                 1.8485                 2.1291
 Frc consts  --      1.2426                 1.8649                 2.3139
 IR Inten    --      1.8268                 3.0645                 8.3998

                     34                     35                     36
                      A                      A                      A
 Frequencies --   1400.4820              1413.8824              1457.4239
 Red. masses --      1.8192                 1.9426                 1.0974
 Frc consts  --      2.1023                 2.2880                 1.3734
 IR Inten    --     63.4271                13.3723                 3.3997

                     37                     38                     39
                      A                      A                      A
 Frequencies --   1478.7088              1484.7754              1498.1408
 Red. masses --      1.1532                 1.0511                 1.0717
 Frc consts  --      1.4857                 1.3653                 1.4171
 IR Inten    --      1.0215                 4.9026                 6.6714

                     40                     41                     42
                      A                      A                      A
 Frequencies --   1517.9997              1699.7293              2929.0277
 Red. masses --      1.0781                 7.5058                 1.0646
 Frc consts  --      1.4637                12.7763                 5.3814
 IR Inten    --      3.0658                 4.4331                37.7120

                     43                     44                     45
                      A                      A                      A
 Frequencies --   2968.4484              2981.8375              3012.6721
 Red. masses --      1.0414                 1.0880                 1.1031
 Frc consts  --      5.4068                 5.6995                 5.8987
 IR Inten    --     68.2944                56.8705                54.0972

                     46                     47                     48
                      A                      A                      A
 Frequencies --   3039.3161              3075.5975              3115.6791
 Red. masses --      1.0605                 1.1009                 1.0958
 Frc consts  --      5.7718                 6.1359                 6.2674
 IR Inten    --     17.1002                 9.5240                28.1962

                     49                     50                     51
                      A                      A                      A
 Frequencies --   3148.6915              3166.6025              3204.0470
 Red. masses --      1.0890                 1.0930                 1.0954
 Frc consts  --      6.3610                 6.4575                 6.6256
 IR Inten    --     21.3096                39.4904                10.5198

 - Thermochemistry -
 -------------------
 Temperature   298.150 Kelvin.  Pressure   1.00000 Atm.
 Atom     1 has atomic number  6 and mass  12.00000

 Molecular mass:   126.06808 amu.
 Principal axes and moments of inertia in atomic units:
                           1         2         3
     Eigenvalues --   341.034312149.185342320.55348
           X            0.99988   0.00319   0.01536
           Y           -0.00329   0.99997   0.00641
           Z           -0.01533  -0.00646   0.99986
 This molecule is an asymmetric top.
 Rotational symmetry number  1.
 Rotational temperatures (Kelvin)      0.25397     0.04030     0.03732
 Rotational constants (GHZ):           5.29196     0.83973     0.77772
 Zero-point vibrational energy     416504.9 (Joules/Mol)
                                   99.54707 (Kcal/Mol)
 Warning -- explicit consideration of  10 degrees of freedom as
           vibrations may cause significant error
 Vibrational temperatures:     93.05   137.35   161.23   306.01   337.40
          (Kelvin)            479.85   508.72   533.62   693.58   767.77
                              994.64  1039.04  1170.93  1223.83  1244.36
                             1257.95  1333.49  1373.13  1413.16  1442.87
                             1468.91  1508.54  1596.80  1649.70  1694.08
                             1705.84  1726.31  1757.74  1789.73  1811.09
                             1848.56  1882.73  1954.10  2014.98  2034.26
                             2096.91  2127.53  2136.26  2155.49  2184.06
                             2445.53  4214.21  4270.93  4290.19  4334.56
                             4372.89  4425.09  4482.76  4530.26  4556.03
                             4609.90

 Zero-point correction=                           0.158638 (Hartree/Particle)
 Thermal correction to Energy=                    0.167223
 Thermal correction to Enthalpy=                  0.168167
 Thermal correction to Gibbs Free Energy=         0.124724
 Sum of electronic and zero-point Energies=           -423.000418
 Sum of electronic and thermal Energies=              -422.991834
 Sum of electronic and thermal Enthalpies=            -422.990889
 Sum of electronic and thermal Free Energies=         -423.034332

                     E (Thermal)             CV                S
                      KCal/Mol        Cal/Mol-Kelvin    Cal/Mol-Kelvin
 Total                  104.934             31.625             91.433
 Electronic               0.000              0.000              0.000
 Translational            0.889              2.981             40.409
 Rotational               0.889              2.981             28.921
 Vibrational            103.156             25.663             22.103
 Vibration     1          0.597              1.971              4.309
 Vibration     2          0.603              1.952              3.545
 Vibration     3          0.607              1.939              3.233
 Vibration     4          0.644              1.822              2.020
 Vibration     5          0.654              1.788              1.844
 Vibration     6          0.715              1.609              1.243
 Vibration     7          0.730              1.568              1.150
 Vibration     8          0.743              1.532              1.076
 Vibration     9          0.838              1.290              0.705
 Vibration    10          0.889              1.176              0.579

 Optimization completed.
    -- Stationary point found.
 Normal termination of Gaussian 09 at Tue Jan 28 14:49:32 2020.
