 Gaussian 09, Revision D.01,
 Gaussian 09:  ES64L-G09RevD.01 24-Apr-2013

 -----------------------------
 # b3lyp 6-31G(2df,p) opt Freq
 -----------------------------

 -----
 titel
 -----
 Symbolic Z-matrix:
 Charge =  0 Multiplicity = 1

 SCF Done:  E(RB3LYP) =  -423.209261572     A.U. after   14 cycles
 Optimization completed.
    -- Stationary point found.
 Normal termination of Gaussian 09 at Tue Jan 28 00:49:40 2020.

 ----------------------------------------------------------------------
 #N Geom=AllCheck Guess=TCheck SCRF=Check GenChk RB3LYP/6-31G(2df,p) Fr
 eq
 ----------------------------------------------------------------------

 Structure from the checkpoint file:  "/scratch/puck/g09_0b133160-37f6-4b5d-84bb-886d16b598e1/Gau-38543.chk"
 -----
 titel
 -----
 Charge =  0 Multiplicity = 1

                         Standard orientation:
 ---------------------------------------------------------------------
 Center     Atomic      Atomic             Coordinates (Angstroms)
 Number     Number       Type             X           Y           Z
 ---------------------------------------------------------------------
      1          8           0       -0.478216   -1.418613    1.205831
      2          6           0       -0.723948   -1.319956   -0.198373
      3          6           0        0.588133   -0.990867   -0.955304
      4          6           0        1.369474    0.117750   -0.257322
      5          8           0        2.406330   -0.133670    0.315715
      6          6           0        0.795503    1.525866   -0.272554
      7          6           0       -0.516266    1.663633    0.545557
      8          6           0       -1.715098    0.998361   -0.085788
      9          6           0       -1.807418   -0.288984   -0.417981
     10          1           0        0.329852   -1.928991    1.333722
     11          1           0       -1.086588   -2.285085   -0.581068
     12          1           0        1.235473   -1.873713   -0.972985
     13          1           0        0.348487   -0.714521   -1.987600
     14          1           0        1.560447    2.184058    0.147309
     15          1           0        0.602503    1.829539   -1.308901
     16          1           0       -0.347209    1.251967    1.546460
     17          1           0       -0.718432    2.731286    0.668959
     18          1           0       -2.570765    1.639174   -0.286262
     19          1           0       -2.720960   -0.650274   -0.881410
 ---------------------------------------------------------------------

 SCF Done:  E(RB3LYP) =  -423.209261572     A.U. after    1 cycles

 The electronic state is 1-A.
 Alpha  occ. eigenvalues --  -19.14196 -19.12723 -10.26757 -10.24765 -10.19459
 Alpha  occ. eigenvalues --  -10.19287 -10.19197 -10.19070 -10.18446  -1.03883
 Alpha  occ. eigenvalues --   -1.02220  -0.82285  -0.76655  -0.75230  -0.66076
 Alpha  occ. eigenvalues --   -0.63830  -0.54487  -0.52734  -0.49487  -0.48840
 Alpha  occ. eigenvalues --   -0.46922  -0.46136  -0.43488  -0.42656  -0.39697
 Alpha  occ. eigenvalues --   -0.38623  -0.38127  -0.36483  -0.34935  -0.34298
 Alpha  occ. eigenvalues --   -0.32020  -0.27807  -0.25625  -0.24040
 Alpha virt. eigenvalues --   -0.01398   0.00096   0.07622   0.09865   0.11715
 Alpha virt. eigenvalues --    0.12970   0.13716   0.15879   0.16695   0.17774
 Alpha virt. eigenvalues --    0.18005   0.18677   0.20383   0.20546   0.22363

 Mulliken charges:
               1
     1  O   -0.428815
     2  C    0.066466
     3  C   -0.338115
     4  C    0.396654
     5  O   -0.312371
     6  C   -0.285109
     7  C   -0.258519
     8  C   -0.049241
     9  C   -0.048043
    10  H    0.291293
    11  H    0.075666
    12  H    0.112594
    13  H    0.116890
    14  H    0.118467
    15  H    0.108916
    16  H    0.143362
    17  H    0.105073
    18  H    0.094502
    19  H    0.090329
 Sum of Mulliken charges =   0.00000

 Dipole moment (field-independent basis, Debye):
    X=             -1.5561    Y=              0.1997    Z=             -1.8306  Tot=              2.4109
 Quadrupole moment (field-independent basis, Debye-Ang):
   XX=            -60.1033   YY=            -47.3783   ZZ=            -53.5180
   XY=             -1.2510   XZ=              0.5522   YZ=              1.0135

  Exact polarizability:  81.746  -1.928  85.918   5.870   4.863  61.455
 Approx polarizability: 119.094  -3.839 126.759  12.743   6.692  98.459

                      1                      2                      3
                      A                      A                      A
 Frequencies --     70.9422               116.5619               171.7877
 Red. masses --      5.6148                 3.8769                 2.5383
 Frc consts  --      0.0166                 0.0310                 0.0441
 IR Inten    --      8.5455                 0.5552                 1.5243

                      4                      5                      6
                      A                      A                      A
 Frequencies --    241.9371               299.9310               328.4557
 Red. masses --      2.9174                 3.3609                 1.2620
 Frc consts  --      0.1006                 0.1781                 0.0802
 IR Inten    --      8.2951                 4.2208                95.8959

                      7                      8                      9
                      A                      A                      A
 Frequencies --    358.0077               421.6077               479.5760
 Red. masses --      3.0063                 1.8877                 4.0926
 Frc consts  --      0.2270                 0.1977                 0.5546
 IR Inten    --     16.9368                 1.5233                 1.9698

                     10                     11                     12
                      A                      A                      A
 Frequencies --    511.1882               579.3560               653.0439
 Red. masses --      3.3630                 2.9054                 2.5187
 Frc consts  --      0.5178                 0.5746                 0.6329
 IR Inten    --      7.8423                 4.5566                 5.5911

                     13                     14                     15
                      A                      A                      A
 Frequencies --    703.0479               751.5195               810.1801
 Red. masses --      2.5492                 1.7392                 3.7026
 Frc consts  --      0.7424                 0.5787                 1.4319
 IR Inten    --      7.8961                10.0352                 3.2399

                     16                     17                     18
                      A                      A                      A
 Frequencies --    867.8510               877.1367               892.5601
 Red. masses --      2.9111                 2.7384                 2.3123
 Frc consts  --      1.2918                 1.2413                 1.0853
 IR Inten    --      6.0241                 3.8623                 5.6979

                     19                     20                     21
                      A                      A                      A
 Frequencies --    946.0668               993.7411              1000.8354
 Red. masses --      2.2624                 1.3341                 2.0539
 Frc consts  --      1.1930                 0.7762                 1.2122
 IR Inten    --      2.3308                 1.0019                 7.5494

                     22                     23                     24
                      A                      A                      A
 Frequencies --   1032.9582              1049.8052              1077.6177
 Red. masses --      2.4060                 2.2007                 2.4779
 Frc consts  --      1.5126                 1.4290                 1.6954
 IR Inten    --      7.1529                 2.0960                33.6854

                     25                     26                     27
                      A                      A                      A
 Frequencies --   1130.3779              1197.7618              1228.5225
 Red. masses --      1.8957                 1.1878                 1.4218
 Frc consts  --      1.4271                 1.0040                 1.2643
 IR Inten    --     49.1889                14.8117                37.1044

                     28                     29                     30
                      A                      A                      A
 Frequencies --   1240.7318              1268.4005              1271.6444
 Red. masses --      1.1905                 1.2439                 1.2324
 Frc consts  --      1.0798                 1.1791                 1.1742
 IR Inten    --     14.1397                10.6796                23.7015

                     31                     32                     33
                      A                      A                      A
 Frequencies --   1294.1502              1328.5025              1370.6572
 Red. masses --      1.2867                 1.3460                 1.3274
 Frc consts  --      1.2697                 1.3996                 1.4693
 IR Inten    --     29.2322                 3.2587                 2.4587

                     34                     35                     36
                      A                      A                      A
 Frequencies --   1379.1638              1410.8234              1446.9203
 Red. masses --      1.4138                 1.3666                 1.5535
 Frc consts  --      1.5844                 1.6027                 1.9162
 IR Inten    --      9.3135                 3.6337                19.6113

                     37                     38                     39
                      A                      A                      A
 Frequencies --   1468.2166              1477.0389              1483.7965
 Red. masses --      1.1499                 1.1031                 1.0928
 Frc consts  --      1.4605                 1.4179                 1.4175
 IR Inten    --      5.0924                 3.5474                 6.3473

                     40                     41                     42
                      A                      A                      A
 Frequencies --   1723.0380              1800.7234              2987.4202
 Red. masses --      6.7281                10.7338                 1.0840
 Frc consts  --     11.7689                20.5068                 5.7002
 IR Inten    --      3.0942               161.8920                56.8750

                     43                     44                     45
                      A                      A                      A
 Frequencies --   3032.4106              3044.5709              3048.8112
 Red. masses --      1.0628                 1.0588                 1.0592
 Frc consts  --      5.7579                 5.7823                 5.8008
 IR Inten    --     11.1588                14.3979                21.4523

                     46                     47                     48
                      A                      A                      A
 Frequencies --   3091.1975              3096.3984              3105.8960
 Red. masses --      1.1024                 1.1051                 1.1005
 Frc consts  --      6.2066                 6.2424                 6.2549
 IR Inten    --     13.5624                17.4190                17.7019

                     49                     50                     51
                      A                      A                      A
 Frequencies --   3145.8394              3173.2698              3796.2539
 Red. masses --      1.0849                 1.0955                 1.0661
 Frc consts  --      6.3256                 6.4993                 9.0521
 IR Inten    --      8.7898                27.0230                18.1435

 - Thermochemistry -
 -------------------
 Temperature   298.150 Kelvin.  Pressure   1.00000 Atm.
 Atom     1 has atomic number  8 and mass  15.99491

 Molecular mass:   126.06808 amu.
 Principal axes and moments of inertia in atomic units:
                           1         2         3
     Eigenvalues --   818.066711039.502391456.90978
           X            0.99983  -0.01806   0.00422
           Y            0.01792   0.99934   0.03175
           Z           -0.00479  -0.03167   0.99949
 This molecule is an asymmetric top.
 Rotational symmetry number  1.
 Warning -- assumption of classical behavior for rotation
           may cause significant error
 Rotational temperatures (Kelvin)      0.10588     0.08332     0.05945
 Rotational constants (GHZ):           2.20611     1.73616     1.23875
 Zero-point vibrational energy     420357.3 (Joules/Mol)
                                  100.46781 (Kcal/Mol)
 Warning -- explicit consideration of  11 degrees of freedom as
           vibrations may cause significant error
 Vibrational temperatures:    102.07   167.71   247.16   348.09   431.53
          (Kelvin)            472.57   515.09   606.60   690.00   735.48
                              833.56   939.58  1011.53  1081.27  1165.67
                             1248.64  1262.00  1284.19  1361.18  1429.77
                             1439.98  1486.19  1510.43  1550.45  1626.36
                             1723.31  1767.57  1785.13  1824.94  1829.61
                             1861.99  1911.42  1972.07  1984.31  2029.86
                             2081.79  2112.43  2125.13  2134.85  2479.06
                             2590.84  4298.23  4362.96  4380.45  4386.55
                             4447.54  4455.02  4468.69  4526.16  4565.62
                             5461.96

 Zero-point correction=                           0.160106 (Hartree/Particle)
 Thermal correction to Energy=                    0.168575
 Thermal correction to Enthalpy=                  0.169519
 Thermal correction to Gibbs Free Energy=         0.126975
 Sum of electronic and zero-point Energies=           -423.049156
 Sum of electronic and thermal Energies=              -423.040686
 Sum of electronic and thermal Enthalpies=            -423.039742
 Sum of electronic and thermal Free Energies=         -423.082286

                     E (Thermal)             CV                S
                      KCal/Mol        Cal/Mol-Kelvin    Cal/Mol-Kelvin
 Total                  105.783             32.426             89.542
 Electronic               0.000              0.000              0.000
 Translational            0.889              2.981             40.409
 Rotational               0.889              2.981             28.606
 Vibrational            104.005             26.465             20.527
 Vibration     1          0.598              1.968              4.127
 Vibration     2          0.608              1.936              3.157
 Vibration     3          0.626              1.877              2.416
 Vibration     4          0.658              1.776              1.789
 Vibration     5          0.692              1.674              1.417
 Vibration     6          0.712              1.619              1.268
 Vibration     7          0.733              1.559              1.131
 Vibration     8          0.784              1.423              0.887
 Vibration     9          0.836              1.295              0.711
 Vibration    10          0.866              1.225              0.631
 Vibration    11          0.936              1.076              0.487

 Optimization completed.
    -- Stationary point found.
 Normal termination of Gaussian 09 at Tue Jan 28 02:59:47 2020.
