 Gaussian 09, Revision D.01,
 Gaussian 09:  ES64L-G09RevD.01 24-Apr-2013

 -----------------------------
 # b3lyp 6-31G(2df,p) opt Freq
 -----------------------------

 -----
 titel
 -----
 Symbolic Z-matrix:
 Charge =  0 Multiplicity = 1

 SCF Done:  E(RB3LYP) =  -423.178302991     A.U. after   13 cycles
 SCF Done:  E(RB3LYP) =  -423.178303152     A.U. after    6 cycles
 Optimization completed.
    -- Stationary point found.
 Normal termination of Gaussian 09 at Mon Jan 27 22:29:21 2020.

 ----------------------------------------------------------------------
 #N Geom=AllCheck Guess=TCheck SCRF=Check GenChk RB3LYP/6-31G(2df,p) Fr
 eq
 ----------------------------------------------------------------------

 Structure from the checkpoint file:  "/scratch/puck/g09_7e5af494-9ce6-44e9-8cc9-aaf30ec7b589/Gau-29139.chk"
 -----
 titel
 -----
 Charge =  0 Multiplicity = 1

                         Standard orientation:
 ---------------------------------------------------------------------
 Center     Atomic      Atomic             Coordinates (Angstroms)
 Number     Number       Type             X           Y           Z
 ---------------------------------------------------------------------
      1          8           0       -2.930565   -0.095820   -0.285039
      2          6           0       -1.669591   -0.011226    0.317690
      3          6           0       -0.596399   -0.764735   -0.406080
      4          6           0       -0.597554    0.762353   -0.417423
      5          6           0        0.681467    1.084943    0.356070
      6          6           0        1.888368    0.779042   -0.565683
      7          6           0        1.886719   -0.784441   -0.552637
      8          6           0        0.680433   -1.073394    0.375168
      9          8           0        0.753410    0.014231    1.312686
     10          1           0       -3.396839    0.727505   -0.106625
     11          1           0       -1.665811   -0.007940    1.405784
     12          1           0       -0.864060   -1.342814   -1.281793
     13          1           0       -0.864173    1.321580   -1.306288
     14          1           0        0.713720    2.039597    0.882936
     15          1           0        1.763773    1.198467   -1.567259
     16          1           0        2.810973    1.180999   -0.140177
     17          1           0        1.760294   -1.220293   -1.546891
     18          1           0        2.808910   -1.180840   -0.121505
     19          1           0        0.709790   -2.018809    0.918016
 ---------------------------------------------------------------------

 SCF Done:  E(RB3LYP) =  -423.178303152     A.U. after    1 cycles

 The electronic state is 1-A.
 Alpha  occ. eigenvalues --  -19.14006 -19.13574 -10.23141 -10.23075 -10.22998
 Alpha  occ. eigenvalues --  -10.18401 -10.18370 -10.18182 -10.18155  -1.04771
 Alpha  occ. eigenvalues --   -1.02339  -0.84388  -0.77173  -0.73937  -0.62549
 Alpha  occ. eigenvalues --   -0.59669  -0.56434  -0.55840  -0.52901  -0.50720
 Alpha  occ. eigenvalues --   -0.47754  -0.45047  -0.41995  -0.40880  -0.38487
 Alpha  occ. eigenvalues --   -0.37506  -0.35399  -0.35151  -0.33644  -0.33566
 Alpha  occ. eigenvalues --   -0.30915  -0.26664  -0.26051  -0.24486
 Alpha virt. eigenvalues --    0.07737   0.09154   0.11386   0.13055   0.13304
 Alpha virt. eigenvalues --    0.14128   0.14443   0.16115   0.16537   0.17063
 Alpha virt. eigenvalues --    0.17333   0.18649   0.20023   0.22163   0.22349

 Mulliken charges:
               1
     1  O   -0.440879
     2  C    0.061711
     3  C   -0.058923
     4  C   -0.099232
     5  C    0.044041
     6  C   -0.208332
     7  C   -0.208787
     8  C    0.042345
     9  O   -0.267680
    10  H    0.285569
    11  H    0.101877
    12  H    0.098571
    13  H    0.090020
    14  H    0.075978
    15  H    0.098463
    16  H    0.102839
    17  H    0.099548
    18  H    0.103246
    19  H    0.079627
 Sum of Mulliken charges =   0.00000

 Dipole moment (field-independent basis, Debye):
    X=              0.3502    Y=              1.1596    Z=             -0.9173  Tot=              1.5195
 Quadrupole moment (field-independent basis, Debye-Ang):
   XX=            -52.6235   YY=            -49.5834   ZZ=            -55.0485
   XY=             -4.7862   XZ=             -2.4746   YZ=             -0.1329

  Exact polarizability:  84.620  -1.540  71.897  -1.226   0.046  63.757
 Approx polarizability: 109.963  -1.262 111.273   0.222   0.403 101.789

                      1                      2                      3
                      A                      A                      A
 Frequencies --    196.6080               214.2664               254.8160
 Red. masses --      3.8551                 1.8190                 2.3372
 Frc consts  --      0.0878                 0.0492                 0.0894
 IR Inten    --      1.0620                 2.8807                24.1682

                      4                      5                      6
                      A                      A                      A
 Frequencies --    322.3277               375.7697               417.3136
 Red. masses --      1.4673                 2.3354                 3.2559
 Frc consts  --      0.0898                 0.1943                 0.3341
 IR Inten    --     77.7874                 6.6221                 3.4840

                      7                      8                      9
                      A                      A                      A
 Frequencies --    431.5326               605.9351               615.8275
 Red. masses --      5.7103                 5.0268                 4.5606
 Frc consts  --      0.6265                 1.0874                 1.0190
 IR Inten    --      6.7460                18.0770                 1.2113

                     10                     11                     12
                      A                      A                      A
 Frequencies --    774.4963               824.4651               826.2875
 Red. masses --      2.0179                 1.9208                 4.2440
 Frc consts  --      0.7132                 0.7693                 1.7072
 IR Inten    --      3.5950                 7.2810                 2.3496

                     13                     14                     15
                      A                      A                      A
 Frequencies --    854.0458               866.5528               895.1697
 Red. masses --      2.3370                 2.4016                 2.2459
 Frc consts  --      1.0043                 1.0625                 1.0604
 IR Inten    --      4.0014                 1.6463                15.6075

                     16                     17                     18
                      A                      A                      A
 Frequencies --    909.0697               917.1354               955.6441
 Red. masses --      3.1008                 2.4780                 4.2041
 Frc consts  --      1.5098                 1.2281                 2.2621
 IR Inten    --     20.1592                 4.5460                16.9586

                     19                     20                     21
                      A                      A                      A
 Frequencies --    979.8666               986.2041              1014.9740
 Red. masses --      1.7646                 1.6352                 2.2308
 Frc consts  --      0.9982                 0.9370                 1.3540
 IR Inten    --      1.9736                 8.4781                 2.9320

                     22                     23                     24
                      A                      A                      A
 Frequencies --   1025.5405              1045.7553              1097.4448
 Red. masses --      5.9414                 1.6211                 1.3421
 Frc consts  --      3.6817                 1.0445                 0.9523
 IR Inten    --     36.9456                 0.2570                 3.5395

                     25                     26                     27
                      A                      A                      A
 Frequencies --   1108.4504              1140.6106              1154.1678
 Red. masses --      1.5061                 2.3211                 1.2002
 Frc consts  --      1.0903                 1.7792                 0.9420
 IR Inten    --     11.3808                58.0259                 0.5823

                     28                     29                     30
                      A                      A                      A
 Frequencies --   1171.4463              1225.9416              1231.4041
 Red. masses --      2.5096                 1.5296                 1.1934
 Frc consts  --      2.0291                 1.3545                 1.0662
 IR Inten    --      2.5479                18.2241                 0.5550

                     31                     32                     33
                      A                      A                      A
 Frequencies --   1238.9594              1273.0327              1275.7399
 Red. masses --      1.3538                 1.2589                 1.2800
 Frc consts  --      1.2244                 1.2020                 1.2274
 IR Inten    --      5.3585                 0.8243                 1.1306

                     34                     35                     36
                      A                      A                      A
 Frequencies --   1293.4094              1309.2850              1323.6515
 Red. masses --      1.5224                 1.6505                 1.5542
 Frc consts  --      1.5005                 1.6670                 1.6044
 IR Inten    --     68.4247                 7.5962                13.8222

                     37                     38                     39
                      A                      A                      A
 Frequencies --   1333.5220              1353.4544              1454.4898
 Red. masses --      1.5901                 1.4684                 2.2517
 Frc consts  --      1.6660                 1.5848                 2.8066
 IR Inten    --     25.6098                 0.9287                17.7960

                     40                     41                     42
                      A                      A                      A
 Frequencies --   1481.4645              1502.5226              3059.9258
 Red. masses --      1.0831                 1.1102                 1.0585
 Frc consts  --      1.4006                 1.4767                 5.8395
 IR Inten    --      0.3686                 1.8909                23.2615

                     43                     44                     45
                      A                      A                      A
 Frequencies --   3069.8413              3100.3289              3109.5453
 Red. masses --      1.0600                 1.1048                 1.0901
 Frc consts  --      5.8858                 6.2567                 6.2100
 IR Inten    --     38.3309                 6.5178                43.4843

                     46                     47                     48
                      A                      A                      A
 Frequencies --   3113.7400              3121.3110              3123.5880
 Red. masses --      1.0922                 1.1023                 1.0899
 Frc consts  --      6.2392                 6.3275                 6.2656
 IR Inten    --     15.7786                32.7949                41.0068

                     49                     50                     51
                      A                      A                      A
 Frequencies --   3184.9023              3196.8113              3806.7418
 Red. masses --      1.0895                 1.0928                 1.0662
 Frc consts  --      6.5114                 6.5798                 9.1029
 IR Inten    --      9.0847                 5.4665                22.4715

 - Thermochemistry -
 -------------------
 Temperature   298.150 Kelvin.  Pressure   1.00000 Atm.
 Atom     1 has atomic number  8 and mass  15.99491

 Molecular mass:   126.06808 amu.
 Principal axes and moments of inertia in atomic units:
                           1         2         3
     Eigenvalues --   469.776351360.048051425.26080
           X            0.99980  -0.00979  -0.01759
           Y            0.00967   0.99993  -0.00715
           Z            0.01766   0.00698   0.99982
 This molecule is an asymmetric top.
 Rotational symmetry number  1.
 Warning -- assumption of classical behavior for rotation
           may cause significant error
 Rotational temperatures (Kelvin)      0.18437     0.06368     0.06077
 Rotational constants (GHZ):           3.84170     1.32697     1.26625
 Zero-point vibrational energy     425663.2 (Joules/Mol)
                                  101.73595 (Kcal/Mol)
 Warning -- explicit consideration of   9 degrees of freedom as
           vibrations may cause significant error
 Vibrational temperatures:    282.87   308.28   366.62   463.76   540.65
          (Kelvin)            600.42   620.88   871.80   886.04  1114.33
                             1186.22  1188.84  1228.78  1246.77  1287.95
                             1307.95  1319.55  1374.96  1409.81  1418.93
                             1460.32  1475.52  1504.61  1578.98  1594.81
                             1641.08  1660.59  1685.45  1763.85  1771.71
                             1782.58  1831.61  1835.50  1860.93  1883.77
                             1904.44  1918.64  1947.32  2092.68  2131.49
                             2161.79  4402.55  4416.81  4460.68  4473.94
                             4479.97  4490.86  4494.14  4582.36  4599.49
                             5477.05

 Zero-point correction=                           0.162127 (Hartree/Particle)
 Thermal correction to Energy=                    0.169131
 Thermal correction to Enthalpy=                  0.170075
 Thermal correction to Gibbs Free Energy=         0.131087
 Sum of electronic and zero-point Energies=           -423.016177
 Sum of electronic and thermal Energies=              -423.009173
 Sum of electronic and thermal Enthalpies=            -423.008228
 Sum of electronic and thermal Free Energies=         -423.047216

                     E (Thermal)             CV                S
                      KCal/Mol        Cal/Mol-Kelvin    Cal/Mol-Kelvin
 Total                  106.131             29.215             82.056
 Electronic               0.000              0.000              0.000
 Translational            0.889              2.981             40.409
 Rotational               0.889              2.981             28.301
 Vibrational            104.354             23.253             13.347
 Vibration     1          0.636              1.845              2.165
 Vibration     2          0.644              1.819              2.007
 Vibration     3          0.665              1.755              1.697
 Vibration     4          0.707              1.631              1.298
 Vibration     5          0.747              1.522              1.056
 Vibration     6          0.780              1.433              0.901
 Vibration     7          0.793              1.402              0.854
 Vibration     8          0.965              1.019              0.440
 Vibration     9          0.975              0.998              0.423

 Normal termination of Gaussian 09 at Tue Jan 28 00:37:49 2020.
