 Gaussian 09, Revision D.01,
 Gaussian 09:  ES64L-G09RevD.01 24-Apr-2013

 -----------------------------
 # b3lyp 6-31G(2df,p) opt Freq
 -----------------------------

 -----
 titel
 -----
 Symbolic Z-matrix:
 Charge =  0 Multiplicity = 1

 SCF Done:  E(RB3LYP) =  -423.164152200     A.U. after   14 cycles
 Optimization completed.
    -- Stationary point found.
 Normal termination of Gaussian 09 at Tue Jan 28 09:40:27 2020.

 ----------------------------------------------------------------------
 #N Geom=AllCheck Guess=TCheck SCRF=Check GenChk RB3LYP/6-31G(2df,p) Fr
 eq
 ----------------------------------------------------------------------

 Structure from the checkpoint file:  "/scratch/puck/g09_af974847-0272-47fe-b9c4-bba29cbe1ca7/Gau-106305.chk"
 -----
 titel
 -----
 Charge =  0 Multiplicity = 1

                         Standard orientation:
 ---------------------------------------------------------------------
 Center     Atomic      Atomic             Coordinates (Angstroms)
 Number     Number       Type             X           Y           Z
 ---------------------------------------------------------------------
      1          6           0       -2.967981   -0.436604   -0.090942
      2          6           0       -1.822828    0.104231    0.775428
      3          6           0       -0.502308    0.128275    0.047763
      4          6           0        0.169518   -1.174355   -0.401247
      5          6           0        1.651926   -0.829325   -0.433455
      6          8           0        2.194676   -0.490537    0.851046
      7          6           0        1.866006    0.573031   -0.055948
      8          6           0        0.518381    1.172620    0.229558
      9          8           0       -0.336438    1.181720   -0.925259
     10          1           0       -3.913941   -0.416490    0.457645
     11          1           0       -3.085061    0.168916   -0.994618
     12          1           0       -2.785127   -1.471221   -0.399421
     13          1           0       -2.058002    1.122041    1.104259
     14          1           0       -1.713146   -0.507570    1.679620
     15          1           0       -0.028752   -1.991647    0.300513
     16          1           0       -0.186985   -1.479819   -1.390399
     17          1           0        2.330950   -1.359476   -1.095388
     18          1           0        2.699121    1.172308   -0.412729
     19          1           0        0.398762    2.006264    0.917284
 ---------------------------------------------------------------------

 SCF Done:  E(RB3LYP) =  -423.164152200     A.U. after    1 cycles

 The electronic state is 1-A.
 Alpha  occ. eigenvalues --  -19.15285 -19.14945 -10.24189 -10.24029 -10.23882
 Alpha  occ. eigenvalues --  -10.23610 -10.19317 -10.19028 -10.17862  -1.08404
 Alpha  occ. eigenvalues --   -1.05912  -0.79223  -0.75930  -0.70958  -0.66533
 Alpha  occ. eigenvalues --   -0.61744  -0.58469  -0.56428  -0.52143  -0.47359
 Alpha  occ. eigenvalues --   -0.46261  -0.45166  -0.43435  -0.41089  -0.40395
 Alpha  occ. eigenvalues --   -0.38648  -0.38333  -0.37259  -0.35265  -0.34365
 Alpha  occ. eigenvalues --   -0.29877  -0.28971  -0.27563  -0.25959
 Alpha virt. eigenvalues --    0.07216   0.08864   0.09950   0.11475   0.12140
 Alpha virt. eigenvalues --    0.12358   0.13989   0.15669   0.15880   0.17027
 Alpha virt. eigenvalues --    0.17489   0.17584   0.18672   0.19543   0.20865

 Mulliken charges:
               1
     1  C   -0.383210
     2  C   -0.280777
     3  C    0.442860
     4  C   -0.316692
     5  C    0.057995
     6  O   -0.259332
     7  C    0.007555
     8  C   -0.075876
     9  O   -0.304544
    10  H    0.115827
    11  H    0.134193
    12  H    0.118938
    13  H    0.107075
    14  H    0.106572
    15  H    0.114531
    16  H    0.116627
    17  H    0.099916
    18  H    0.101612
    19  H    0.096729
 Sum of Mulliken charges =   0.00000

 Dipole moment (field-independent basis, Debye):
    X=             -0.5935    Y=             -0.4609    Z=             -0.0522  Tot=              0.7533
 Quadrupole moment (field-independent basis, Debye-Ang):
   XX=            -53.0311   YY=            -51.4311   ZZ=            -55.2750
   XY=              2.6311   XZ=             -4.8900   YZ=              3.8450

  Exact polarizability:  85.400   3.680  73.696  -1.440   3.736  61.789
 Approx polarizability: 107.847   5.040 114.258   4.175   0.652 102.243

                      1                      2                      3
                      A                      A                      A
 Frequencies --     76.7273               135.4442               207.5540
 Red. masses --      2.6809                 2.8844                 1.9821
 Frc consts  --      0.0093                 0.0312                 0.0503
 IR Inten    --      0.0087                 1.7068                 1.3676

                      4                      5                      6
                      A                      A                      A
 Frequencies --    236.7036               310.5260               358.3547
 Red. masses --      1.4577                 3.7842                 1.9502
 Frc consts  --      0.0481                 0.2150                 0.1476
 IR Inten    --      2.8928                 5.9064                 1.1557

                      7                      8                      9
                      A                      A                      A
 Frequencies --    410.5121               462.9586               491.0486
 Red. masses --      2.4826                 3.7923                 9.4088
 Frc consts  --      0.2465                 0.4789                 1.3367
 IR Inten    --      8.2646                10.0333                 0.2229

                     10                     11                     12
                      A                      A                      A
 Frequencies --    628.5836               692.9693               768.2051
 Red. masses --      3.1532                 5.3089                 2.4695
 Frc consts  --      0.7341                 1.5020                 0.8587
 IR Inten    --      1.6671                 3.3936                 3.5320

                     13                     14                     15
                      A                      A                      A
 Frequencies --    783.8370               821.6233               857.5094
 Red. masses --      1.7780                 4.2680                 3.1477
 Frc consts  --      0.6436                 1.6976                 1.3637
 IR Inten    --      1.8098                 8.8172                14.1238

                     16                     17                     18
                      A                      A                      A
 Frequencies --    865.4475               931.3455               956.7797
 Red. masses --      2.2594                 2.8803                 2.1193
 Frc consts  --      0.9971                 1.4720                 1.1431
 IR Inten    --     34.3547                18.2256                 6.2296

                     19                     20                     21
                      A                      A                      A
 Frequencies --    964.6610               981.4755              1023.0818
 Red. masses --      2.6548                 2.1570                 1.5071
 Frc consts  --      1.4556                 1.2242                 0.9294
 IR Inten    --      2.2540                 4.1543                 5.7374

                     22                     23                     24
                      A                      A                      A
 Frequencies --   1032.9047              1060.4012              1085.8143
 Red. masses --      2.0614                 1.6634                 1.5698
 Frc consts  --      1.2958                 1.1020                 1.0905
 IR Inten    --     11.5381                 8.2471                 2.1904

                     25                     26                     27
                      A                      A                      A
 Frequencies --   1108.9480              1139.7911              1200.3753
 Red. masses --      1.9402                 1.6317                 1.4310
 Frc consts  --      1.4058                 1.2489                 1.2148
 IR Inten    --      3.2512                 0.6013                 5.6135

                     28                     29                     30
                      A                      A                      A
 Frequencies --   1238.0275              1242.7699              1273.5783
 Red. masses --      1.7292                 1.4108                 1.4076
 Frc consts  --      1.5616                 1.2838                 1.3451
 IR Inten    --      1.8128                10.0173                 1.3131

                     31                     32                     33
                      A                      A                      A
 Frequencies --   1297.7431              1321.9050              1348.5826
 Red. masses --      1.2345                 1.6530                 1.7237
 Frc consts  --      1.2249                 1.7018                 1.8470
 IR Inten    --      3.0527                15.5612                 5.3582

                     34                     35                     36
                      A                      A                      A
 Frequencies --   1364.4102              1408.9519              1432.3179
 Red. masses --      1.5957                 1.2395                 3.2483
 Frc consts  --      1.7502                 1.4497                 3.9263
 IR Inten    --      5.7662                 1.8827                16.1825

                     37                     38                     39
                      A                      A                      A
 Frequencies --   1452.6093              1470.8465              1474.0809
 Red. masses --      1.9876                 1.2741                 1.2416
 Frc consts  --      2.4710                 1.6240                 1.5896
 IR Inten    --     11.2333                 0.3409                 4.6132

                     40                     41                     42
                      A                      A                      A
 Frequencies --   1500.4681              1508.8788              3030.5563
 Red. masses --      1.0399                 1.0914                 1.0615
 Frc consts  --      1.3794                 1.4641                 5.7438
 IR Inten    --      4.7539                 4.8721                17.5731

                     43                     44                     45
                      A                      A                      A
 Frequencies --   3039.5040              3046.2602              3073.5533
 Red. masses --      1.0359                 1.0585                 1.1001
 Frc consts  --      5.6384                 5.7875                 6.1228
 IR Inten    --     17.7628                24.6321                 7.4007

                     46                     47                     48
                      A                      A                      A
 Frequencies --   3090.6133              3109.0100              3117.2562
 Red. masses --      1.1041                 1.1012                 1.1026
 Frc consts  --      6.2136                 6.2716                 6.3125
 IR Inten    --     11.7058                35.9136                24.9232

                     49                     50                     51
                      A                      A                      A
 Frequencies --   3142.2457              3150.8330              3162.3682
 Red. masses --      1.0882                 1.0884                 1.0968
 Frc consts  --      6.3306                 6.3661                 6.4627
 IR Inten    --     13.1966                32.6021                30.6572

 - Thermochemistry -
 -------------------
 Temperature   298.150 Kelvin.  Pressure   1.00000 Atm.
 Atom     1 has atomic number  6 and mass  12.00000

 Molecular mass:   126.06808 amu.
 Principal axes and moments of inertia in atomic units:
                           1         2         3
     Eigenvalues --   494.192251445.851341607.44047
           X            0.99964   0.02107  -0.01668
           Y           -0.01918   0.99417   0.10612
           Z            0.01882  -0.10576   0.99421
 This molecule is an asymmetric top.
 Rotational symmetry number  1.
 Warning -- assumption of classical behavior for rotation
           may cause significant error
 Rotational temperatures (Kelvin)      0.17526     0.05991     0.05388
 Rotational constants (GHZ):           3.65190     1.24822     1.12274
 Zero-point vibrational energy     418040.7 (Joules/Mol)
                                   99.91413 (Kcal/Mol)
 Warning -- explicit consideration of   9 degrees of freedom as
           vibrations may cause significant error
 Vibrational temperatures:    110.39   194.87   298.62   340.56   446.78
          (Kelvin)            515.59   590.63   666.09   706.51   904.39
                              997.03  1105.27  1127.77  1182.13  1233.76
                             1245.18  1340.00  1376.59  1387.93  1412.12
                             1471.98  1486.12  1525.68  1562.24  1595.53
                             1639.90  1727.07  1781.24  1788.07  1832.39
                             1867.16  1901.92  1940.31  1963.08  2027.17
                             2060.78  2089.98  2116.22  2120.87  2158.84
                             2170.94  4360.29  4373.16  4382.88  4422.15
                             4446.70  4473.17  4485.03  4520.99  4533.34
                             4549.94

 Zero-point correction=                           0.159223 (Hartree/Particle)
 Thermal correction to Energy=                    0.167208
 Thermal correction to Enthalpy=                  0.168152
 Thermal correction to Gibbs Free Energy=         0.126621
 Sum of electronic and zero-point Energies=           -423.004929
 Sum of electronic and thermal Energies=              -422.996944
 Sum of electronic and thermal Enthalpies=            -422.996000
 Sum of electronic and thermal Free Energies=         -423.037531

                     E (Thermal)             CV                S
                      KCal/Mol        Cal/Mol-Kelvin    Cal/Mol-Kelvin
 Total                  104.925             31.023             87.411
 Electronic               0.000              0.000              0.000
 Translational            0.889              2.981             40.409
 Rotational               0.889              2.981             28.531
 Vibrational            103.147             25.062             18.471
 Vibration     1          0.599              1.965              3.973
 Vibration     2          0.613              1.918              2.867
 Vibration     3          0.641              1.829              2.065
 Vibration     4          0.656              1.785              1.828
 Vibration     5          0.699              1.654              1.360
 Vibration     6          0.733              1.558              1.129
 Vibration     7          0.775              1.447              0.925
 Vibration     8          0.821              1.332              0.758
 Vibration     9          0.847              1.270              0.681

 Optimization completed.
    -- Stationary point found.
 Normal termination of Gaussian 09 at Tue Jan 28 10:22:58 2020.
