 Gaussian 09, Revision D.01,
 Gaussian 09:  ES64L-G09RevD.01 24-Apr-2013

 -----------------------------
 # b3lyp 6-31G(2df,p) opt Freq
 -----------------------------

 -----
 titel
 -----
 Symbolic Z-matrix:
 Charge =  0 Multiplicity = 1

 SCF Done:  E(RB3LYP) =  -423.125422591     A.U. after   14 cycles
 Optimization completed.
    -- Stationary point found.
 Normal termination of Gaussian 09 at Tue Jan 28 13:23:42 2020.

 ----------------------------------------------------------------------
 #N Geom=AllCheck Guess=TCheck SCRF=Check GenChk RB3LYP/6-31G(2df,p) Fr
 eq
 ----------------------------------------------------------------------

 Structure from the checkpoint file:  "/scratch/puck/g09_d2101bfc-12bb-4b6d-9f42-73df42036510/Gau-144639.chk"
 -----
 titel
 -----
 Charge =  0 Multiplicity = 1

                         Standard orientation:
 ---------------------------------------------------------------------
 Center     Atomic      Atomic             Coordinates (Angstroms)
 Number     Number       Type             X           Y           Z
 ---------------------------------------------------------------------
      1          6           0        2.284276   -0.476330    1.262614
      2          6           0        1.845178   -0.704957   -0.187162
      3          6           0        0.479375   -0.111803   -0.497281
      4          8           0       -0.199396   -0.691408   -1.630196
      5          6           0       -0.741133   -0.937226   -0.332771
      6          6           0       -2.086782   -0.320741   -0.013236
      7          8           0       -2.226908   -0.096110    1.379915
      8          6           0        0.375129    1.326301   -0.372762
      9          6           0        0.323750    2.520014   -0.231440
     10          1           0        3.267988   -0.919310    1.441337
     11          1           0        2.348483    0.591712    1.490322
     12          1           0        1.577309   -0.928714    1.965976
     13          1           0        2.577584   -0.269071   -0.876385
     14          1           0        1.793772   -1.774959   -0.412556
     15          1           0       -0.589853   -1.951563    0.040827
     16          1           0       -2.207848    0.597183   -0.602158
     17          1           0       -2.888259   -1.010680   -0.296378
     18          1           0       -1.622339    0.617665    1.611723
     19          1           0        0.274829    3.576336   -0.128233
 ---------------------------------------------------------------------

 SCF Done:  E(RB3LYP) =  -423.125422591     A.U. after    1 cycles

 The electronic state is 1-A.
 Alpha  occ. eigenvalues --  -19.16158 -19.13984 -10.26771 -10.24363 -10.23212
 Alpha  occ. eigenvalues --  -10.19794 -10.19673 -10.19314 -10.18370  -1.08255
 Alpha  occ. eigenvalues --   -1.02018  -0.80184  -0.75839  -0.72834  -0.68110
 Alpha  occ. eigenvalues --   -0.62153  -0.61628  -0.53556  -0.52290  -0.50084
 Alpha  occ. eigenvalues --   -0.47086  -0.44588  -0.43726  -0.43511  -0.41320
 Alpha  occ. eigenvalues --   -0.37520  -0.36744  -0.35936  -0.34114  -0.32951
 Alpha  occ. eigenvalues --   -0.29278  -0.28842  -0.27155  -0.26249
 Alpha virt. eigenvalues --    0.01629   0.03396   0.06761   0.09675   0.11209
 Alpha virt. eigenvalues --    0.11431   0.13624   0.14380   0.15062   0.15638
 Alpha virt. eigenvalues --    0.16796   0.17580   0.18175   0.19823   0.21293

 Mulliken charges:
               1
     1  C   -0.388257
     2  C   -0.270215
     3  C    0.207549
     4  O   -0.291047
     5  C   -0.012586
     6  C   -0.113943
     7  O   -0.417329
     8  C    0.298043
     9  C   -0.440180
    10  H    0.121263
    11  H    0.131017
    12  H    0.122094
    13  H    0.116028
    14  H    0.114861
    15  H    0.098703
    16  H    0.113014
    17  H    0.116497
    18  H    0.290032
    19  H    0.204455
 Sum of Mulliken charges =   0.00000

 Dipole moment (field-independent basis, Debye):
    X=              1.2960    Y=              0.8209    Z=              0.8975  Tot=              1.7774
 Quadrupole moment (field-independent basis, Debye-Ang):
   XX=            -54.4921   YY=            -46.3142   ZZ=            -59.0863
   XY=             -0.9663   XZ=              3.0406   YZ=              0.7595

  Exact polarizability:  78.553   3.025  90.403   1.522   1.708  62.734
 Approx polarizability: 101.705   7.523 145.480  -0.305   7.381  97.521

                      1                      2                      3
                      A                      A                      A
 Frequencies --     43.4528                70.9333               118.2092
 Red. masses --      4.1098                 3.1420                 2.9292
 Frc consts  --      0.0046                 0.0093                 0.0241
 IR Inten    --      2.1346                 0.0905                 0.2068

                      4                      5                      6
                      A                      A                      A
 Frequencies --    149.3907               185.8908               213.0196
 Red. masses --      2.9083                 2.9159                 1.3321
 Frc consts  --      0.0382                 0.0594                 0.0356
 IR Inten    --      0.2660                 3.4719                 0.4074

                      7                      8                      9
                      A                      A                      A
 Frequencies --    280.2785               308.0842               375.0082
 Red. masses --      2.5800                 2.6601                 2.0078
 Frc consts  --      0.1194                 0.1488                 0.1664
 IR Inten    --      0.8640                 4.2071                26.4154

                     10                     11                     12
                      A                      A                      A
 Frequencies --    392.7137               457.8896               489.5029
 Red. masses --      1.5140                 3.7513                 7.5118
 Frc consts  --      0.1376                 0.4634                 1.0605
 IR Inten    --     70.8270                22.1541                 0.4880

                     13                     14                     15
                      A                      A                      A
 Frequencies --    581.4115               589.7729               634.0528
 Red. masses --      7.0446                 4.5942                 1.2134
 Frc consts  --      1.4031                 0.9415                 0.2874
 IR Inten    --      2.8922                 3.3886                43.8781

                     16                     17                     18
                      A                      A                      A
 Frequencies --    654.6311               665.4882               787.3158
 Red. masses --      3.4963                 1.2572                 1.2470
 Frc consts  --      0.8828                 0.3280                 0.4554
 IR Inten    --      1.8392                35.8764                 5.9782

                     19                     20                     21
                      A                      A                      A
 Frequencies --    824.7260               929.2683               942.6505
 Red. masses --      3.4861                 2.0488                 2.1922
 Frc consts  --      1.3970                 1.0424                 1.1477
 IR Inten    --     17.1764                10.6416                20.2453

                     22                     23                     24
                      A                      A                      A
 Frequencies --    985.6313              1065.5758              1078.1213
 Red. masses --      2.3045                 3.1868                 2.4007
 Frc consts  --      1.3190                 2.1319                 1.6441
 IR Inten    --     10.5686                83.5998                 2.5753

                     25                     26                     27
                      A                      A                      A
 Frequencies --   1080.1333              1096.7785              1136.5249
 Red. masses --      3.2536                 1.4113                 2.1293
 Frc consts  --      2.2365                 1.0003                 1.6205
 IR Inten    --     35.2537                 1.1351                 0.7397

                     28                     29                     30
                      A                      A                      A
 Frequencies --   1212.3227              1237.4392              1264.1961
 Red. masses --      1.2604                 2.2884                 1.3538
 Frc consts  --      1.0914                 2.0646                 1.2748
 IR Inten    --     17.6872                13.8772                 6.2004

                     31                     32                     33
                      A                      A                      A
 Frequencies --   1333.9643              1351.8102              1375.7146
 Red. masses --      1.3545                 1.4790                 1.4093
 Frc consts  --      1.4201                 1.5923                 1.5715
 IR Inten    --      8.3039                 3.2897                 2.5083

                     34                     35                     36
                      A                      A                      A
 Frequencies --   1412.3441              1416.7584              1456.0912
 Red. masses --      1.2309                 1.2314                 2.7861
 Frc consts  --      1.4466                 1.4563                 3.4804
 IR Inten    --      2.1739                51.3177                 0.6068

                     37                     38                     39
                      A                      A                      A
 Frequencies --   1485.2635              1498.2093              1500.0497
 Red. masses --      1.0773                 1.0466                 1.0735
 Frc consts  --      1.4002                 1.3841                 1.4232
 IR Inten    --      1.7513                 4.8451                 2.9647

                     40                     41                     42
                      A                      A                      A
 Frequencies --   1509.3723              2229.1696              3028.1141
 Red. masses --      1.0663                 5.9646                 1.0615
 Frc consts  --      1.4313                17.4628                 5.7349
 IR Inten    --      4.0102                 0.7381                28.1349

                     43                     44                     45
                      A                      A                      A
 Frequencies --   3039.4146              3042.5240              3081.2066
 Red. masses --      1.0420                 1.0541                 1.0978
 Frc consts  --      5.6717                 5.7489                 6.1405
 IR Inten    --      9.9811                26.8563                17.1221

                     46                     47                     48
                      A                      A                      A
 Frequencies --   3083.2322              3101.9318              3111.2357
 Red. masses --      1.1011                 1.0925                 1.1019
 Frc consts  --      6.1672                 6.1936                 6.2841
 IR Inten    --      1.2105                33.2670                35.4235

                     49                     50                     51
                      A                      A                      A
 Frequencies --   3118.7827              3497.9116              3803.2577
 Red. masses --      1.1017                 1.1614                 1.0661
 Frc consts  --      6.3139                 8.3724                 9.0860
 IR Inten    --     27.5234                72.1627                16.4162

 - Thermochemistry -
 -------------------
 Temperature   298.150 Kelvin.  Pressure   1.00000 Atm.
 Atom     1 has atomic number  6 and mass  12.00000

 Molecular mass:   126.06808 amu.
 Principal axes and moments of inertia in atomic units:
                           1         2         3
     Eigenvalues --   929.579431443.864601581.58635
           X            0.99864  -0.02785   0.04398
           Y            0.02915   0.99915  -0.02912
           Z           -0.04314   0.03036   0.99861
 This molecule is an asymmetric top.
 Rotational symmetry number  1.
 Warning -- assumption of classical behavior for rotation
           may cause significant error
 Rotational temperatures (Kelvin)      0.09318     0.05999     0.05476
 Rotational constants (GHZ):           1.94146     1.24994     1.14110
 Zero-point vibrational energy     408684.9 (Joules/Mol)
                                   97.67802 (Kcal/Mol)
 Warning -- explicit consideration of  14 degrees of freedom as
           vibrations may cause significant error
 Vibrational temperatures:     62.52   102.06   170.08   214.94   267.46
          (Kelvin)            306.49   403.26   443.26   539.55   565.03
                              658.80   704.28   836.52   848.55   912.26
                              941.87   957.49  1132.77  1186.60  1337.01
                             1356.26  1418.10  1533.12  1551.17  1554.07
                             1578.02  1635.20  1744.26  1780.40  1818.89
                             1919.27  1944.95  1979.34  2032.05  2038.40
                             2094.99  2136.96  2155.59  2158.23  2171.65
                             3207.27  4356.78  4373.03  4377.51  4433.16
                             4436.08  4462.98  4476.37  4487.23  5032.71
                             5472.03

 Zero-point correction=                           0.155660 (Hartree/Particle)
 Thermal correction to Energy=                    0.165862
 Thermal correction to Enthalpy=                  0.166806
 Thermal correction to Gibbs Free Energy=         0.119921
 Sum of electronic and zero-point Energies=           -422.969763
 Sum of electronic and thermal Energies=              -422.959561
 Sum of electronic and thermal Enthalpies=            -422.958617
 Sum of electronic and thermal Free Energies=         -423.005502

                     E (Thermal)             CV                S
                      KCal/Mol        Cal/Mol-Kelvin    Cal/Mol-Kelvin
 Total                  104.080             36.858             98.678
 Electronic               0.000              0.000              0.000
 Translational            0.889              2.981             40.409
 Rotational               0.889              2.981             29.142
 Vibrational            102.302             30.896             29.128
 Vibration     1          0.595              1.980              5.095
 Vibration     2          0.598              1.968              4.127
 Vibration     3          0.608              1.934              3.129
 Vibration     4          0.618              1.903              2.680
 Vibration     5          0.632              1.859              2.268
 Vibration     6          0.644              1.821              2.018
 Vibration     7          0.680              1.710              1.532
 Vibration     8          0.698              1.658              1.373
 Vibration     9          0.746              1.523              1.059
 Vibration    10          0.760              1.486              0.990
 Vibration    11          0.816              1.343              0.772
 Vibration    12          0.845              1.273              0.685
 Vibration    13          0.938              1.072              0.483
 Vibration    14          0.947              1.054              0.468

 Optimization completed.
    -- Stationary point found.
 Normal termination of Gaussian 09 at Tue Jan 28 14:04:47 2020.
