 Gaussian 09, Revision D.01,
 Gaussian 09:  ES64L-G09RevD.01 24-Apr-2013

 -----------------------------
 # b3lyp 6-31G(2df,p) opt Freq
 -----------------------------

 -----
 titel
 -----
 Symbolic Z-matrix:
 Charge =  0 Multiplicity = 1

 SCF Done:  E(RB3LYP) =  -423.200882555     A.U. after   14 cycles
 Optimization completed.
    -- Stationary point found.
 Normal termination of Gaussian 09 at Tue Jan 28 11:32:06 2020.

 ----------------------------------------------------------------------
 #N Geom=AllCheck Guess=TCheck SCRF=Check GenChk RB3LYP/6-31G(2df,p) Fr
 eq
 ----------------------------------------------------------------------

 Structure from the checkpoint file:  "/scratch/puck/g09_921f3672-1269-49c8-904d-c8ceff1d3555/Gau-152138.chk"
 -----
 titel
 -----
 Charge =  0 Multiplicity = 1

                         Standard orientation:
 ---------------------------------------------------------------------
 Center     Atomic      Atomic             Coordinates (Angstroms)
 Number     Number       Type             X           Y           Z
 ---------------------------------------------------------------------
      1          6           0        3.047537   -0.539609    0.211190
      2          6           0        1.920530    0.404661   -0.214739
      3          6           0        0.537571   -0.032232    0.275230
      4          6           0       -0.036021   -1.321605   -0.367789
      5          6           0       -1.537855   -1.096333   -0.424848
      6          8           0       -2.081198   -0.666210    0.818957
      7          6           0       -1.851808    0.328409   -0.200395
      8          6           0       -0.539635    1.038259    0.010780
      9          8           0       -0.356675    2.225364   -0.083919
     10          1           0        3.105922   -0.617786    1.302592
     11          1           0        2.902920   -1.550477   -0.185201
     12          1           0        4.016079   -0.179855   -0.149024
     13          1           0        2.107941    1.414662    0.164198
     14          1           0        1.901032    0.492241   -1.308875
     15          1           0        0.571079   -0.163807    1.365007
     16          1           0        0.350103   -1.444839   -1.387225
     17          1           0        0.212781   -2.228641    0.190326
     18          1           0       -2.183555   -1.732664   -1.024742
     19          1           0       -2.723231    0.848628   -0.583938
 ---------------------------------------------------------------------

 SCF Done:  E(RB3LYP) =  -423.200882555     A.U. after    1 cycles

 The electronic state is 1-A.
 Alpha  occ. eigenvalues --  -19.17019 -19.13899 -10.27186 -10.25486 -10.24626
 Alpha  occ. eigenvalues --  -10.20136 -10.19951 -10.18703 -10.17940  -1.09221
 Alpha  occ. eigenvalues --   -1.04643  -0.82712  -0.75908  -0.70653  -0.68425
 Alpha  occ. eigenvalues --   -0.61998  -0.58503  -0.54392  -0.51229  -0.48539
 Alpha  occ. eigenvalues --   -0.45666  -0.45012  -0.43357  -0.42803  -0.40011
 Alpha  occ. eigenvalues --   -0.39956  -0.37569  -0.36644  -0.36093  -0.34052
 Alpha  occ. eigenvalues --   -0.33349  -0.31147  -0.29591  -0.24105
 Alpha virt. eigenvalues --   -0.02957   0.08437   0.09742   0.10901   0.12244
 Alpha virt. eigenvalues --    0.12684   0.13986   0.14895   0.15355   0.15596
 Alpha virt. eigenvalues --    0.16818   0.18107   0.19032   0.19837   0.21733

 Mulliken charges:
               1
     1  C   -0.392690
     2  C   -0.181895
     3  C   -0.109817
     4  C   -0.262623
     5  C    0.046792
     6  O   -0.246092
     7  C   -0.084436
     8  C    0.414201
     9  O   -0.325854
    10  H    0.117488
    11  H    0.116259
    12  H    0.117558
    13  H    0.121758
    14  H    0.097586
    15  H    0.117311
    16  H    0.112235
    17  H    0.120092
    18  H    0.107333
    19  H    0.114792
 Sum of Mulliken charges =   0.00000

 Dipole moment (field-independent basis, Debye):
    X=              0.5594    Y=             -2.4021    Z=             -1.3278  Tot=              2.8011
 Quadrupole moment (field-independent basis, Debye-Ang):
   XX=            -52.2075   YY=            -58.6145   ZZ=            -52.7807
   XY=             -0.1427   XZ=              3.8095   YZ=              1.8908

  Exact polarizability:  85.376  -0.021  79.888   1.984   0.687  59.571
 Approx polarizability: 105.956   2.244 128.547  -1.436  -1.770  98.153

                      1                      2                      3
                      A                      A                      A
 Frequencies --     77.5450                93.0345               169.3078
 Red. masses --      3.5033                 2.2394                 3.6594
 Frc consts  --      0.0124                 0.0114                 0.0618
 IR Inten    --      1.6504                 0.9580                 2.6926

                      4                      5                      6
                      A                      A                      A
 Frequencies --    200.9623               252.5195               307.8443
 Red. masses --      1.7914                 1.6189                 4.4962
 Frc consts  --      0.0426                 0.0608                 0.2510
 IR Inten    --      2.5395                 2.1016                 7.5705

                      7                      8                      9
                      A                      A                      A
 Frequencies --    379.5045               396.5892               488.4603
 Red. masses --      3.6973                 1.9663                 4.7369
 Frc consts  --      0.3137                 0.1822                 0.6659
 IR Inten    --      5.6395                 0.0078                 4.5213

                     10                     11                     12
                      A                      A                      A
 Frequencies --    599.4476               654.7467               702.5286
 Red. masses --      6.0624                 5.1291                 3.7280
 Frc consts  --      1.2835                 1.2955                 1.0841
 IR Inten    --      7.1532                 0.1611                 6.8806

                     13                     14                     15
                      A                      A                      A
 Frequencies --    773.7567               813.5565               835.5777
 Red. masses --      1.3769                 2.7575                 2.9796
 Frc consts  --      0.4857                 1.0753                 1.2257
 IR Inten    --      2.5970                 5.2376                 6.8672

                     16                     17                     18
                      A                      A                      A
 Frequencies --    853.0178               896.9058               934.8659
 Red. masses --      3.5549                 1.8753                 2.2845
 Frc consts  --      1.5240                 0.8888                 1.1764
 IR Inten    --     29.8202                 4.9211                 1.0173

                     19                     20                     21
                      A                      A                      A
 Frequencies --    961.5041               995.3079              1030.4851
 Red. masses --      1.6783                 1.8130                 1.5642
 Frc consts  --      0.9142                 1.0582                 0.9786
 IR Inten    --      3.5808                 4.3518                 6.9959

                     22                     23                     24
                      A                      A                      A
 Frequencies --   1067.8630              1091.3075              1126.9218
 Red. masses --      2.3696                 1.2416                 2.1700
 Frc consts  --      1.5921                 0.8712                 1.6237
 IR Inten    --      0.3349                 1.0631                 5.2913

                     25                     26                     27
                      A                      A                      A
 Frequencies --   1142.0499              1184.4669              1200.9478
 Red. masses --      2.1189                 2.3621                 1.4198
 Frc consts  --      1.6283                 1.9525                 1.2065
 IR Inten    --      1.4502                38.0184                 3.0004

                     28                     29                     30
                      A                      A                      A
 Frequencies --   1241.7222              1259.4019              1290.5774
 Red. masses --      1.4260                 1.4666                 1.2502
 Frc consts  --      1.2954                 1.3705                 1.2269
 IR Inten    --      4.0599                 5.1661                 2.3464

                     31                     32                     33
                      A                      A                      A
 Frequencies --   1304.7123              1324.5392              1336.3210
 Red. masses --      1.4244                 1.6051                 1.5321
 Frc consts  --      1.4286                 1.6592                 1.6120
 IR Inten    --      4.7203                 1.3058                 1.3193

                     34                     35                     36
                      A                      A                      A
 Frequencies --   1376.6638              1411.5590              1414.0553
 Red. masses --      1.5591                 2.8970                 1.2372
 Frc consts  --      1.7410                 3.4010                 1.4576
 IR Inten    --     11.5939                17.2013                 1.6193

                     37                     38                     39
                      A                      A                      A
 Frequencies --   1482.2601              1490.3200              1499.7627
 Red. masses --      1.0859                 1.0654                 1.0430
 Frc consts  --      1.4057                 1.3942                 1.3822
 IR Inten    --      2.3109                 1.3200                 4.7538

                     40                     41                     42
                      A                      A                      A
 Frequencies --   1507.8283              1840.0095              3019.7727
 Red. masses --      1.0711                12.5062                 1.0751
 Frc consts  --      1.4348                24.9468                 5.7761
 IR Inten    --      3.4477               192.8272                 4.5112

                     43                     44                     45
                      A                      A                      A
 Frequencies --   3029.3332              3032.7890              3039.3357
 Red. masses --      1.0514                 1.0553                 1.0633
 Frc consts  --      5.6847                 5.7188                 5.7870
 IR Inten    --      8.9234                29.0760                24.8141

                     46                     47                     48
                      A                      A                      A
 Frequencies --   3074.1333              3091.8668              3099.9621
 Red. masses --      1.0959                 1.1004                 1.1018
 Frc consts  --      6.1017                 6.1978                 6.2382
 IR Inten    --      1.1394                15.3426                43.4412

                     49                     50                     51
                      A                      A                      A
 Frequencies --   3104.9302              3149.6954              3181.7954
 Red. masses --      1.1004                 1.0899                 1.0944
 Frc consts  --      6.2505                 6.3706                 6.5279
 IR Inten    --     35.4063                21.8952                14.4077

 - Thermochemistry -
 -------------------
 Temperature   298.150 Kelvin.  Pressure   1.00000 Atm.
 Atom     1 has atomic number  6 and mass  12.00000

 Molecular mass:   126.06808 amu.
 Principal axes and moments of inertia in atomic units:
                           1         2         3
     Eigenvalues --   653.228301371.208061840.34407
           X            0.99977  -0.01629   0.01417
           Y            0.01611   0.99978   0.01321
           Z           -0.01439  -0.01298   0.99981
 This molecule is an asymmetric top.
 Rotational symmetry number  1.
 Warning -- assumption of classical behavior for rotation
           may cause significant error
 Rotational temperatures (Kelvin)      0.13259     0.06317     0.04706
 Rotational constants (GHZ):           2.76280     1.31617     0.98065
 Zero-point vibrational energy     417702.3 (Joules/Mol)
                                   99.83324 (Kcal/Mol)
 Warning -- explicit consideration of  10 degrees of freedom as
           vibrations may cause significant error
 Vibrational temperatures:    111.57   133.86   243.60   289.14   363.32
          (Kelvin)            442.92   546.02   570.60   702.78   862.47
                              942.03  1010.78  1113.26  1170.52  1202.21
                             1227.30  1290.45  1345.06  1383.39  1432.02
                             1482.64  1536.41  1570.15  1621.39  1643.15
                             1704.18  1727.89  1786.56  1812.00  1856.85
                             1877.19  1905.71  1922.67  1980.71  2030.92
                             2034.51  2132.64  2144.24  2157.82  2169.43
                             2647.36  4344.77  4358.53  4363.50  4372.92
                             4422.99  4448.50  4460.15  4467.30  4531.70
                             4577.89

 Zero-point correction=                           0.159094 (Hartree/Particle)
 Thermal correction to Energy=                    0.167550
 Thermal correction to Enthalpy=                  0.168495
 Thermal correction to Gibbs Free Energy=         0.125613
 Sum of electronic and zero-point Energies=           -423.041788
 Sum of electronic and thermal Energies=              -423.033332
 Sum of electronic and thermal Enthalpies=            -423.032388
 Sum of electronic and thermal Free Energies=         -423.075270

                     E (Thermal)             CV                S
                      KCal/Mol        Cal/Mol-Kelvin    Cal/Mol-Kelvin
 Total                  105.139             31.730             90.252
 Electronic               0.000              0.000              0.000
 Translational            0.889              2.981             40.409
 Rotational               0.889              2.981             28.890
 Vibrational            103.362             25.768             20.953
 Vibration     1          0.599              1.964              3.952
 Vibration     2          0.602              1.954              3.595
 Vibration     3          0.625              1.880              2.443
 Vibration     4          0.638              1.839              2.124
 Vibration     5          0.664              1.759              1.713
 Vibration     6          0.698              1.659              1.374
 Vibration     7          0.750              1.514              1.041
 Vibration     8          0.763              1.477              0.975
 Vibration     9          0.844              1.276              0.688
 Vibration    10          0.958              1.033              0.451

 Optimization completed.
    -- Stationary point found.
 Normal termination of Gaussian 09 at Tue Jan 28 12:15:14 2020.
 Normal termination of Gaussian 09 at Tue Jan 28 12:01:50 2020.
