 Gaussian 09, Revision D.01,
 Gaussian 09:  ES64L-G09RevD.01 24-Apr-2013

 -----------------------------
 # b3lyp 6-31G(2df,p) opt Freq
 -----------------------------

 -----
 titel
 -----
 Symbolic Z-matrix:
 Charge =  0 Multiplicity = 1

 SCF Done:  E(RB3LYP) =  -423.100797985     A.U. after   14 cycles
 Optimization completed.
    -- Stationary point found.
 Normal termination of Gaussian 09 at Tue Jan 28 09:33:48 2020.

 ----------------------------------------------------------------------
 #N Geom=AllCheck Guess=TCheck SCRF=Check GenChk RB3LYP/6-31G(2df,p) Fr
 eq
 ----------------------------------------------------------------------

 Structure from the checkpoint file:  "/scratch/puck/g09_13f41459-bc82-443e-94b1-7ba65d312787/Gau-131480.chk"
 -----
 titel
 -----
 Charge =  0 Multiplicity = 1

                         Standard orientation:
 ---------------------------------------------------------------------
 Center     Atomic      Atomic             Coordinates (Angstroms)
 Number     Number       Type             X           Y           Z
 ---------------------------------------------------------------------
      1          6           0        2.694217   -1.209032    0.258385
      2          6           0        2.156605   -0.004183   -0.526806
      3          6           0        0.740906    0.319418   -0.172295
      4          8           0        0.476832    0.974667    1.086084
      5          6           0       -0.045825    1.551494   -0.127751
      6          6           0       -1.340250    0.795152   -0.539527
      7          6           0       -1.645793   -0.352440    0.404441
      8          8           0       -2.762634   -1.129520    0.077744
      9          6           0       -0.529432   -0.501370   -0.583218
     10          1           0        3.726862   -1.430618   -0.025859
     11          1           0        2.670002   -1.009812    1.333637
     12          1           0        2.093231   -2.104443    0.069332
     13          1           0        2.771899    0.880810   -0.330456
     14          1           0        2.212446   -0.203161   -1.604542
     15          1           0        0.210824    2.584431   -0.335116
     16          1           0       -2.064770    1.148880   -1.260500
     17          1           0       -1.431414   -0.257658    1.464506
     18          1           0       -3.539380   -0.692268    0.441890
     19          1           0       -0.545846   -1.271572   -1.342895
 ---------------------------------------------------------------------

 SCF Done:  E(RB3LYP) =  -423.100797985     A.U. after    1 cycles

 The electronic state is 1-A.
 Alpha  occ. eigenvalues --  -19.14701 -19.14321 -10.23959 -10.23586 -10.23492
 Alpha  occ. eigenvalues --  -10.19074 -10.18969 -10.18914 -10.17643  -1.07283
 Alpha  occ. eigenvalues --   -1.02797  -0.85621  -0.77868  -0.68314  -0.65484
 Alpha  occ. eigenvalues --   -0.60911  -0.56983  -0.54808  -0.51695  -0.49212
 Alpha  occ. eigenvalues --   -0.47403  -0.44339  -0.43943  -0.40153  -0.39566
 Alpha  occ. eigenvalues --   -0.38341  -0.36408  -0.34874  -0.34827  -0.33041
 Alpha  occ. eigenvalues --   -0.30662  -0.26675  -0.25994  -0.22180
 Alpha virt. eigenvalues --    0.06096   0.07757   0.09984   0.11507   0.11787
 Alpha virt. eigenvalues --    0.14003   0.14686   0.15362   0.16191   0.16748
 Alpha virt. eigenvalues --    0.17491   0.17899   0.19290   0.20785   0.21766

 Mulliken charges:
               1
     1  C   -0.380073
     2  C   -0.305273
     3  C    0.431542
     4  O   -0.297419
     5  C   -0.084633
     6  C   -0.149897
     7  C    0.092200
     8  O   -0.440179
     9  C   -0.159598
    10  H    0.114091
    11  H    0.134672
    12  H    0.124023
    13  H    0.111418
    14  H    0.105614
    15  H    0.105604
    16  H    0.095399
    17  H    0.113633
    18  H    0.288324
    19  H    0.100551
 Sum of Mulliken charges =   0.00000

 Dipole moment (field-independent basis, Debye):
    X=             -0.1716    Y=              0.8853    Z=             -1.0888  Tot=              1.4138
 Quadrupole moment (field-independent basis, Debye-Ang):
   XX=            -46.7015   YY=            -53.8197   ZZ=            -54.0840
   XY=             -3.5235   XZ=             -3.2080   YZ=             -1.8555

  Exact polarizability:  89.209  -1.652  73.405  -0.672  -0.571  61.995
 Approx polarizability: 113.803  -3.235 112.101   0.125   1.988 100.770

                      1                      2                      3
                      A                      A                      A
 Frequencies --     79.5736               123.5186               185.1478
 Red. masses --      2.6650                 3.0662                 1.4154
 Frc consts  --      0.0099                 0.0276                 0.0286
 IR Inten    --      0.4537                 2.1937                 1.7055

                      4                      5                      6
                      A                      A                      A
 Frequencies --    243.6747               274.2039               305.4602
 Red. masses --      1.8037                 1.5135                 2.7808
 Frc consts  --      0.0631                 0.0670                 0.1529
 IR Inten    --      9.1259                58.3361                33.2203

                      7                      8                      9
                      A                      A                      A
 Frequencies --    326.5788               367.6524               422.8434
 Red. masses --      2.4881                 2.6504                 6.8726
 Frc consts  --      0.1564                 0.2111                 0.7240
 IR Inten    --     10.5176                 6.3987                 3.0648

                     10                     11                     12
                      A                      A                      A
 Frequencies --    470.5140               589.4735               654.4890
 Red. masses --      3.1120                 4.2070                 3.4513
 Frc consts  --      0.4059                 0.8613                 0.8710
 IR Inten    --      6.2850                12.7935                 6.7470

                     13                     14                     15
                      A                      A                      A
 Frequencies --    738.9473               791.0758               803.9303
 Red. masses --      3.1463                 1.5925                 1.3797
 Frc consts  --      1.0122                 0.5872                 0.5254
 IR Inten    --      0.8328                 0.4876                17.8937

                     16                     17                     18
                      A                      A                      A
 Frequencies --    836.0910               867.8642               894.9696
 Red. masses --      3.4198                 2.2452                 2.9606
 Frc consts  --      1.4085                 0.9964                 1.3972
 IR Inten    --      4.3203                 7.6903                 2.7770

                     19                     20                     21
                      A                      A                      A
 Frequencies --    917.0029               943.0864               968.4490
 Red. masses --      3.1649                 2.0527                 2.2592
 Frc consts  --      1.5680                 1.0757                 1.2484
 IR Inten    --     28.5513                15.0688                 9.6899

                     22                     23                     24
                      A                      A                      A
 Frequencies --   1005.8265              1014.2066              1065.1802
 Red. masses --      1.5612                 1.7820                 2.1263
 Frc consts  --      0.9306                 1.0800                 1.4214
 IR Inten    --      8.8973                 2.0462                12.8631

                     25                     26                     27
                      A                      A                      A
 Frequencies --   1090.3306              1111.4492              1116.5347
 Red. masses --      1.4434                 1.7452                 1.5131
 Frc consts  --      1.0110                 1.2702                 1.1113
 IR Inten    --     14.6765                28.1573                20.7873

                     28                     29                     30
                      A                      A                      A
 Frequencies --   1167.1400              1174.5708              1221.8959
 Red. masses --      3.5085                 1.6851                 1.8178
 Frc consts  --      2.8159                 1.3697                 1.5990
 IR Inten    --     12.3860                 0.7001                11.4317

                     31                     32                     33
                      A                      A                      A
 Frequencies --   1256.1684              1260.2570              1281.5143
 Red. masses --      1.5348                 1.5866                 1.3048
 Frc consts  --      1.4269                 1.4847                 1.2626
 IR Inten    --      4.5658                24.5107                64.0593

                     34                     35                     36
                      A                      A                      A
 Frequencies --   1312.2849              1348.8917              1408.4824
 Red. masses --      1.3871                 1.5136                 1.2368
 Frc consts  --      1.4074                 1.6227                 1.4456
 IR Inten    --     35.6957                 4.8998                 1.7377

                     37                     38                     39
                      A                      A                      A
 Frequencies --   1429.0257              1467.3131              1483.0009
 Red. masses --      2.0434                 1.1821                 2.4707
 Frc consts  --      2.4586                 1.4995                 3.2014
 IR Inten    --      8.6603                 1.1962                10.4028

                     40                     41                     42
                      A                      A                      A
 Frequencies --   1497.4623              1510.9258              3028.6213
 Red. masses --      1.0391                 1.2387                 1.0614
 Frc consts  --      1.3729                 1.6661                 5.7360
 IR Inten    --      4.9398                 8.0910                21.2862

                     43                     44                     45
                      A                      A                      A
 Frequencies --   3040.3413              3071.8252              3110.3144
 Red. masses --      1.0350                 1.0998                 1.1016
 Frc consts  --      5.6367                 6.1147                 6.2788
 IR Inten    --     22.1442                 8.8208                33.9917

                     46                     47                     48
                      A                      A                      A
 Frequencies --   3118.7347              3151.7752              3176.1478
 Red. masses --      1.1025                 1.0880                 1.0935
 Frc consts  --      6.3183                 6.3678                 6.4992
 IR Inten    --     24.0791                14.5703                20.2131

                     49                     50                     51
                      A                      A                      A
 Frequencies --   3202.8646              3212.3239              3809.5164
 Red. masses --      1.0895                 1.0971                 1.0661
 Frc consts  --      6.5849                 6.6704                 9.1159
 IR Inten    --      7.6336                 5.4115                27.7280

 - Thermochemistry -
 -------------------
 Temperature   298.150 Kelvin.  Pressure   1.00000 Atm.
 Atom     1 has atomic number  6 and mass  12.00000

 Molecular mass:   126.06808 amu.
 Principal axes and moments of inertia in atomic units:
                           1         2         3
     Eigenvalues --   561.356791548.850631799.84073
           X            0.99949  -0.03192  -0.00285
           Y            0.03180   0.99880  -0.03730
           Z            0.00404   0.03719   0.99930
 This molecule is an asymmetric top.
 Rotational symmetry number  1.
 Warning -- assumption of classical behavior for rotation
           may cause significant error
 Rotational temperatures (Kelvin)      0.15429     0.05592     0.04812
 Rotational constants (GHZ):           3.21496     1.16521     1.00272
 Zero-point vibrational energy     412409.4 (Joules/Mol)
                                   98.56822 (Kcal/Mol)
 Warning -- explicit consideration of  11 degrees of freedom as
           vibrations may cause significant error
 Vibrational temperatures:    114.49   177.72   266.39   350.59   394.52
          (Kelvin)            439.49   469.87   528.97   608.38   676.96
                              848.12   941.66  1063.18  1138.18  1156.67
                             1202.95  1248.66  1287.66  1319.36  1356.89
                             1393.38  1447.16  1459.22  1532.55  1568.74
                             1599.13  1606.44  1679.25  1689.94  1758.03
                             1807.34  1813.23  1843.81  1888.08  1940.75
                             2026.49  2056.05  2111.13  2133.70  2154.51
                             2173.88  4357.51  4374.37  4419.67  4475.04
                             4487.16  4534.70  4569.76  4608.20  4621.81
                             5481.04

 Zero-point correction=                           0.157078 (Hartree/Particle)
 Thermal correction to Energy=                    0.165783
 Thermal correction to Enthalpy=                  0.166727
 Thermal correction to Gibbs Free Energy=         0.123810
 Sum of electronic and zero-point Energies=           -422.943720
 Sum of electronic and thermal Energies=              -422.935015
 Sum of electronic and thermal Enthalpies=            -422.934071
 Sum of electronic and thermal Free Energies=         -422.976988

                     E (Thermal)             CV                S
                      KCal/Mol        Cal/Mol-Kelvin    Cal/Mol-Kelvin
 Total                  104.030             33.573             90.327
 Electronic               0.000              0.000              0.000
 Translational            0.889              2.981             40.409
 Rotational               0.889              2.981             28.839
 Vibrational            102.253             27.611             21.080
 Vibration     1          0.600              1.963              3.901
 Vibration     2          0.610              1.929              3.045
 Vibration     3          0.631              1.860              2.276
 Vibration     4          0.659              1.773              1.776
 Vibration     5          0.677              1.721              1.570
 Vibration     6          0.696              1.663              1.387
 Vibration     7          0.710              1.622              1.277
 Vibration     8          0.740              1.539              1.090
 Vibration     9          0.785              1.421              0.882
 Vibration    10          0.828              1.315              0.736
 Vibration    11          0.947              1.054              0.468

 Normal termination of Gaussian 09 at Tue Jan 28 10:13:52 2020.
