 Gaussian 09, Revision D.01,
 Gaussian 09:  ES64L-G09RevD.01 24-Apr-2013

 -----------------------------
 # b3lyp 6-31G(2df,p) opt Freq
 -----------------------------

 -----
 titel
 -----
 Symbolic Z-matrix:
 Charge =  0 Multiplicity = 1

 SCF Done:  E(RB3LYP) =  -423.162792392     A.U. after   13 cycles
 Optimization completed.
    -- Stationary point found.
 Normal termination of Gaussian 09 at Tue Jan 28 14:06:14 2020.

 ----------------------------------------------------------------------
 #N Geom=AllCheck Guess=TCheck SCRF=Check GenChk RB3LYP/6-31G(2df,p) Fr
 eq
 ----------------------------------------------------------------------

 Structure from the checkpoint file:  "/scratch/puck/g09_f503bcb8-31f9-4a98-80ba-9b6e972d3c18/Gau-43834.chk"
 -----
 titel
 -----
 Charge =  0 Multiplicity = 1

                         Standard orientation:
 ---------------------------------------------------------------------
 Center     Atomic      Atomic             Coordinates (Angstroms)
 Number     Number       Type             X           Y           Z
 ---------------------------------------------------------------------
      1          8           0       -2.939828    0.532673   -0.274054
      2          6           0       -2.030195   -0.548302   -0.122605
      3          6           0       -0.597526   -0.153398   -0.447328
      4          6           0        0.466115   -1.117712    0.134200
      5          6           0        1.845219   -0.923624   -0.515501
      6          6           0        2.174055    0.556470   -0.533172
      7          6           0        1.303114    1.412419    0.002010
      8          6           0        0.048344    0.802070    0.590378
      9          8           0        0.435214   -0.368725    1.382859
     10          1           0       -2.942457    0.788366   -1.202157
     11          1           0       -2.095801   -0.850659    0.926670
     12          1           0       -2.329109   -1.412850   -0.737804
     13          1           0       -0.491596    0.132035   -1.499702
     14          1           0        0.201129   -2.170674    0.275182
     15          1           0        2.603607   -1.478292    0.052551
     16          1           0        1.852813   -1.340366   -1.532085
     17          1           0        3.115998    0.877651   -0.967829
     18          1           0        1.458409    2.485705    0.021159
     19          1           0       -0.590830    1.489963    1.145695
 ---------------------------------------------------------------------

 SCF Done:  E(RB3LYP) =  -423.162792392     A.U. after    1 cycles

 The electronic state is 1-A.
 Alpha  occ. eigenvalues --  -19.13609 -19.12801 -10.23727 -10.23291 -10.22604
 Alpha  occ. eigenvalues --  -10.19048 -10.19029 -10.18668 -10.18007  -1.03880
 Alpha  occ. eigenvalues --   -1.01534  -0.80739  -0.75680  -0.74103  -0.65752
 Alpha  occ. eigenvalues --   -0.61766  -0.58301  -0.52543  -0.51676  -0.48664
 Alpha  occ. eigenvalues --   -0.45980  -0.45005  -0.43155  -0.41459  -0.40077
 Alpha  occ. eigenvalues --   -0.39314  -0.38402  -0.36644  -0.33609  -0.30740
 Alpha  occ. eigenvalues --   -0.30451  -0.27320  -0.24790  -0.23652
 Alpha virt. eigenvalues --    0.00439   0.07397   0.09522   0.11631   0.12059
 Alpha virt. eigenvalues --    0.13661   0.14740   0.15607   0.15838   0.16298
 Alpha virt. eigenvalues --    0.17164   0.17837   0.18599   0.21220   0.21490

 Mulliken charges:
               1
     1  O   -0.419430
     2  C   -0.095874
     3  C   -0.022482
     4  C    0.071639
     5  C   -0.272858
     6  C   -0.064040
     7  C   -0.062133
     8  C    0.043495
     9  O   -0.300834
    10  H    0.280682
    11  H    0.126580
    12  H    0.083512
    13  H    0.061874
    14  H    0.072954
    15  H    0.117839
    16  H    0.105531
    17  H    0.094727
    18  H    0.092574
    19  H    0.086243
 Sum of Mulliken charges =   0.00000

 Dipole moment (field-independent basis, Debye):
    X=              0.7123    Y=             -0.2944    Z=             -2.7420  Tot=              2.8482
 Quadrupole moment (field-independent basis, Debye-Ang):
   XX=            -55.8099   YY=            -49.7289   ZZ=            -53.9973
   XY=              0.6266   XZ=              1.5442   YZ=              0.3259

  Exact polarizability:  85.681  -2.850  78.083  -5.190   2.736  62.076
 Approx polarizability: 114.024 -11.855 118.556  -9.510   6.299 102.703

                      1                      2                      3
                      A                      A                      A
 Frequencies --    100.5771               145.7923               217.2824
 Red. masses --      3.5565                 4.4634                 2.1704
 Frc consts  --      0.0212                 0.0559                 0.0604
 IR Inten    --      1.1094                 0.6738                10.2660

                      4                      5                      6
                      A                      A                      A
 Frequencies --    275.9114               317.0630               339.4275
 Red. masses --      1.9261                 1.2418                 4.0779
 Frc consts  --      0.0864                 0.0736                 0.2768
 IR Inten    --      0.8441               100.4334                 9.0893

                      7                      8                      9
                      A                      A                      A
 Frequencies --    430.0805               496.6708               515.9219
 Red. masses --      4.0205                 2.6932                 2.9828
 Frc consts  --      0.4382                 0.3914                 0.4678
 IR Inten    --     11.2218                 4.3828                10.1739

                     10                     11                     12
                      A                      A                      A
 Frequencies --    577.3776               695.8677               752.1129
 Red. masses --      5.3552                 1.5651                 3.9164
 Frc consts  --      1.0518                 0.4465                 1.3053
 IR Inten    --      1.1969                18.1952                 6.5914

                     13                     14                     15
                      A                      A                      A
 Frequencies --    840.5252               875.0157               879.2509
 Red. masses --      2.0927                 3.2302                 3.0670
 Frc consts  --      0.8711                 1.4572                 1.3970
 IR Inten    --     13.7407                19.9451                 5.4339

                     16                     17                     18
                      A                      A                      A
 Frequencies --    907.5328               942.3931               957.2407
 Red. masses --      3.0849                 3.3658                 3.0619
 Frc consts  --      1.4970                 1.7612                 1.6530
 IR Inten    --     17.4848                22.2429                24.5829

                     19                     20                     21
                      A                      A                      A
 Frequencies --    970.2576               972.5204              1011.9987
 Red. masses --      1.9710                 1.3498                 2.0471
 Frc consts  --      1.0932                 0.7521                 1.2352
 IR Inten    --      6.5489                 2.4892                 5.2076

                     22                     23                     24
                      A                      A                      A
 Frequencies --   1039.6350              1057.3372              1088.2853
 Red. masses --      1.8237                 3.3418                 2.5271
 Frc consts  --      1.1613                 2.2012                 1.7634
 IR Inten    --     29.7636                40.9211                25.6696

                     25                     26                     27
                      A                      A                      A
 Frequencies --   1110.3308              1155.5497              1166.9206
 Red. masses --      2.4290                 1.1179                 1.1081
 Frc consts  --      1.7643                 0.8795                 0.8890
 IR Inten    --      7.4827                 0.5511                 7.1758

                     28                     29                     30
                      A                      A                      A
 Frequencies --   1196.2786              1212.8711              1229.1266
 Red. masses --      1.4002                 1.4866                 1.3468
 Frc consts  --      1.1806                 1.2885                 1.1988
 IR Inten    --     19.3798                 5.6161                 4.5152

                     31                     32                     33
                      A                      A                      A
 Frequencies --   1295.9122              1301.2749              1335.2256
 Red. masses --      1.4257                 1.4159                 1.3979
 Frc consts  --      1.4106                 1.4126                 1.4684
 IR Inten    --      4.0703                16.4445                 5.9005

                     34                     35                     36
                      A                      A                      A
 Frequencies --   1352.6987              1369.0081              1390.8490
 Red. masses --      1.4782                 1.3982                 1.4849
 Frc consts  --      1.5937                 1.5440                 1.6925
 IR Inten    --      0.8759                 1.5252                 1.2835

                     37                     38                     39
                      A                      A                      A
 Frequencies --   1406.3060              1415.9719              1464.5758
 Red. masses --      1.5484                 1.3110                 1.0947
 Frc consts  --      1.8042                 1.5486                 1.3835
 IR Inten    --      5.8199                43.5397                 3.1853

                     40                     41                     42
                      A                      A                      A
 Frequencies --   1505.7552              1694.1613              2970.4538
 Red. masses --      1.0813                 6.2231                 1.0713
 Frc consts  --      1.4444                10.5237                 5.5694
 IR Inten    --      2.2848                 3.5816                61.0468

                     43                     44                     45
                      A                      A                      A
 Frequencies --   3013.2165              3043.6734              3046.2348
 Red. masses --      1.0600                 1.0969                 1.0883
 Frc consts  --      5.6703                 5.9871                 5.9500
 IR Inten    --     26.7048                 4.7754                43.7228

                     46                     47                     48
                      A                      A                      A
 Frequencies --   3058.1892              3092.0886              3107.9261
 Red. masses --      1.0881                 1.0919                 1.0892
 Frc consts  --      5.9960                 6.1508                 6.1985
 IR Inten    --     59.4865                22.0264                29.3875

                     49                     50                     51
                      A                      A                      A
 Frequencies --   3165.9225              3193.8014              3812.0165
 Red. masses --      1.0855                 1.0998                 1.0661
 Frc consts  --      6.4104                 6.6099                 9.1280
 IR Inten    --      9.4883                25.2142                16.5274

 - Thermochemistry -
 -------------------
 Temperature   298.150 Kelvin.  Pressure   1.00000 Atm.
 Atom     1 has atomic number  8 and mass  15.99491

 Molecular mass:   126.06808 amu.
 Principal axes and moments of inertia in atomic units:
                           1         2         3
     Eigenvalues --   527.355081471.807891605.97580
           X            0.99996   0.00550  -0.00729
           Y           -0.00522   0.99928   0.03764
           Z            0.00749  -0.03760   0.99926
 This molecule is an asymmetric top.
 Rotational symmetry number  1.
 Warning -- assumption of classical behavior for rotation
           may cause significant error
 Rotational temperatures (Kelvin)      0.16424     0.05885     0.05393
 Rotational constants (GHZ):           3.42225     1.22621     1.12377
 Zero-point vibrational energy     421757.9 (Joules/Mol)
                                  100.80256 (Kcal/Mol)
 Warning -- explicit consideration of  10 degrees of freedom as
           vibrations may cause significant error
 Vibrational temperatures:    144.71   209.76   312.62   396.97   456.18
          (Kelvin)            488.36   618.79   714.60   742.30   830.72
                             1001.20  1082.12  1209.33  1258.95  1265.04
                             1305.74  1355.89  1377.25  1395.98  1399.24
                             1456.04  1495.80  1521.27  1565.80  1597.52
                             1662.58  1678.94  1721.18  1745.05  1768.44
                             1864.53  1872.24  1921.09  1946.23  1969.69
                             2001.12  2023.36  2037.27  2107.20  2166.44
                             2437.52  4273.82  4335.34  4379.16  4382.85
                             4400.05  4448.82  4471.61  4555.05  4595.16
                             5484.63

 Zero-point correction=                           0.160639 (Hartree/Particle)
 Thermal correction to Energy=                    0.168441
 Thermal correction to Enthalpy=                  0.169386
 Thermal correction to Gibbs Free Energy=         0.128376
 Sum of electronic and zero-point Energies=           -423.002153
 Sum of electronic and thermal Energies=              -422.994351
 Sum of electronic and thermal Enthalpies=            -422.993407
 Sum of electronic and thermal Free Energies=         -423.034416

                     E (Thermal)             CV                S
                      KCal/Mol        Cal/Mol-Kelvin    Cal/Mol-Kelvin
 Total                  105.699             30.760             86.311
 Electronic               0.000              0.000              0.000
 Translational            0.889              2.981             40.409
 Rotational               0.889              2.981             28.613
 Vibrational            103.921             24.798             17.290
 Vibration     1          0.604              1.949              3.443
 Vibration     2          0.617              1.907              2.726
 Vibration     3          0.646              1.815              1.982
 Vibration     4          0.678              1.718              1.559
 Vibration     5          0.704              1.641              1.325
 Vibration     6          0.719              1.597              1.215
 Vibration     7          0.791              1.405              0.858
 Vibration     8          0.852              1.257              0.667
 Vibration     9          0.871              1.215              0.619
 Vibration    10          0.934              1.080              0.490

 Optimization completed.
    -- Stationary point found.
 Normal termination of Gaussian 09 at Tue Jan 28 14:55:18 2020.
