 Gaussian 09, Revision D.01,
 Gaussian 09:  ES64L-G09RevD.01 24-Apr-2013

 -----------------------------
 # b3lyp 6-31G(2df,p) opt Freq
 -----------------------------

 -----
 titel
 -----
 Symbolic Z-matrix:
 Charge =  0 Multiplicity = 1

 SCF Done:  E(RB3LYP) =  -423.215868515     A.U. after   14 cycles
 Optimization completed.
    -- Stationary point found.
 Normal termination of Gaussian 09 at Mon Jan 27 22:03:31 2020.

 ----------------------------------------------------------------------
 #N Geom=AllCheck Guess=TCheck SCRF=Check GenChk RB3LYP/6-31G(2df,p) Fr
 eq
 ----------------------------------------------------------------------

 Structure from the checkpoint file:  "/scratch/puck/g09_bc8088b1-12f8-4a61-a9e1-f13241f08744/Gau-192812.chk"
 -----
 titel
 -----
 Charge =  0 Multiplicity = 1

                         Standard orientation:
 ---------------------------------------------------------------------
 Center     Atomic      Atomic             Coordinates (Angstroms)
 Number     Number       Type             X           Y           Z
 ---------------------------------------------------------------------
      1          6           0       -3.011321   -0.756143   -0.050377
      2          6           0       -1.669796   -0.095932   -0.017884
      3          6           0       -1.339163    1.094614   -0.524484
      4          6           0        0.093470    1.470783   -0.260649
      5          6           0        0.731770    0.151008    0.288221
      6          8           0        1.611976    0.370928    1.356867
      7          6           0       -0.491690   -0.736902    0.679904
      8          6           0        1.481882   -0.524397   -0.843338
      9          8           0        2.655569   -0.798093   -0.768209
     10          1           0       -2.959530   -1.738410   -0.537198
     11          1           0       -3.388321   -0.933915    0.964938
     12          1           0       -3.746932   -0.148613   -0.584329
     13          1           0       -2.028275    1.754894   -1.040902
     14          1           0        0.614634    1.853585   -1.147909
     15          1           0        0.193159    2.241613    0.513352
     16          1           0        2.472019    0.026487    1.066862
     17          1           0       -0.356406   -1.792004    0.405651
     18          1           0       -0.596012   -0.713767    1.771876
     19          1           0        0.884393   -0.750739   -1.749963
 ---------------------------------------------------------------------

 SCF Done:  E(RB3LYP) =  -423.215868515     A.U. after    1 cycles

 The electronic state is 1-A.
 Alpha  occ. eigenvalues --  -19.15830 -19.13275 -10.27903 -10.24730 -10.19494
 Alpha  occ. eigenvalues --  -10.19231 -10.19193 -10.18872 -10.18262  -1.06997
 Alpha  occ. eigenvalues --   -1.01671  -0.85194  -0.75736  -0.72042  -0.68009
 Alpha  occ. eigenvalues --   -0.62705  -0.56525  -0.53153  -0.52477  -0.49104
 Alpha  occ. eigenvalues --   -0.46025  -0.43568  -0.43006  -0.42296  -0.40546
 Alpha  occ. eigenvalues --   -0.39339  -0.38373  -0.36871  -0.36109  -0.35208
 Alpha  occ. eigenvalues --   -0.34684  -0.27273  -0.26535  -0.23970
 Alpha virt. eigenvalues --   -0.03298   0.02067   0.09502   0.09997   0.12351
 Alpha virt. eigenvalues --    0.12909   0.13375   0.14676   0.15278   0.16934
 Alpha virt. eigenvalues --    0.17435   0.17866   0.18501   0.21814   0.23247

 Mulliken charges:
               1
     1  C   -0.493153
     2  C    0.335294
     3  C   -0.164757
     4  C   -0.328368
     5  C    0.340443
     6  O   -0.484217
     7  C   -0.375552
     8  C    0.115320
     9  O   -0.280076
    10  H    0.126132
    11  H    0.130258
    12  H    0.125803
    13  H    0.090499
    14  H    0.105300
    15  H    0.131104
    16  H    0.289815
    17  H    0.102656
    18  H    0.129953
    19  H    0.103545
 Sum of Mulliken charges =   0.00000

 Dipole moment (field-independent basis, Debye):
    X=             -2.4154    Y=             -0.0777    Z=             -0.9249  Tot=              2.5876
 Quadrupole moment (field-independent basis, Debye-Ang):
   XX=            -56.9601   YY=            -52.1386   ZZ=            -54.9486
   XY=              1.9532   XZ=              0.4605   YZ=             -2.1154

  Exact polarizability:  92.840   3.220  76.506   1.105  -4.985  65.612
 Approx polarizability: 126.227   3.423 121.702   0.552 -10.174 102.024

                      1                      2                      3
                      A                      A                      A
 Frequencies --     53.5611               107.0421               180.4355
 Red. masses --      3.3668                 4.3496                 1.1851
 Frc consts  --      0.0057                 0.0294                 0.0227
 IR Inten    --      0.6913                 0.2823                 0.7029

                      4                      5                      6
                      A                      A                      A
 Frequencies --    228.4722               269.8343               292.4243
 Red. masses --      2.0326                 3.1463                 3.7224
 Frc consts  --      0.0625                 0.1350                 0.1875
 IR Inten    --      1.7598                 2.2349                 9.7668

                      7                      8                      9
                      A                      A                      A
 Frequencies --    320.0196               381.5754               406.7364
 Red. masses --      2.0560                 3.7211                 1.9850
 Frc consts  --      0.1241                 0.3192                 0.1935
 IR Inten    --      1.0972                10.1739                33.8510

                     10                     11                     12
                      A                      A                      A
 Frequencies --    441.9746               468.1440               506.4866
 Red. masses --      1.9540                 5.1019                 1.3390
 Frc consts  --      0.2249                 0.6588                 0.2024
 IR Inten    --      5.2364                 5.9292                27.2358

                     13                     14                     15
                      A                      A                      A
 Frequencies --    628.6091               726.5358               816.6259
 Red. masses --      4.0291                 3.2995                 1.5654
 Frc consts  --      0.9380                 1.0261                 0.6151
 IR Inten    --      0.7911                 0.8431                33.9857

                     16                     17                     18
                      A                      A                      A
 Frequencies --    835.0075               880.9759               889.4318
 Red. masses --      3.7422                 3.6216                 1.9062
 Frc consts  --      1.5373                 1.6560                 0.8884
 IR Inten    --     11.4574                 3.5834                 2.6635

                     19                     20                     21
                      A                      A                      A
 Frequencies --    929.8336               964.5539              1006.8637
 Red. masses --      1.6145                 1.7631                 2.1266
 Frc consts  --      0.8224                 0.9664                 1.2702
 IR Inten    --      0.2787                 2.9014                 0.0424

                     22                     23                     24
                      A                      A                      A
 Frequencies --   1029.5330              1038.3359              1082.1909
 Red. masses --      1.4852                 1.5044                 1.9365
 Frc consts  --      0.9275                 0.9556                 1.3362
 IR Inten    --     19.7653                 8.4886                30.3942

                     25                     26                     27
                      A                      A                      A
 Frequencies --   1111.4786              1137.1382              1157.9011
 Red. masses --      2.9908                 1.8565                 1.2149
 Frc consts  --      2.1769                 1.4144                 0.9597
 IR Inten    --      3.0708                54.1488                 3.2245

                     28                     29                     30
                      A                      A                      A
 Frequencies --   1196.7798              1267.8289              1285.6353
 Red. masses --      2.3430                 1.8849                 1.4002
 Frc consts  --      1.9772                 1.7851                 1.3636
 IR Inten    --      1.6437                 7.1446                 6.6953

                     31                     32                     33
                      A                      A                      A
 Frequencies --   1321.7967              1346.7982              1382.7539
 Red. masses --      1.9991                 2.2796                 1.1946
 Frc consts  --      2.0579                 2.4362                 1.3457
 IR Inten    --     16.1975                11.1961                65.7967

                     34                     35                     36
                      A                      A                      A
 Frequencies --   1415.4896              1438.2928              1477.9992
 Red. masses --      1.2968                 1.4266                 1.0557
 Frc consts  --      1.5309                 1.7388                 1.3588
 IR Inten    --      0.3047                49.2712                 6.7633

                     37                     38                     39
                      A                      A                      A
 Frequencies --   1479.7303              1488.6906              1490.3358
 Red. masses --      1.0703                 1.0672                 1.0904
 Frc consts  --      1.3808                 1.3935                 1.4269
 IR Inten    --      3.1487                 6.7375                 2.0838

                     40                     41                     42
                      A                      A                      A
 Frequencies --   1724.5557              1811.8648              2932.9185
 Red. masses --      6.7870                10.3024                 1.0859
 Frc consts  --     11.8927                19.9270                 5.5037
 IR Inten    --      3.2046               176.4414                60.3221

                     43                     44                     45
                      A                      A                      A
 Frequencies --   3012.3279              3017.9933              3019.0353
 Red. masses --      1.0588                 1.0501                 1.0532
 Frc consts  --      5.6605                 5.6351                 5.6559
 IR Inten    --     22.1328                73.1425                 1.3858

                     46                     47                     48
                      A                      A                      A
 Frequencies --   3050.4728              3052.4013              3063.3101
 Red. masses --      1.0989                 1.1002                 1.0984
 Frc consts  --      6.0248                 6.0398                 6.0727
 IR Inten    --     13.6835                 9.3861                18.3789

                     49                     50                     51
                      A                      A                      A
 Frequencies --   3111.7591              3184.8952              3681.8686
 Red. masses --      1.0992                 1.0933                 1.0647
 Frc consts  --      6.2710                 6.5341                 8.5039
 IR Inten    --     19.2189                16.3586                76.5528

 - Thermochemistry -
 -------------------
 Temperature   298.150 Kelvin.  Pressure   1.00000 Atm.
 Atom     1 has atomic number  6 and mass  12.00000

 Molecular mass:   126.06808 amu.
 Principal axes and moments of inertia in atomic units:
                           1         2         3
     Eigenvalues --   569.360201676.430711750.13365
           X            0.99970   0.02422   0.00218
           Y           -0.02356   0.98685  -0.15989
           Z           -0.00603   0.15979   0.98713
 This molecule is an asymmetric top.
 Rotational symmetry number  1.
 Warning -- assumption of classical behavior for rotation
           may cause significant error
 Rotational temperatures (Kelvin)      0.15212     0.05167     0.04949
 Rotational constants (GHZ):           3.16977     1.07654     1.03120
 Zero-point vibrational energy     413592.4 (Joules/Mol)
                                   98.85096 (Kcal/Mol)
 Warning -- explicit consideration of  12 degrees of freedom as
           vibrations may cause significant error
 Vibrational temperatures:     77.06   154.01   259.61   328.72   388.23
          (Kelvin)            420.73   460.44   549.00   585.20   635.90
                              673.55   728.72   904.43  1045.32  1174.94
                             1201.39  1267.53  1279.69  1337.82  1387.78
                             1448.65  1481.27  1493.93  1557.03  1599.17
                             1636.09  1665.96  1721.90  1824.12  1849.74
                             1901.77  1937.74  1989.47  2036.57  2069.38
                             2126.51  2129.00  2141.89  2144.26  2481.25
                             2606.87  4219.81  4334.06  4342.21  4343.71
                             4388.94  4391.72  4407.41  4477.12  4582.35
                             5297.38

 Zero-point correction=                           0.157529 (Hartree/Particle)
 Thermal correction to Energy=                    0.166567
 Thermal correction to Enthalpy=                  0.167512
 Thermal correction to Gibbs Free Energy=         0.123610
 Sum of electronic and zero-point Energies=           -423.058339
 Sum of electronic and thermal Energies=              -423.049301
 Sum of electronic and thermal Enthalpies=            -423.048357
 Sum of electronic and thermal Free Energies=         -423.092258

                     E (Thermal)             CV                S
                      KCal/Mol        Cal/Mol-Kelvin    Cal/Mol-Kelvin
 Total                  104.523             33.961             92.398
 Electronic               0.000              0.000              0.000
 Translational            0.889              2.981             40.409
 Rotational               0.889              2.981             28.903
 Vibrational            102.745             27.999             23.086
 Vibration     1          0.596              1.976              4.681
 Vibration     2          0.606              1.944              3.322
 Vibration     3          0.629              1.866              2.324
 Vibration     4          0.651              1.798              1.891
 Vibration     5          0.674              1.729              1.597
 Vibration     6          0.688              1.688              1.460
 Vibration     7          0.706              1.635              1.310
 Vibration     8          0.751              1.509              1.033
 Vibration     9          0.772              1.456              0.938
 Vibration    10          0.802              1.379              0.820
 Vibration    11          0.825              1.321              0.743
 Vibration    12          0.862              1.236              0.642

 Normal termination of Gaussian 09 at Mon Jan 27 22:48:41 2020.
