 Gaussian 09, Revision D.01,
 Gaussian 09:  ES64L-G09RevD.01 24-Apr-2013

 -----------------------------
 # b3lyp 6-31G(2df,p) opt Freq
 -----------------------------

 -----
 titel
 -----
 Symbolic Z-matrix:
 Charge =  0 Multiplicity = 1

 SCF Done:  E(RB3LYP) =  -423.198069206     A.U. after   14 cycles
 Optimization completed.
    -- Stationary point found.
 Normal termination of Gaussian 09 at Tue Jan 28 08:11:03 2020.

 ----------------------------------------------------------------------
 #N Geom=AllCheck Guess=TCheck SCRF=Check GenChk RB3LYP/6-31G(2df,p) Fr
 eq
 ----------------------------------------------------------------------

 Structure from the checkpoint file:  "/scratch/puck/g09_7c74b12d-4709-4032-a864-9ad8603a53f4/Gau-74166.chk"
 -----
 titel
 -----
 Charge =  0 Multiplicity = 1

                         Standard orientation:
 ---------------------------------------------------------------------
 Center     Atomic      Atomic             Coordinates (Angstroms)
 Number     Number       Type             X           Y           Z
 ---------------------------------------------------------------------
      1          6           0       -2.704613    0.354583   -0.249806
      2          6           0       -1.364064    0.387579    0.492798
      3          6           0       -0.861838   -1.036346    0.821186
      4          8           0       -0.189277   -1.486083   -0.356461
      5          6           0        0.501204   -0.373902   -0.874090
      6          6           0       -0.229709    0.932656   -0.400155
      7          6           0        1.059602    1.428713    0.319592
      8          6           0        1.748640    0.103410   -0.058438
      9          8           0        2.806124   -0.387862    0.201222
     10          1           0       -3.496509   -0.055038    0.385537
     11          1           0       -3.009545    1.358475   -0.561947
     12          1           0       -2.635058   -0.271859   -1.145166
     13          1           0       -1.463264    0.979648    1.408752
     14          1           0       -0.170317   -1.027049    1.677744
     15          1           0       -1.664149   -1.746940    1.034413
     16          1           0        0.686981   -0.533639   -1.939508
     17          1           0       -0.597591    1.596653   -1.182363
     18          1           0        1.535570    2.301076   -0.138975
     19          1           0        0.983781    1.610076    1.396901
 ---------------------------------------------------------------------

 SCF Done:  E(RB3LYP) =  -423.198069206     A.U. after    1 cycles

 The electronic state is 1-A.
 Alpha  occ. eigenvalues --  -19.15204 -19.14336 -10.26886 -10.23714 -10.23333
 Alpha  occ. eigenvalues --  -10.20086 -10.19948 -10.19585 -10.18292  -1.05701
 Alpha  occ. eigenvalues --   -1.04289  -0.84321  -0.78799  -0.70348  -0.66344
 Alpha  occ. eigenvalues --   -0.62889  -0.57555  -0.53555  -0.50000  -0.49264
 Alpha  occ. eigenvalues --   -0.46388  -0.43882  -0.43631  -0.42750  -0.41338
 Alpha  occ. eigenvalues --   -0.39803  -0.38735  -0.36422  -0.34222  -0.33601
 Alpha  occ. eigenvalues --   -0.32880  -0.31948  -0.28570  -0.22888
 Alpha virt. eigenvalues --   -0.03352   0.08047   0.10362   0.10616   0.12729
 Alpha virt. eigenvalues --    0.13647   0.13936   0.14883   0.15242   0.15828
 Alpha virt. eigenvalues --    0.16763   0.17670   0.19709   0.20370   0.20983

 Mulliken charges:
               1
     1  C   -0.406322
     2  C    0.007194
     3  C   -0.109562
     4  O   -0.248048
     5  C   -0.000578
     6  C   -0.051538
     7  C   -0.386224
     8  C    0.377995
     9  O   -0.283553
    10  H    0.115664
    11  H    0.115317
    12  H    0.131908
    13  H    0.078211
    14  H    0.100914
    15  H    0.114035
    16  H    0.102395
    17  H    0.078769
    18  H    0.134544
    19  H    0.128880
 Sum of Mulliken charges =   0.00000

 Dipole moment (field-independent basis, Debye):
    X=             -2.6463    Y=              2.2960    Z=              0.0749  Tot=              3.5043
 Quadrupole moment (field-independent basis, Debye-Ang):
   XX=            -60.7104   YY=            -54.6163   ZZ=            -50.2544
   XY=              3.2525   XZ=             -2.5697   YZ=             -1.4226

  Exact polarizability:  86.306   0.214  71.131   0.135  -0.395  66.312
 Approx polarizability: 116.919  -3.597 108.314   1.060   0.699 102.378

                      1                      2                      3
                      A                      A                      A
 Frequencies --     43.7973               127.5875               222.3249
 Red. masses --      4.2694                 3.5154                 1.3437
 Frc consts  --      0.0048                 0.0337                 0.0391
 IR Inten    --      2.3000                 1.6091                 0.4262

                      4                      5                      6
                      A                      A                      A
 Frequencies --    245.2589               262.7144               330.9029
 Red. masses --      2.3761                 2.6586                 2.4653
 Frc consts  --      0.0842                 0.1081                 0.1590
 IR Inten    --      2.1097                 4.3163                 0.3779

                      7                      8                      9
                      A                      A                      A
 Frequencies --    414.2010               420.1924               540.8546
 Red. masses --      2.2372                 3.6595                 2.3270
 Frc consts  --      0.2261                 0.3807                 0.4011
 IR Inten    --      1.8234                 1.6432                 4.2115

                     10                     11                     12
                      A                      A                      A
 Frequencies --    610.0285               697.1525               731.4141
 Red. masses --      4.4554                 3.5114                 2.3088
 Frc consts  --      0.9769                 1.0055                 0.7277
 IR Inten    --      0.9076                 1.1326                 8.2114

                     13                     14                     15
                      A                      A                      A
 Frequencies --    758.6700               826.1159               854.7252
 Red. masses --      4.5610                 2.8778                 2.0385
 Frc consts  --      1.5467                 1.1572                 0.8774
 IR Inten    --      1.8882                 4.7176                 1.5940

                     16                     17                     18
                      A                      A                      A
 Frequencies --    885.6950               944.5056               954.1476
 Red. masses --      2.3528                 2.2322                 3.1225
 Frc consts  --      1.0874                 1.1733                 1.6749
 IR Inten    --      4.2008                37.4623                13.6724

                     19                     20                     21
                      A                      A                      A
 Frequencies --    981.3953              1019.6485              1027.6292
 Red. masses --      2.0787                 2.3449                 2.1486
 Frc consts  --      1.1796                 1.4364                 1.3368
 IR Inten    --      8.0962                 6.4006                16.2176

                     22                     23                     24
                      A                      A                      A
 Frequencies --   1043.9423              1072.6338              1130.2609
 Red. masses --      1.4584                 2.4324                 2.9309
 Frc consts  --      0.9364                 1.6489                 2.2060
 IR Inten    --      8.6957                22.9111                43.4204

                     25                     26                     27
                      A                      A                      A
 Frequencies --   1144.8574              1151.1820              1176.4230
 Red. masses --      1.8472                 1.8559                 1.6149
 Frc consts  --      1.4265                 1.4491                 1.3168
 IR Inten    --      8.3811                22.0882                 0.5341

                     28                     29                     30
                      A                      A                      A
 Frequencies --   1221.2823              1233.4746              1253.3012
 Red. masses --      1.7335                 1.5187                 1.2304
 Frc consts  --      1.5234                 1.3614                 1.1387
 IR Inten    --      0.4618                 1.9864                 3.7151

                     31                     32                     33
                      A                      A                      A
 Frequencies --   1282.7966              1302.9253              1325.2722
 Red. masses --      1.5277                 1.2911                 1.3960
 Frc consts  --      1.4811                 1.2914                 1.4445
 IR Inten    --      2.9154                 1.3281                 1.6105

                     34                     35                     36
                      A                      A                      A
 Frequencies --   1369.3906              1379.8573              1409.1424
 Red. masses --      1.3939                 1.4681                 1.2493
 Frc consts  --      1.5401                 1.6469                 1.4616
 IR Inten    --      4.6912                 0.8509                 3.3363

                     37                     38                     39
                      A                      A                      A
 Frequencies --   1433.2106              1495.6018              1500.4995
 Red. masses --      1.1017                 1.0470                 1.0501
 Frc consts  --      1.3333                 1.3798                 1.3929
 IR Inten    --     12.9087                 4.3407                 3.5025

                     40                     41                     42
                      A                      A                      A
 Frequencies --   1516.0446              1894.9717              2985.9564
 Red. masses --      1.0892                12.8955                 1.0705
 Frc consts  --      1.4749                27.2832                 5.6236
 IR Inten    --      1.7722               233.5238                46.8080

                     43                     44                     45
                      A                      A                      A
 Frequencies --   3032.8077              3049.8701              3052.4676
 Red. masses --      1.0347                 1.0610                 1.0833
 Frc consts  --      5.6075                 5.8149                 5.9470
 IR Inten    --     21.6136                 5.4095                25.8793

                     46                     47                     48
                      A                      A                      A
 Frequencies --   3082.0453              3097.1971              3098.9737
 Red. masses --      1.0870                 1.0963                 1.1013
 Frc consts  --      6.0835                 6.1963                 6.2315
 IR Inten    --     21.7149                 4.7185                 8.0916

                     49                     50                     51
                      A                      A                      A
 Frequencies --   3103.8623              3107.0677              3113.0148
 Red. masses --      1.1000                 1.1016                 1.0912
 Frc consts  --      6.2436                 6.2658                 6.2302
 IR Inten    --     35.4240                25.8642                29.2701

 - Thermochemistry -
 -------------------
 Temperature   298.150 Kelvin.  Pressure   1.00000 Atm.
 Atom     1 has atomic number  6 and mass  12.00000

 Molecular mass:   126.06808 amu.
 Principal axes and moments of inertia in atomic units:
                           1         2         3
     Eigenvalues --   535.798751349.416681587.80249
           X            0.99996   0.00841  -0.00096
           Y           -0.00843   0.99971  -0.02253
           Z            0.00077   0.02253   0.99975
 This molecule is an asymmetric top.
 Rotational symmetry number  1.
 Warning -- assumption of classical behavior for rotation
           may cause significant error
 Rotational temperatures (Kelvin)      0.16165     0.06419     0.05455
 Rotational constants (GHZ):           3.36832     1.33742     1.13663
 Zero-point vibrational energy     418449.5 (Joules/Mol)
                                  100.01183 (Kcal/Mol)
 Warning -- explicit consideration of  10 degrees of freedom as
           vibrations may cause significant error
 Vibrational temperatures:     63.01   183.57   319.88   352.87   377.99
          (Kelvin)            476.09   595.94   604.56   778.17   877.69
                             1003.05  1052.34  1091.56  1188.59  1229.76
                             1274.32  1358.93  1372.80  1412.01  1467.04
                             1478.53  1502.00  1543.28  1626.19  1647.19
                             1656.29  1692.61  1757.15  1774.69  1803.22
                             1845.66  1874.62  1906.77  1970.25  1985.30
                             2027.44  2062.07  2151.83  2158.88  2181.25
                             2726.44  4296.12  4363.53  4388.08  4391.81
                             4434.37  4456.17  4458.73  4465.76  4470.37
                             4478.93

 Zero-point correction=                           0.159379 (Hartree/Particle)
 Thermal correction to Energy=                    0.167507
 Thermal correction to Enthalpy=                  0.168452
 Thermal correction to Gibbs Free Energy=         0.126222
 Sum of electronic and zero-point Energies=           -423.038690
 Sum of electronic and thermal Energies=              -423.030562
 Sum of electronic and thermal Enthalpies=            -423.029618
 Sum of electronic and thermal Free Energies=         -423.071847

                     E (Thermal)             CV                S
                      KCal/Mol        Cal/Mol-Kelvin    Cal/Mol-Kelvin
 Total                  105.113             31.080             88.879
 Electronic               0.000              0.000              0.000
 Translational            0.889              2.981             40.409
 Rotational               0.889              2.981             28.531
 Vibrational            103.335             25.119             19.940
 Vibration     1          0.595              1.980              5.079
 Vibration     2          0.611              1.926              2.982
 Vibration     3          0.648              1.807              1.940
 Vibration     4          0.660              1.771              1.764
 Vibration     5          0.670              1.741              1.644
 Vibration     6          0.713              1.614              1.256
 Vibration     7          0.778              1.439              0.912
 Vibration     8          0.783              1.426              0.891
 Vibration     9          0.896              1.160              0.563
 Vibration    10          0.969              1.011              0.433

 Optimization completed.
    -- Stationary point found.
 Normal termination of Gaussian 09 at Tue Jan 28 09:00:25 2020.
