 Gaussian 09, Revision D.01,
 Gaussian 09:  ES64L-G09RevD.01 24-Apr-2013

 -----------------------------
 # b3lyp 6-31G(2df,p) opt Freq
 -----------------------------

 -----
 titel
 -----
 Symbolic Z-matrix:
 Charge =  0 Multiplicity = 1

 SCF Done:  E(RB3LYP) =  -423.175405933     A.U. after   14 cycles
 Optimization completed.
    -- Stationary point found.
 Normal termination of Gaussian 09 at Mon Jan 27 16:19:19 2020.

 ----------------------------------------------------------------------
 #N Geom=AllCheck Guess=TCheck SCRF=Check GenChk RB3LYP/6-31G(2df,p) Fr
 eq
 ----------------------------------------------------------------------

 Structure from the checkpoint file:  "/scratch/puck/g09_046cce38-a6b6-44a7-a524-4a789adbac29/Gau-57099.chk"
 -----
 titel
 -----
 Charge =  0 Multiplicity = 1

                         Standard orientation:
 ---------------------------------------------------------------------
 Center     Atomic      Atomic             Coordinates (Angstroms)
 Number     Number       Type             X           Y           Z
 ---------------------------------------------------------------------
      1          6           0        2.361006   -0.353324   -0.992290
      2          6           0        1.258399   -0.082431    0.033449
      3          8           0        1.747769   -0.364477    1.356217
      4          6           0       -0.005379   -0.958179   -0.160151
      5          6           0       -1.193273   -0.005314   -0.025742
      6          6           0       -2.470597   -0.341577    0.622933
      7          8           0       -2.372778   -0.275063   -0.800114
      8          6           0       -0.624120    1.366900   -0.052445
      9          6           0        0.706575    1.333300   -0.038139
     10          1           0        3.221266    0.304862   -0.819274
     11          1           0        2.704970   -1.388913   -0.912297
     12          1           0        2.005667   -0.176947   -2.012230
     13          1           0        2.479493    0.236727    1.533816
     14          1           0       -0.025945   -1.399304   -1.160415
     15          1           0       -0.014358   -1.766997    0.572364
     16          1           0       -2.606949   -1.339101    1.040151
     17          1           0       -3.069509    0.440143    1.090295
     18          1           0       -1.251880    2.250317   -0.070798
     19          1           0        1.361660    2.199275   -0.036133
 ---------------------------------------------------------------------

 SCF Done:  E(RB3LYP) =  -423.175405933     A.U. after    1 cycles

 The electronic state is 1-A.
 Alpha  occ. eigenvalues --  -19.14556 -19.13449 -10.24347 -10.24085 -10.22914
 Alpha  occ. eigenvalues --  -10.18830 -10.18624 -10.18035 -10.17844  -1.06524
 Alpha  occ. eigenvalues --   -1.01672  -0.83623  -0.74109  -0.71097  -0.66142
 Alpha  occ. eigenvalues --   -0.63553  -0.56625  -0.55252  -0.51069  -0.48763
 Alpha  occ. eigenvalues --   -0.45898  -0.44853  -0.42652  -0.41957  -0.39562
 Alpha  occ. eigenvalues --   -0.38200  -0.37124  -0.36078  -0.35555  -0.32186
 Alpha  occ. eigenvalues --   -0.31829  -0.26997  -0.26461  -0.24644
 Alpha virt. eigenvalues --    0.00047   0.07408   0.10158   0.11677   0.12465
 Alpha virt. eigenvalues --    0.13276   0.13529   0.14645   0.15971   0.16623
 Alpha virt. eigenvalues --    0.17037   0.18211   0.19994   0.22166   0.22881

 Mulliken charges:
               1
     1  C   -0.439704
     2  C    0.337618
     3  O   -0.468655
     4  C   -0.339740
     5  C    0.425432
     6  C   -0.246676
     7  O   -0.284601
     8  C   -0.153051
     9  C   -0.122099
    10  H    0.102408
    11  H    0.126482
    12  H    0.122564
    13  H    0.272915
    14  H    0.117946
    15  H    0.121811
    16  H    0.114349
    17  H    0.110404
    18  H    0.108056
    19  H    0.094541
 Sum of Mulliken charges =   0.00000

 Dipole moment (field-independent basis, Debye):
    X=              1.5615    Y=              1.0973    Z=              0.6628  Tot=              2.0203
 Quadrupole moment (field-independent basis, Debye-Ang):
   XX=            -50.9389   YY=            -50.6543   ZZ=            -55.9079
   XY=              1.9017   XZ=             -4.4316   YZ=              1.2409

  Exact polarizability: 101.461   2.723  72.354  -4.541  -0.529  60.996
 Approx polarizability: 143.557   6.415 104.687   0.476  -1.848  96.782

                      1                      2                      3
                      A                      A                      A
 Frequencies --     39.2780               173.7644               248.9671
 Red. masses --      3.3952                 3.4113                 1.2129
 Frc consts  --      0.0031                 0.0607                 0.0443
 IR Inten    --      0.6458                 1.6358                 1.1087

                      4                      5                      6
                      A                      A                      A
 Frequencies --    264.7941               287.0803               323.5589
 Red. masses --      1.1206                 1.9516                 4.5325
 Frc consts  --      0.0463                 0.0948                 0.2796
 IR Inten    --     83.5611                15.2143                 0.6903

                      7                      8                      9
                      A                      A                      A
 Frequencies --    334.4568               359.1029               407.7103
 Red. masses --      2.5604                 3.3900                 1.8680
 Frc consts  --      0.1688                 0.2576                 0.1829
 IR Inten    --      2.2765                18.2450                 6.7774

                     10                     11                     12
                      A                      A                      A
 Frequencies --    444.8224               518.6272               588.1275
 Red. masses --      2.8999                 3.9563                 3.4383
 Frc consts  --      0.3381                 0.6270                 0.7007
 IR Inten    --      2.9991                 6.9010                 3.6337

                     13                     14                     15
                      A                      A                      A
 Frequencies --    654.1646               787.7048               807.5783
 Red. masses --      4.4527                 2.3274                 3.3847
 Frc consts  --      1.1227                 0.8509                 1.3006
 IR Inten    --      0.4926                19.4384                22.8503

                     16                     17                     18
                      A                      A                      A
 Frequencies --    822.9189               836.7499               908.4366
 Red. masses --      2.9001                 2.8306                 1.5736
 Frc consts  --      1.1571                 1.1677                 0.7651
 IR Inten    --     19.6277                12.0936                 5.0037

                     19                     20                     21
                      A                      A                      A
 Frequencies --    912.4690               942.0626               956.2555
 Red. masses --      2.1589                 2.0678                 1.7432
 Frc consts  --      1.0591                 1.0812                 0.9392
 IR Inten    --      9.3453                10.1821                26.1757

                     22                     23                     24
                      A                      A                      A
 Frequencies --    973.1116               986.7126              1090.0272
 Red. masses --      1.3525                 2.9100                 1.2767
 Frc consts  --      0.7546                 1.6693                 0.8938
 IR Inten    --      1.0005                 6.7222                 7.4351

                     25                     26                     27
                      A                      A                      A
 Frequencies --   1116.8227              1130.9030              1136.9696
 Red. masses --      1.7878                 1.4269                 1.4929
 Frc consts  --      1.3139                 1.0752                 1.1370
 IR Inten    --     55.0433                16.2376                31.0057

                     28                     29                     30
                      A                      A                      A
 Frequencies --   1154.5893              1175.6947              1238.0756
 Red. masses --      1.5006                 1.7993                 1.5559
 Frc consts  --      1.1786                 1.4654                 1.4051
 IR Inten    --     17.9352                 5.6566                20.4999

                     31                     32                     33
                      A                      A                      A
 Frequencies --   1259.2139              1297.4575              1342.2189
 Red. masses --      1.9799                 2.0543                 2.1465
 Frc consts  --      1.8497                 2.0376                 2.2784
 IR Inten    --      6.1300                14.0623                 7.3271

                     34                     35                     36
                      A                      A                      A
 Frequencies --   1368.3221              1403.0913              1428.9693
 Red. masses --      1.8098                 1.2929                 2.2908
 Frc consts  --      1.9964                 1.4996                 2.7560
 IR Inten    --     35.8338                 8.4767                22.8381

                     37                     38                     39
                      A                      A                      A
 Frequencies --   1471.6460              1490.0234              1492.4617
 Red. masses --      1.0947                 1.0610                 1.0632
 Frc consts  --      1.3969                 1.3879                 1.3953
 IR Inten    --      3.6348                 3.1535                 2.5118

                     40                     41                     42
                      A                      A                      A
 Frequencies --   1526.9349              1679.9038              3025.0919
 Red. masses --      1.3424                 7.0097                 1.0372
 Frc consts  --      1.8441                11.6551                 5.5922
 IR Inten    --      2.4912                 0.9413                21.9430

                     43                     44                     45
                      A                      A                      A
 Frequencies --   3069.8869              3072.3340              3092.9904
 Red. masses --      1.0619                 1.0500                 1.0976
 Frc consts  --      5.8964                 5.8395                 6.1866
 IR Inten    --      8.5296                31.8882                25.8790

                     46                     47                     48
                      A                      A                      A
 Frequencies --   3115.2321              3125.7041              3158.3860
 Red. masses --      1.1025                 1.1035                 1.1194
 Frc consts  --      6.3039                 6.3522                 6.5789
 IR Inten    --     15.9520                 9.6761                22.8499

                     49                     50                     51
                      A                      A                      A
 Frequencies --   3173.7953              3207.5884              3802.3686
 Red. masses --      1.0870                 1.1028                 1.0660
 Frc consts  --      6.4510                 6.6852                 9.0809
 IR Inten    --      7.6958                12.1129                14.3380

 - Thermochemistry -
 -------------------
 Temperature   298.150 Kelvin.  Pressure   1.00000 Atm.
 Atom     1 has atomic number  6 and mass  12.00000

 Molecular mass:   126.06808 amu.
 Principal axes and moments of inertia in atomic units:
                           1         2         3
     Eigenvalues --   529.767221577.846871622.48152
           X            0.99932   0.00306  -0.03670
           Y            0.00049   0.99537   0.09616
           Z            0.03682  -0.09611   0.99469
 This molecule is an asymmetric top.
 Rotational symmetry number  1.
 Warning -- assumption of classical behavior for rotation
           may cause significant error
 Rotational temperatures (Kelvin)      0.16349     0.05489     0.05338
 Rotational constants (GHZ):           3.40667     1.14380     1.11233
 Zero-point vibrational energy     414058.4 (Joules/Mol)
                                   98.96233 (Kcal/Mol)
 Warning -- explicit consideration of  12 degrees of freedom as
           vibrations may cause significant error
 Vibrational temperatures:     56.51   250.01   358.21   380.98   413.04
          (Kelvin)            465.53   481.21   516.67   586.60   640.00
                              746.19   846.18   941.20  1133.33  1161.92
                             1184.00  1203.90  1307.04  1312.84  1355.42
                             1375.84  1400.09  1419.66  1568.30  1606.86
                             1627.12  1635.84  1661.19  1691.56  1781.31
                             1811.73  1866.75  1931.15  1968.71  2018.73
                             2055.97  2117.37  2143.81  2147.32  2196.92
                             2417.00  4352.43  4416.88  4420.40  4450.12
                             4482.12  4497.19  4544.21  4566.38  4615.00
                             5470.75

 Zero-point correction=                           0.157707 (Hartree/Particle)
 Thermal correction to Energy=                    0.166388
 Thermal correction to Enthalpy=                  0.167332
 Thermal correction to Gibbs Free Energy=         0.124311
 Sum of electronic and zero-point Energies=           -423.017699
 Sum of electronic and thermal Energies=              -423.009018
 Sum of electronic and thermal Enthalpies=            -423.008074
 Sum of electronic and thermal Free Energies=         -423.051095

                     E (Thermal)             CV                S
                      KCal/Mol        Cal/Mol-Kelvin    Cal/Mol-Kelvin
 Total                  104.410             33.789             90.547
 Electronic               0.000              0.000              0.000
 Translational            0.889              2.981             40.409
 Rotational               0.889              2.981             28.696
 Vibrational            102.633             27.827             21.442
 Vibration     1          0.594              1.981              5.295
 Vibration     2          0.627              1.875              2.394
 Vibration     3          0.662              1.764              1.738
 Vibration     4          0.671              1.738              1.630
 Vibration     5          0.684              1.698              1.491
 Vibration     6          0.708              1.628              1.292
 Vibration     7          0.716              1.607              1.238
 Vibration     8          0.734              1.557              1.126
 Vibration     9          0.772              1.453              0.935
 Vibration    10          0.804              1.372              0.812
 Vibration    11          0.874              1.209              0.613
 Vibration    12          0.945              1.057              0.471

 Optimization completed on the basis of negligible forces.
    -- Stationary point found.
 Normal termination of Gaussian 09 at Mon Jan 27 17:00:55 2020.
