 Gaussian 09, Revision D.01,
 Gaussian 09:  ES64L-G09RevD.01 24-Apr-2013

 -----------------------------
 # b3lyp 6-31G(2df,p) opt Freq
 -----------------------------

 -----
 titel
 -----
 Symbolic Z-matrix:
 Charge =  0 Multiplicity = 1

 SCF Done:  E(RB3LYP) =  -423.233626090     A.U. after   14 cycles
 Optimization completed.
    -- Stationary point found.
 Normal termination of Gaussian 09 at Tue Jan 28 08:21:16 2020.

 ----------------------------------------------------------------------
 #N Geom=AllCheck Guess=TCheck SCRF=Check GenChk RB3LYP/6-31G(2df,p) Fr
 eq
 ----------------------------------------------------------------------

 Structure from the checkpoint file:  "/scratch/puck/g09_845e1024-67b7-40a4-bf56-889c3e508236/Gau-59913.chk"
 -----
 titel
 -----
 Charge =  0 Multiplicity = 1

                         Standard orientation:
 ---------------------------------------------------------------------
 Center     Atomic      Atomic             Coordinates (Angstroms)
 Number     Number       Type             X           Y           Z
 ---------------------------------------------------------------------
      1          6           0        3.210306    0.340185   -0.097027
      2          8           0        1.890577    0.553878    0.418744
      3          6           0        0.961181   -0.340684    0.019907
      4          8           0        1.205920   -1.271740   -0.704802
      5          6           0       -0.400300    0.024030    0.596311
      6          6           0       -1.470725   -1.075526    0.389221
      7          6           0       -2.760189   -0.339511   -0.061385
      8          6           0       -2.263278    1.027670   -0.459207
      9          6           0       -0.999008    1.235040   -0.101258
     10          1           0        3.211577    0.389440   -1.188981
     11          1           0        3.825772    1.136747    0.321443
     12          1           0        3.590207   -0.637814    0.208993
     13          1           0       -0.233691    0.259509    1.656095
     14          1           0       -1.118048   -1.746906   -0.396904
     15          1           0       -1.621837   -1.675444    1.289357
     16          1           0       -3.271784   -0.858625   -0.879871
     17          1           0       -3.493649   -0.259115    0.752882
     18          1           0       -2.895939    1.760725   -0.948120
     19          1           0       -0.432506    2.147153   -0.245807
 ---------------------------------------------------------------------

 SCF Done:  E(RB3LYP) =  -423.233626090     A.U. after    1 cycles

 The electronic state is 1-A.
 Alpha  occ. eigenvalues --  -19.18109 -19.12366 -10.29989 -10.23610 -10.19907
 Alpha  occ. eigenvalues --  -10.18389 -10.18357 -10.18215 -10.17841  -1.09895
 Alpha  occ. eigenvalues --   -1.01089  -0.84566  -0.75048  -0.70949  -0.69893
 Alpha  occ. eigenvalues --   -0.59709  -0.55029  -0.53799  -0.50822  -0.49417
 Alpha  occ. eigenvalues --   -0.47222  -0.46421  -0.44331  -0.40986  -0.40103
 Alpha  occ. eigenvalues --   -0.37497  -0.36062  -0.34749  -0.34440  -0.34160
 Alpha  occ. eigenvalues --   -0.34023  -0.30000  -0.27567  -0.24119
 Alpha virt. eigenvalues --    0.00698   0.03583   0.09748   0.11306   0.12017
 Alpha virt. eigenvalues --    0.13174   0.14619   0.15765   0.16151   0.16702
 Alpha virt. eigenvalues --    0.16880   0.18151   0.19024   0.20169   0.21939

 Mulliken charges:
               1
     1  C   -0.239661
     2  O   -0.236859
     3  C    0.438418
     4  O   -0.356539
     5  C   -0.143827
     6  C   -0.236103
     7  C   -0.256979
     8  C   -0.057906
     9  C   -0.073439
    10  H    0.140131
    11  H    0.131778
    12  H    0.140573
    13  H    0.101633
    14  H    0.135460
    15  H    0.099803
    16  H    0.108469
    17  H    0.106752
    18  H    0.095292
    19  H    0.103002
 Sum of Mulliken charges =   0.00000

 Dipole moment (field-independent basis, Debye):
    X=              0.0654    Y=              1.3011    Z=              0.8200  Tot=              1.5394
 Quadrupole moment (field-independent basis, Debye-Ang):
   XX=            -45.1102   YY=            -55.1159   ZZ=            -53.6118
   XY=              2.4247   XZ=              0.7696   YZ=             -2.9789

  Exact polarizability: 102.783   4.139  71.913   3.847  -0.868  59.553
 Approx polarizability: 132.756   6.401 109.697   7.905   5.968  95.664

                      1                      2                      3
                      A                      A                      A
 Frequencies --     35.7415                65.2035               113.9700
 Red. masses --      4.2305                 2.5164                 1.1918
 Frc consts  --      0.0032                 0.0063                 0.0091
 IR Inten    --      0.8550                 0.2366                 0.5282

                      4                      5                      6
                      A                      A                      A
 Frequencies --    131.3550               195.2156               248.7678
 Red. masses --      2.4579                 3.2588                 3.0002
 Frc consts  --      0.0250                 0.0732                 0.1094
 IR Inten    --      1.0280                 3.0099                 2.4106

                      7                      8                      9
                      A                      A                      A
 Frequencies --    326.0711               382.3561               426.7241
 Red. masses --      4.1986                 3.9186                 3.4804
 Frc consts  --      0.2630                 0.3375                 0.3734
 IR Inten    --     17.2120                 0.6515                 3.2149

                     10                     11                     12
                      A                      A                      A
 Frequencies --    585.2792               690.2871               732.9919
 Red. masses --      2.4249                 2.7194                 2.0060
 Frc consts  --      0.4894                 0.7634                 0.6350
 IR Inten    --      0.1751                21.5363                11.4288

                     13                     14                     15
                      A                      A                      A
 Frequencies --    783.6404               800.7605               840.6347
 Red. masses --      4.9639                 3.1710                 1.7292
 Frc consts  --      1.7960                 1.1980                 0.7199
 IR Inten    --     12.3657                 9.6710                 1.3235

                     16                     17                     18
                      A                      A                      A
 Frequencies --    886.5927               924.4458               937.1167
 Red. masses --      2.3633                 3.1047                 2.8739
 Frc consts  --      1.0945                 1.5633                 1.4870
 IR Inten    --      4.1088                 5.6066                 9.1637

                     19                     20                     21
                      A                      A                      A
 Frequencies --    976.8649              1008.0953              1030.5260
 Red. masses --      1.2661                 2.6837                 2.3956
 Frc consts  --      0.7118                 1.6069                 1.4990
 IR Inten    --      0.1124                 3.7547                 2.8510

                     22                     23                     24
                      A                      A                      A
 Frequencies --   1049.3302              1083.8937              1129.0824
 Red. masses --      2.5372                 2.1377                 1.1104
 Frc consts  --      1.6460                 1.4797                 0.8340
 IR Inten    --     16.9562                12.9279                 0.7377

                     25                     26                     27
                      A                      A                      A
 Frequencies --   1177.6481              1179.4627              1200.7382
 Red. masses --      1.4561                 1.2940                 1.9267
 Frc consts  --      1.1898                 1.0606                 1.6367
 IR Inten    --     21.9483                 1.4836               167.3930

                     28                     29                     30
                      A                      A                      A
 Frequencies --   1218.0488              1228.4026              1270.6522
 Red. masses --      1.9871                 1.3445                 1.3155
 Frc consts  --      1.7370                 1.1953                 1.2514
 IR Inten    --    193.2308                 0.0904                27.5411

                     31                     32                     33
                      A                      A                      A
 Frequencies --   1295.1393              1318.2213              1356.1504
 Red. masses --      1.3751                 1.5003                 1.7032
 Frc consts  --      1.3590                 1.5361                 1.8456
 IR Inten    --     29.2805                 1.3028                57.8979

                     34                     35                     36
                      A                      A                      A
 Frequencies --   1378.2525              1472.1637              1481.5374
 Red. masses --      1.6518                 1.1944                 1.0470
 Frc consts  --      1.8486                 1.5251                 1.3541
 IR Inten    --      3.1609                12.4040                 6.0632

                     37                     38                     39
                      A                      A                      A
 Frequencies --   1485.0813              1498.0343              1504.6872
 Red. masses --      1.0830                 1.0578                 1.0938
 Frc consts  --      1.4073                 1.3986                 1.4591
 IR Inten    --      0.6900                 7.5891                 3.0855

                     40                     41                     42
                      A                      A                      A
 Frequencies --   1686.9955              1819.5339              3012.1512
 Red. masses --      6.3874                11.4282                 1.0687
 Frc consts  --     10.7103                22.2919                 5.7130
 IR Inten    --      2.1011               181.7727                36.5744

                     43                     44                     45
                      A                      A                      A
 Frequencies --   3014.4926              3051.1674              3053.7100
 Red. masses --      1.0813                 1.0298                 1.0931
 Frc consts  --      5.7895                 5.6485                 6.0057
 IR Inten    --     23.3775                32.4021                22.3837

                     46                     47                     48
                      A                      A                      A
 Frequencies --   3075.6530              3121.7828              3125.4243
 Red. masses --      1.0609                 1.1047                 1.1055
 Frc consts  --      5.9128                 6.3428                 6.3626
 IR Inten    --     26.1993                13.2945                20.1402

                     49                     50                     51
                      A                      A                      A
 Frequencies --   3157.3008              3185.9078              3215.5795
 Red. masses --      1.1060                 1.0855                 1.1029
 Frc consts  --      6.4957                 6.4916                 6.7189
 IR Inten    --     16.1981                 6.3892                15.1515

 - Thermochemistry -
 -------------------
 Temperature   298.150 Kelvin.  Pressure   1.00000 Atm.
 Atom     1 has atomic number  6 and mass  12.00000

 Molecular mass:   126.06808 amu.
 Principal axes and moments of inertia in atomic units:
                           1         2         3
     Eigenvalues --   443.812761820.603822064.32872
           X            0.99990   0.01430  -0.00223
           Y           -0.01438   0.99900  -0.04228
           Z            0.00162   0.04231   0.99910
 This molecule is an asymmetric top.
 Rotational symmetry number  1.
 Warning -- assumption of classical behavior for rotation
           may cause significant error
 Rotational temperatures (Kelvin)      0.19516     0.04757     0.04196
 Rotational constants (GHZ):           4.06645     0.99129     0.87425
 Zero-point vibrational energy     418506.7 (Joules/Mol)
                                  100.02551 (Kcal/Mol)
 Warning -- explicit consideration of  10 degrees of freedom as
           vibrations may cause significant error
 Vibrational temperatures:     51.42    93.81   163.98   188.99   280.87
          (Kelvin)            357.92   469.14   550.12   613.96   842.09
                              993.17  1054.61  1127.48  1152.11  1209.48
                             1275.61  1330.07  1348.30  1405.49  1450.42
                             1482.70  1509.75  1559.48  1624.50  1694.37
                             1696.98  1727.59  1752.50  1767.40  1828.18
                             1863.41  1896.62  1951.20  1983.00  2118.11
                             2131.60  2136.70  2155.33  2164.91  2427.21
                             2617.90  4333.81  4337.18  4389.94  4393.60
                             4425.17  4491.54  4496.78  4542.65  4583.80
                             4626.50

 Zero-point correction=                           0.159401 (Hartree/Particle)
 Thermal correction to Energy=                    0.168462
 Thermal correction to Enthalpy=                  0.169406
 Thermal correction to Gibbs Free Energy=         0.124152
 Sum of electronic and zero-point Energies=           -423.074225
 Sum of electronic and thermal Energies=              -423.065164
 Sum of electronic and thermal Enthalpies=            -423.064220
 Sum of electronic and thermal Free Energies=         -423.109475

                     E (Thermal)             CV                S
                      KCal/Mol        Cal/Mol-Kelvin    Cal/Mol-Kelvin
 Total                  105.711             32.119             95.246
 Electronic               0.000              0.000              0.000
 Translational            0.889              2.981             40.409
 Rotational               0.889              2.981             28.902
 Vibrational            103.934             26.157             25.936
 Vibration     1          0.594              1.982              5.482
 Vibration     2          0.597              1.971              4.293
 Vibration     3          0.607              1.938              3.200
 Vibration     4          0.612              1.922              2.926
 Vibration     5          0.636              1.847              2.178
 Vibration     6          0.662              1.765              1.739
 Vibration     7          0.710              1.623              1.279
 Vibration     8          0.752              1.508              1.030
 Vibration     9          0.788              1.412              0.869
 Vibration    10          0.942              1.063              0.476

 Normal termination of Gaussian 09 at Tue Jan 28 10:06:09 2020.
