 Gaussian 09, Revision D.01,
 Gaussian 09:  ES64L-G09RevD.01 24-Apr-2013

 -----------------------------
 # b3lyp 6-31G(2df,p) opt Freq
 -----------------------------

 -----
 titel
 -----
 Symbolic Z-matrix:
 Charge =  0 Multiplicity = 1

 SCF Done:  E(RB3LYP) =  -423.219126627     A.U. after   14 cycles
 Optimization completed.
    -- Stationary point found.
 Normal termination of Gaussian 09 at Tue Jan 28 03:58:02 2020.

 ----------------------------------------------------------------------
 #N Geom=AllCheck Guess=TCheck SCRF=Check GenChk RB3LYP/6-31G(2df,p) Fr
 eq
 ----------------------------------------------------------------------

 Structure from the checkpoint file:  "/scratch/puck/g09_aec18c13-b08c-4c58-956d-6eace3d1420b/Gau-92352.chk"
 -----
 titel
 -----
 Charge =  0 Multiplicity = 1

                         Standard orientation:
 ---------------------------------------------------------------------
 Center     Atomic      Atomic             Coordinates (Angstroms)
 Number     Number       Type             X           Y           Z
 ---------------------------------------------------------------------
      1          6           0       -0.589854    2.151713    0.125588
      2          6           0       -0.346815    0.678390    0.138269
      3          6           0        0.806691   -0.012717    0.039429
      4          6           0        0.591183   -1.507602    0.157910
      5          6           0       -0.933987   -1.655346   -0.025658
      6          6           0       -1.520117   -0.274003    0.341036
      7          8           0       -2.696757    0.086462   -0.365029
      8          6           0        2.148756    0.547883   -0.122547
      9          8           0        3.156754   -0.126978   -0.166359
     10          1           0       -1.402217    2.389529   -0.568764
     11          1           0       -0.931588    2.484870    1.114529
     12          1           0        0.291809    2.734881   -0.143997
     13          1           0        1.179370   -2.069095   -0.572773
     14          1           0        0.915367   -1.859518    1.145377
     15          1           0       -1.162300   -1.849744   -1.081403
     16          1           0       -1.372985   -2.469191    0.555083
     17          1           0       -1.823049   -0.240972    1.397617
     18          1           0       -2.516048   -0.020130   -1.306079
     19          1           0        2.206518    1.653585   -0.212661
 ---------------------------------------------------------------------

 SCF Done:  E(RB3LYP) =  -423.219126627     A.U. after    1 cycles

 The electronic state is 1-A.
 Alpha  occ. eigenvalues --  -19.14839 -19.12944 -10.26231 -10.24424 -10.21221
 Alpha  occ. eigenvalues --  -10.19635 -10.19417 -10.19128 -10.18980  -1.03407
 Alpha  occ. eigenvalues --   -1.03065  -0.85765  -0.76584  -0.72515  -0.67840
 Alpha  occ. eigenvalues --   -0.62420  -0.59669  -0.51801  -0.49568  -0.48882
 Alpha  occ. eigenvalues --   -0.47698  -0.43444  -0.42858  -0.42184  -0.41780
 Alpha  occ. eigenvalues --   -0.38722  -0.38275  -0.37532  -0.35797  -0.35200
 Alpha  occ. eigenvalues --   -0.33127  -0.28118  -0.25684  -0.24624
 Alpha virt. eigenvalues --   -0.05644   0.06422   0.07240   0.09297   0.10254
 Alpha virt. eigenvalues --    0.11427   0.13332   0.15252   0.16578   0.17421
 Alpha virt. eigenvalues --    0.18069   0.18160   0.20649   0.21998   0.23384

 Mulliken charges:
               1
     1  C   -0.495900
     2  C    0.172049
     3  C    0.130592
     4  C   -0.310161
     5  C   -0.257396
     6  C    0.078492
     7  O   -0.427756
     8  C    0.068809
     9  O   -0.273780
    10  H    0.141981
    11  H    0.141887
    12  H    0.132949
    13  H    0.124139
    14  H    0.120101
    15  H    0.096960
    16  H    0.110383
    17  H    0.103888
    18  H    0.278071
    19  H    0.064694
 Sum of Mulliken charges =   0.00000

 Dipole moment (field-independent basis, Debye):
    X=             -2.1732    Y=              0.6880    Z=             -0.3540  Tot=              2.3069
 Quadrupole moment (field-independent basis, Debye-Ang):
   XX=            -70.0834   YY=            -49.7934   ZZ=            -49.3744
   XY=              2.6749   XZ=              2.2090   YZ=             -0.0417

  Exact polarizability: 102.999  -7.459  84.449  -2.233  -0.223  57.210
 Approx polarizability: 166.512 -25.481 118.096  -5.623   0.611  90.917

                      1                      2                      3
                      A                      A                      A
 Frequencies --     76.2967               113.9378               135.1520
 Red. masses --      5.0013                 1.4608                 1.5025
 Frc consts  --      0.0172                 0.0112                 0.0162
 IR Inten    --      5.6527                 0.5309                 0.5908

                      4                      5                      6
                      A                      A                      A
 Frequencies --    181.7722               194.9849               259.1646
 Red. masses --      2.0801                 5.5335                 2.9189
 Frc consts  --      0.0405                 0.1240                 0.1155
 IR Inten    --      2.2429                 8.2355                 0.8396

                      7                      8                      9
                      A                      A                      A
 Frequencies --    299.4626               337.6428               391.3320
 Red. masses --      2.5431                 1.1857                 3.8669
 Frc consts  --      0.1344                 0.0796                 0.3489
 IR Inten    --     10.5616                75.7085                16.3704

                     10                     11                     12
                      A                      A                      A
 Frequencies --    428.4315               494.5088               565.0864
 Red. masses --      2.7831                 3.6767                 3.1552
 Frc consts  --      0.3010                 0.5297                 0.5936
 IR Inten    --      6.5518                 3.9793                 7.3692

                     13                     14                     15
                      A                      A                      A
 Frequencies --    629.6470               654.1811               756.2363
 Red. masses --      4.0513                 2.6731                 3.5362
 Frc consts  --      0.9463                 0.6740                 1.1915
 IR Inten    --      2.9631                 5.1155                22.2357

                     16                     17                     18
                      A                      A                      A
 Frequencies --    848.4645               878.7545               960.5384
 Red. masses --      1.6919                 2.1754                 1.7432
 Frc consts  --      0.7176                 0.9898                 0.9476
 IR Inten    --     12.5752                 3.0589                 3.0873

                     19                     20                     21
                      A                      A                      A
 Frequencies --    982.3369              1015.6907              1039.7952
 Red. masses --      1.8855                 2.5137                 2.1511
 Frc consts  --      1.0720                 1.5279                 1.3703
 IR Inten    --      1.3529                 6.3712                 3.1046

                     22                     23                     24
                      A                      A                      A
 Frequencies --   1057.2861              1073.0330              1106.2034
 Red. masses --      1.6249                 2.3082                 2.7202
 Frc consts  --      1.0702                 1.5658                 1.9612
 IR Inten    --      1.0548                66.0155                34.8945

                     25                     26                     27
                      A                      A                      A
 Frequencies --   1145.5428              1195.3248              1222.8748
 Red. masses --      1.2796                 3.0737                 1.4645
 Frc consts  --      0.9893                 2.5875                 1.2904
 IR Inten    --      1.3410                61.5440                 1.7652

                     28                     29                     30
                      A                      A                      A
 Frequencies --   1256.2755              1276.9567              1308.3631
 Red. masses --      1.3087                 1.5448                 1.6639
 Frc consts  --      1.2169                 1.4842                 1.6782
 IR Inten    --      4.3217                25.7432                 0.7494

                     31                     32                     33
                      A                      A                      A
 Frequencies --   1326.7588              1364.0848              1406.8849
 Red. masses --      1.4187                 2.6043                 1.3816
 Frc consts  --      1.4713                 2.8551                 1.6113
 IR Inten    --      2.6170                18.3394                10.1743

                     34                     35                     36
                      A                      A                      A
 Frequencies --   1418.6895              1428.6667              1470.0621
 Red. masses --      1.2181                 1.2357                 1.0466
 Frc consts  --      1.4445                 1.4860                 1.3326
 IR Inten    --     69.7388                 3.4801                 7.1268

                     37                     38                     39
                      A                      A                      A
 Frequencies --   1479.0098              1483.2892              1498.3058
 Red. masses --      1.0841                 1.0759                 1.0952
 Frc consts  --      1.3972                 1.3946                 1.4486
 IR Inten    --     12.3104                 5.7876                 3.6318

                     40                     41                     42
                      A                      A                      A
 Frequencies --   1694.3872              1771.2445              2898.0439
 Red. masses --      7.4063                10.2649                 1.0817
 Frc consts  --     12.5279                18.9742                 5.3529
 IR Inten    --     41.9469               252.3663               104.2162

                     43                     44                     45
                      A                      A                      A
 Frequencies --   3006.5286              3027.7809              3029.6770
 Red. masses --      1.0821                 1.0452                 1.0719
 Frc consts  --      5.7632                 5.6454                 5.7968
 IR Inten    --     16.1496                13.1700                22.6243

                     46                     47                     48
                      A                      A                      A
 Frequencies --   3034.4775              3083.6801              3090.5610
 Red. masses --      1.0663                 1.0900                 1.0923
 Frc consts  --      5.7850                 6.1070                 6.1468
 IR Inten    --     31.4551                 8.9694                14.9360

                     49                     50                     51
                      A                      A                      A
 Frequencies --   3109.8752              3137.9459              3791.6831
 Red. masses --      1.0967                 1.0997                 1.0659
 Frc consts  --      6.2492                 6.3799                 9.0289
 IR Inten    --     30.4369                12.7305                13.3580

 - Thermochemistry -
 -------------------
 Temperature   298.150 Kelvin.  Pressure   1.00000 Atm.
 Atom     1 has atomic number  6 and mass  12.00000

 Molecular mass:   126.06808 amu.
 Principal axes and moments of inertia in atomic units:
                           1         2         3
     Eigenvalues --   639.942611511.372352055.85483
           X            0.99999   0.00259   0.00211
           Y           -0.00259   1.00000   0.00028
           Z           -0.00211  -0.00028   1.00000
 This molecule is an asymmetric top.
 Rotational symmetry number  1.
 Warning -- assumption of classical behavior for rotation
           may cause significant error
 Rotational temperatures (Kelvin)      0.13535     0.05731     0.04213
 Rotational constants (GHZ):           2.82016     1.19411     0.87785
 Zero-point vibrational energy     415325.0 (Joules/Mol)
                                   99.26505 (Kcal/Mol)
 Warning -- explicit consideration of  12 degrees of freedom as
           vibrations may cause significant error
 Vibrational temperatures:    109.77   163.93   194.45   261.53   280.54
          (Kelvin)            372.88   430.86   485.79   563.04   616.42
                              711.49   813.03   905.92   941.22  1088.05
                             1220.75  1264.33  1382.00  1413.36  1461.35
                             1496.03  1521.20  1543.85  1591.58  1648.18
                             1719.80  1759.44  1807.50  1837.25  1882.44
                             1908.91  1962.61  2024.19  2041.18  2055.53
                             2115.09  2127.96  2134.12  2155.73  2437.84
                             2548.42  4169.63  4325.72  4356.30  4359.02
                             4365.93  4436.72  4446.62  4474.41  4514.80
                             5455.38

 Zero-point correction=                           0.158189 (Hartree/Particle)
 Thermal correction to Energy=                    0.167494
 Thermal correction to Enthalpy=                  0.168439
 Thermal correction to Gibbs Free Energy=         0.123928
 Sum of electronic and zero-point Energies=           -423.060938
 Sum of electronic and thermal Energies=              -423.051632
 Sum of electronic and thermal Enthalpies=            -423.050688
 Sum of electronic and thermal Free Energies=         -423.095198

                     E (Thermal)             CV                S
                      KCal/Mol        Cal/Mol-Kelvin    Cal/Mol-Kelvin
 Total                  105.104             33.969             93.680
 Electronic               0.000              0.000              0.000
 Translational            0.889              2.981             40.409
 Rotational               0.889              2.981             29.077
 Vibrational            103.327             28.007             24.195
 Vibration     1          0.599              1.965              3.984
 Vibration     2          0.607              1.938              3.201
 Vibration     3          0.613              1.918              2.871
 Vibration     4          0.630              1.865              2.310
 Vibration     5          0.636              1.847              2.180
 Vibration     6          0.668              1.747              1.667
 Vibration     7          0.692              1.675              1.420
 Vibration     8          0.718              1.600              1.223
 Vibration     9          0.759              1.489              0.995
 Vibration    10          0.790              1.408              0.864
 Vibration    11          0.850              1.262              0.672
 Vibration    12          0.921              1.107              0.514

 Optimization completed.
    -- Stationary point found.
 Normal termination of Gaussian 09 at Tue Jan 28 04:46:30 2020.
