 Gaussian 09, Revision D.01,
 Gaussian 09:  ES64L-G09RevD.01 24-Apr-2013

 -----------------------------
 # b3lyp 6-31G(2df,p) opt Freq
 -----------------------------

 -----
 titel
 -----
 Symbolic Z-matrix:
 Charge =  0 Multiplicity = 1

 SCF Done:  E(RB3LYP) =  -423.171323545     A.U. after   12 cycles
 Optimization completed.
    -- Stationary point found.
 Normal termination of Gaussian 09 at Mon Jan 27 18:48:59 2020.

 ----------------------------------------------------------------------
 #N Geom=AllCheck Guess=TCheck SCRF=Check GenChk RB3LYP/6-31G(2df,p) Fr
 eq
 ----------------------------------------------------------------------

 Structure from the checkpoint file:  "/scratch/puck/g09_0da2be87-70af-48ad-af84-13e0c18f8065/Gau-183272.chk"
 -----
 titel
 -----
 Charge =  0 Multiplicity = 1

                         Standard orientation:
 ---------------------------------------------------------------------
 Center     Atomic      Atomic             Coordinates (Angstroms)
 Number     Number       Type             X           Y           Z
 ---------------------------------------------------------------------
      1          6           0        2.313751   -0.000030    0.538642
      2          6           0        0.868162    0.000003    0.053992
      3          6           0        0.486633   -1.270287   -0.738488
      4          8           0       -0.930440   -1.404171   -0.642050
      5          6           0       -1.347266   -0.759814    0.531400
      6          6           0       -1.347262    0.759823    0.531391
      7          8           0       -0.930425    1.404151   -0.642075
      8          6           0        0.486659    1.270322   -0.738444
      9          6           0       -0.211720    0.000002    1.165603
     10          1           0        2.526436    0.885989    1.144883
     11          1           0        2.526368   -0.886018    1.144951
     12          1           0        3.013840   -0.000089   -0.304264
     13          1           0        0.750497   -1.214093   -1.799371
     14          1           0        0.980043   -2.152713   -0.301195
     15          1           0       -2.090294   -1.306498    1.103149
     16          1           0       -2.090282    1.306524    1.103134
     17          1           0        0.750579    1.214203   -1.799317
     18          1           0        0.980020    2.152734   -0.301067
     19          1           0        0.045979    0.000008    2.217512
 ---------------------------------------------------------------------

 SCF Done:  E(RB3LYP) =  -423.171323545     A.U. after    1 cycles

 The electronic state is 1-A.
 Alpha  occ. eigenvalues --  -19.13942 -19.13942 -10.23084 -10.23061 -10.22739
 Alpha  occ. eigenvalues --  -10.22739 -10.20641 -10.19085 -10.18797  -1.05807
 Alpha  occ. eigenvalues --   -1.02339  -0.84049  -0.80381  -0.69249  -0.68568
 Alpha  occ. eigenvalues --   -0.59875  -0.57995  -0.57185  -0.52772  -0.47200
 Alpha  occ. eigenvalues --   -0.46812  -0.44075  -0.43654  -0.41973  -0.41335
 Alpha  occ. eigenvalues --   -0.40740  -0.40086  -0.35118  -0.34317  -0.32461
 Alpha  occ. eigenvalues --   -0.31598  -0.28328  -0.25488  -0.22204
 Alpha virt. eigenvalues --    0.08176   0.08763   0.10339   0.11841   0.12323
 Alpha virt. eigenvalues --    0.13590   0.15137   0.15657   0.15894   0.17477
 Alpha virt. eigenvalues --    0.17865   0.19007   0.19977   0.21157   0.21600

 Mulliken charges:
               1
     1  C   -0.484360
     2  C    0.236870
     3  C   -0.097381
     4  O   -0.255064
     5  C    0.059997
     6  C    0.059989
     7  O   -0.255064
     8  C   -0.097385
     9  C   -0.211951
    10  H    0.123881
    11  H    0.123882
    12  H    0.122097
    13  H    0.107790
    14  H    0.087331
    15  H    0.097331
    16  H    0.097330
    17  H    0.107790
    18  H    0.087330
    19  H    0.089587
 Sum of Mulliken charges =   0.00000

 Dipole moment (field-independent basis, Debye):
    X=              2.0078    Y=              0.0001    Z=              1.6799  Tot=              2.6178
 Quadrupole moment (field-independent basis, Debye-Ang):
   XX=            -52.1862   YY=            -55.8954   ZZ=            -51.7520
   XY=              0.0000   XZ=             -4.5785   YZ=              0.0000

  Exact polarizability:  79.293   0.000  71.118  -4.858   0.000  68.411
 Approx polarizability: 110.912   0.000 104.948  -3.371   0.000 104.569

                      1                      2                      3
                      A                      A                      A
 Frequencies --    134.6600               211.0488               243.5647
 Red. masses --      2.6899                 1.0628                 6.9101
 Frc consts  --      0.0287                 0.0279                 0.2415
 IR Inten    --      3.2845                 0.1543                 2.4707

                      4                      5                      6
                      A                      A                      A
 Frequencies --    270.5441               325.8736               399.4253
 Red. masses --      2.5013                 2.3779                 1.9209
 Frc consts  --      0.1079                 0.1488                 0.1806
 IR Inten    --      0.3738                 0.1104                 0.6708

                      7                      8                      9
                      A                      A                      A
 Frequencies --    560.9779               579.2336               580.0768
 Red. masses --      3.9811                 4.2486                 3.4673
 Frc consts  --      0.7382                 0.8399                 0.6874
 IR Inten    --      0.0476                 2.8730                 8.9101

                     10                     11                     12
                      A                      A                      A
 Frequencies --    730.0451               733.7377               772.9770
 Red. masses --      8.8476                 5.7265                 2.2501
 Frc consts  --      2.7783                 1.8164                 0.7921
 IR Inten    --     10.4195                 0.9629                34.1147

                     13                     14                     15
                      A                      A                      A
 Frequencies --    794.8240               828.3348               887.3462
 Red. masses --      1.5097                 4.0191                 2.5755
 Frc consts  --      0.5619                 1.6248                 1.1948
 IR Inten    --      3.6236                 1.6864                 4.3945

                     16                     17                     18
                      A                      A                      A
 Frequencies --    940.5254               971.6115               976.3429
 Red. masses --      1.7646                 1.8893                 2.0571
 Frc consts  --      0.9197                 1.0508                 1.1553
 IR Inten    --      2.9027                 0.1600                 4.1258

                     19                     20                     21
                      A                      A                      A
 Frequencies --    987.3214              1002.5276              1043.2729
 Red. masses --      2.1961                 1.9821                 1.6109
 Frc consts  --      1.2613                 1.1737                 1.0330
 IR Inten    --      5.8919                22.8485                14.6818

                     22                     23                     24
                      A                      A                      A
 Frequencies --   1075.9375              1088.9029              1102.9177
 Red. masses --      1.4838                 2.3656                 2.0862
 Frc consts  --      1.0121                 1.6526                 1.4952
 IR Inten    --      1.2449                45.0065                11.5318

                     25                     26                     27
                      A                      A                      A
 Frequencies --   1115.7252              1174.1852              1177.9997
 Red. masses --      5.2847                 2.5258                 2.8138
 Frc consts  --      3.8760                 2.0517                 2.3006
 IR Inten    --     26.6107                87.4489                 4.1583

                     28                     29                     30
                      A                      A                      A
 Frequencies --   1197.2361              1203.9613              1262.3761
 Red. masses --      1.5029                 1.7645                 1.4340
 Frc consts  --      1.2692                 1.5070                 1.3464
 IR Inten    --      0.4172                17.5612                 6.8186

                     31                     32                     33
                      A                      A                      A
 Frequencies --   1267.0335              1272.6945              1314.1345
 Red. masses --      1.8180                 1.6538                 1.2662
 Frc consts  --      1.7196                 1.5782                 1.2883
 IR Inten    --      0.0464                 2.2771                 5.0666

                     34                     35                     36
                      A                      A                      A
 Frequencies --   1376.1666              1381.4747              1409.1150
 Red. masses --      1.3656                 2.1898                 1.3996
 Frc consts  --      1.5238                 2.4623                 1.6374
 IR Inten    --      5.4991                 9.1697                 0.1967

                     37                     38                     39
                      A                      A                      A
 Frequencies --   1424.3133              1495.2654              1496.6906
 Red. masses --      1.4267                 1.0494                 1.0639
 Frc consts  --      1.7052                 1.3824                 1.4041
 IR Inten    --      6.2870                 4.0683                 1.9045

                     40                     41                     42
                      A                      A                      A
 Frequencies --   1505.7243              1521.0437              2975.8476
 Red. masses --      1.0790                 1.1002                 1.0690
 Frc consts  --      1.4413                 1.4997                 5.5776
 IR Inten    --      3.2467                 0.1465                86.5294

                     43                     44                     45
                      A                      A                      A
 Frequencies --   2979.2808              3032.4454              3073.5671
 Red. masses --      1.0703                 1.0359                 1.0940
 Frc consts  --      5.5972                 5.6127                 6.0892
 IR Inten    --     50.5290                28.3875                 0.1220

                     46                     47                     48
                      A                      A                      A
 Frequencies --   3080.7146              3096.6114              3107.4093
 Red. masses --      1.0937                 1.1004                 1.1019
 Frc consts  --      6.1157                 6.2170                 6.2686
 IR Inten    --     53.6717                24.6738                22.3137

                     49                     50                     51
                      A                      A                      A
 Frequencies --   3157.7221              3164.6632              3183.7463
 Red. masses --      1.0890                 1.0910                 1.0960
 Frc consts  --      6.3978                 6.4379                 6.5451
 IR Inten    --      8.1742                36.9752                14.9097

 - Thermochemistry -
 -------------------
 Temperature   298.150 Kelvin.  Pressure   1.00000 Atm.
 Atom     1 has atomic number  6 and mass  12.00000

 Molecular mass:   126.06808 amu.
 Principal axes and moments of inertia in atomic units:
                           1         2         3
     Eigenvalues --   723.54524 906.787961133.09302
           X            0.99971   0.00000  -0.02422
           Y            0.00000   1.00000   0.00000
           Z            0.02422   0.00000   0.99971
 This molecule is an asymmetric top.
 Rotational symmetry number  1.
 Warning -- assumption of classical behavior for rotation
           may cause significant error
 Rotational temperatures (Kelvin)      0.11971     0.09552     0.07644
 Rotational constants (GHZ):           2.49430     1.99026     1.59276
 Zero-point vibrational energy     422815.2 (Joules/Mol)
                                  101.05525 (Kcal/Mol)
 Warning -- explicit consideration of   9 degrees of freedom as
           vibrations may cause significant error
 Vibrational temperatures:    193.75   303.65   350.43   389.25   468.86
          (Kelvin)            574.68   807.12   833.39   834.60  1050.37
                             1055.68  1112.14  1143.57  1191.79  1276.69
                             1353.20  1397.93  1404.74  1420.53  1442.41
                             1501.04  1548.03  1566.69  1586.85  1605.28
                             1689.39  1694.88  1722.55  1732.23  1816.28
                             1822.98  1831.12  1890.74  1979.99  1987.63
                             2027.40  2049.27  2151.35  2153.40  2166.40
                             2188.44  4281.58  4286.52  4363.01  4422.17
                             4432.46  4455.33  4470.86  4543.25  4553.24
                             4580.70

 Zero-point correction=                           0.161042 (Hartree/Particle)
 Thermal correction to Energy=                    0.168266
 Thermal correction to Enthalpy=                  0.169210
 Thermal correction to Gibbs Free Energy=         0.129723
 Sum of electronic and zero-point Energies=           -423.010282
 Sum of electronic and thermal Energies=              -423.003058
 Sum of electronic and thermal Enthalpies=            -423.002114
 Sum of electronic and thermal Free Energies=         -423.041600

                     E (Thermal)             CV                S
                      KCal/Mol        Cal/Mol-Kelvin    Cal/Mol-Kelvin
 Total                  105.588             29.288             83.107
 Electronic               0.000              0.000              0.000
 Translational            0.889              2.981             40.409
 Rotational               0.889              2.981             28.099
 Vibrational            103.811             23.326             14.599
 Vibration     1          0.613              1.919              2.878
 Vibration     2          0.643              1.824              2.035
 Vibration     3          0.659              1.773              1.777
 Vibration     4          0.674              1.727              1.593
 Vibration     5          0.710              1.624              1.280
 Vibration     6          0.765              1.471              0.965
 Vibration     7          0.917              1.116              0.522
 Vibration     8          0.936              1.076              0.487
 Vibration     9          0.937              1.074              0.485

 Optimization completed.
    -- Stationary point found.
 Normal termination of Gaussian 09 at Mon Jan 27 19:33:19 2020.
