 Gaussian 09, Revision D.01,
 Gaussian 09:  ES64L-G09RevD.01 24-Apr-2013

 -----------------------------
 # b3lyp 6-31G(2df,p) opt Freq
 -----------------------------

 -----
 titel
 -----
 Symbolic Z-matrix:
 Charge =  0 Multiplicity = 1

 SCF Done:  E(RB3LYP) =  -423.164748443     A.U. after   14 cycles
 Optimization completed.
    -- Stationary point found.
 Normal termination of Gaussian 09 at Tue Jan 28 14:10:01 2020.

 ----------------------------------------------------------------------
 #N Geom=AllCheck Guess=TCheck SCRF=Check GenChk RB3LYP/6-31G(2df,p) Fr
 eq
 ----------------------------------------------------------------------

 Structure from the checkpoint file:  "/scratch/puck/g09_07e116b4-3ad3-4258-b926-3b8808ed2761/Gau-147411.chk"
 -----
 titel
 -----
 Charge =  0 Multiplicity = 1

                         Standard orientation:
 ---------------------------------------------------------------------
 Center     Atomic      Atomic             Coordinates (Angstroms)
 Number     Number       Type             X           Y           Z
 ---------------------------------------------------------------------
      1          6           0        3.717807   -0.239711   -0.142403
      2          6           0        2.309945   -0.549390    0.332679
      3          8           0        1.465317    0.537475   -0.036002
      4          6           0        0.155941    0.392448    0.381828
      5          6           0       -0.842010    1.169351   -0.374593
      6          6           0       -2.220340    1.021362    0.287692
      7          6           0       -2.128032   -0.503210   -0.012843
      8          8           0       -2.922333   -1.397705    0.064596
      9          6           0       -0.762705   -0.372006   -0.601356
     10          1           0        4.395540   -1.054742    0.127680
     11          1           0        3.738946   -0.116546   -1.228852
     12          1           0        4.084306    0.683536    0.314925
     13          1           0        1.937413   -1.481262   -0.118084
     14          1           0        2.286146   -0.682103    1.425609
     15          1           0        0.037108    0.233423    1.456769
     16          1           0       -0.550655    1.937232   -1.077973
     17          1           0       -2.309109    1.329359    1.334098
     18          1           0       -3.035031    1.467765   -0.289182
     19          1           0       -0.312168   -0.947885   -1.399776
 ---------------------------------------------------------------------

 SCF Done:  E(RB3LYP) =  -423.164748443     A.U. after    1 cycles

 The electronic state is 1-A.
 Alpha  occ. eigenvalues --  -19.15957 -19.12672 -10.26785 -10.25822 -10.23966
 Alpha  occ. eigenvalues --  -10.21278 -10.20238 -10.19788 -10.18437  -1.05790
 Alpha  occ. eigenvalues --   -1.03727  -0.90297  -0.77000  -0.71391  -0.65474
 Alpha  occ. eigenvalues --   -0.61595  -0.59558  -0.54161  -0.51548  -0.49462
 Alpha  occ. eigenvalues --   -0.46603  -0.45556  -0.44404  -0.42120  -0.40690
 Alpha  occ. eigenvalues --   -0.39252  -0.38272  -0.37409  -0.36179  -0.34861
 Alpha  occ. eigenvalues --   -0.31134  -0.29038  -0.26481  -0.23763
 Alpha virt. eigenvalues --   -0.00931   0.08298   0.09860   0.10125   0.11298
 Alpha virt. eigenvalues --    0.12441   0.13622   0.14226   0.15297   0.16635
 Alpha virt. eigenvalues --    0.16966   0.17896   0.18958   0.19686   0.21484

 Mulliken charges:
               1
     1  C   -0.386822
     2  C   -0.045687
     3  O   -0.256291
     4  C    0.125866
     5  C   -0.105626
     6  C   -0.371910
     7  C    0.409801
     8  O   -0.316013
     9  C   -0.211947
    10  H    0.120604
    11  H    0.129608
    12  H    0.130295
    13  H    0.099555
    14  H    0.096232
    15  H    0.095686
    16  H    0.116000
    17  H    0.120906
    18  H    0.137304
    19  H    0.112438
 Sum of Mulliken charges =   0.00000

 Dipole moment (field-independent basis, Debye):
    X=              2.4721    Y=              1.4072    Z=              0.1281  Tot=              2.8474
 Quadrupole moment (field-independent basis, Debye-Ang):
   XX=            -58.3590   YY=            -55.7569   ZZ=            -50.9895
   XY=             -9.8209   XZ=              1.2530   YZ=              0.1658

  Exact polarizability: 100.589  -0.270  72.896  -1.600   1.067  62.852
 Approx polarizability: 125.841   8.960 117.762  -2.107   1.325  96.601

                      1                      2                      3
                      A                      A                      A
 Frequencies --     58.4748                91.4668               111.3722
 Red. masses --      2.2996                 3.1951                 3.0197
 Frc consts  --      0.0046                 0.0157                 0.0221
 IR Inten    --      0.2374                 5.1844                 0.7214

                      4                      5                      6
                      A                      A                      A
 Frequencies --    159.7932               241.2599               291.4099
 Red. masses --      3.6978                 1.2138                 2.7599
 Frc consts  --      0.0556                 0.0416                 0.1381
 IR Inten    --      2.6246                 0.1647                 1.8477

                      7                      8                      9
                      A                      A                      A
 Frequencies --    307.8038               396.7248               468.5760
 Red. masses --      3.5979                 3.9801                 3.7627
 Frc consts  --      0.2008                 0.3691                 0.4868
 IR Inten    --      3.9759                 0.6632                 0.6958

                     10                     11                     12
                      A                      A                      A
 Frequencies --    508.6707               558.6261               642.2565
 Red. masses --      2.3189                 4.1327                 3.4304
 Frc consts  --      0.3535                 0.7598                 0.8337
 IR Inten    --      7.6425                 3.8088                20.2567

                     13                     14                     15
                      A                      A                      A
 Frequencies --    789.7312               813.6839               821.1352
 Red. masses --      2.3534                 3.4502                 1.1211
 Frc consts  --      0.8648                 1.3459                 0.4454
 IR Inten    --     10.8677                32.2958                 2.4594

                     16                     17                     18
                      A                      A                      A
 Frequencies --    868.4952               873.9542               921.0018
 Red. masses --      1.8962                 2.5467                 1.9543
 Frc consts  --      0.8427                 1.1461                 0.9767
 IR Inten    --     19.4429                16.0785                 3.3044

                     19                     20                     21
                      A                      A                      A
 Frequencies --    980.8136               989.0572              1000.6208
 Red. masses --      1.6724                 1.8749                 1.6308
 Frc consts  --      0.9479                 1.0806                 0.9620
 IR Inten    --     23.8520                28.5143                24.6025

                     22                     23                     24
                      A                      A                      A
 Frequencies --   1045.3661              1074.9526              1111.3475
 Red. masses --      2.9535                 1.5668                 1.6762
 Frc consts  --      1.9016                 1.0667                 1.2198
 IR Inten    --     14.5029                 2.9164                18.7847

                     25                     26                     27
                      A                      A                      A
 Frequencies --   1125.1470              1137.8933              1167.5143
 Red. masses --      1.7616                 2.2803                 2.2722
 Frc consts  --      1.3140                 1.7396                 1.8248
 IR Inten    --     54.4376                12.7223                30.5659

                     28                     29                     30
                      A                      A                      A
 Frequencies --   1186.5275              1199.9518              1217.8129
 Red. masses --      1.6519                 1.9904                 2.2093
 Frc consts  --      1.3702                 1.6886                 1.9304
 IR Inten    --     29.6896                38.3940               112.6995

                     31                     32                     33
                      A                      A                      A
 Frequencies --   1254.7623              1296.1343              1307.1835
 Red. masses --      2.1387                 1.1154                 1.4030
 Frc consts  --      1.9839                 1.1041                 1.4125
 IR Inten    --      8.7074                 1.3252                 1.5468

                     34                     35                     36
                      A                      A                      A
 Frequencies --   1386.2257              1408.6416              1449.7601
 Red. masses --      1.4566                 1.3553                 1.3157
 Frc consts  --      1.6492                 1.5845                 1.6293
 IR Inten    --     79.8243                35.3484                 5.3985

                     37                     38                     39
                      A                      A                      A
 Frequencies --   1460.7635              1483.7402              1499.3087
 Red. masses --      1.4311                 1.0401                 1.0467
 Frc consts  --      1.7992                 1.3491                 1.3863
 IR Inten    --     11.5253                 4.6030                 2.0322

                     40                     41                     42
                      A                      A                      A
 Frequencies --   1527.2633              1878.6508              2981.0212
 Red. masses --      1.0941                12.4005                 1.0566
 Frc consts  --      1.5037                25.7859                 5.5322
 IR Inten    --      1.9109               374.4149                38.9407

                     43                     44                     45
                      A                      A                      A
 Frequencies --   3014.6055              3047.0160              3055.0488
 Red. masses --      1.1047                 1.0347                 1.0594
 Frc consts  --      5.9152                 5.6600                 5.8256
 IR Inten    --     37.2304                16.9608                19.1691

                     46                     47                     48
                      A                      A                      A
 Frequencies --   3063.6262              3113.4063              3122.4834
 Red. masses --      1.0876                 1.1051                 1.1015
 Frc consts  --      6.0141                 6.3113                 6.3278
 IR Inten    --     28.3242                 9.0535                21.6845

                     49                     50                     51
                      A                      A                      A
 Frequencies --   3123.9680              3203.0665              3218.5210
 Red. masses --      1.1029                 1.0920                 1.0951
 Frc consts  --      6.3414                 6.6008                 6.6836
 IR Inten    --     23.8659                 4.2249                 2.3519

 - Thermochemistry -
 -------------------
 Temperature   298.150 Kelvin.  Pressure   1.00000 Atm.
 Atom     1 has atomic number  6 and mass  12.00000

 Molecular mass:   126.06808 amu.
 Principal axes and moments of inertia in atomic units:
                           1         2         3
     Eigenvalues --   390.978832233.657182472.61772
           X            0.99959  -0.02858  -0.00149
           Y            0.02858   0.99958   0.00562
           Z            0.00133  -0.00566   0.99998
 This molecule is an asymmetric top.
 Rotational symmetry number  1.
 Rotational temperatures (Kelvin)      0.22153     0.03878     0.03503
 Rotational constants (GHZ):           4.61596     0.80798     0.72989
 Zero-point vibrational energy     413050.4 (Joules/Mol)
                                   98.72142 (Kcal/Mol)
 Warning -- explicit consideration of  11 degrees of freedom as
           vibrations may cause significant error
 Vibrational temperatures:     84.13   131.60   160.24   229.91   347.12
          (Kelvin)            419.27   442.86   570.80   674.18   731.86
                              803.74   924.06  1136.25  1170.71  1181.43
                             1249.57  1257.42  1325.11  1411.17  1423.03
                             1439.67  1504.05  1546.62  1598.98  1618.83
                             1637.17  1679.79  1707.15  1726.46  1752.16
                             1805.32  1864.85  1880.74  1994.47  2026.72
                             2085.88  2101.71  2134.77  2157.17  2197.39
                             2702.96  4289.02  4337.34  4383.97  4395.53
                             4407.87  4479.49  4492.55  4494.69  4608.49
                             4630.73

 Zero-point correction=                           0.157323 (Hartree/Particle)
 Thermal correction to Energy=                    0.166292
 Thermal correction to Enthalpy=                  0.167236
 Thermal correction to Gibbs Free Energy=         0.122854
 Sum of electronic and zero-point Energies=           -423.007426
 Sum of electronic and thermal Energies=              -422.998457
 Sum of electronic and thermal Enthalpies=            -422.997513
 Sum of electronic and thermal Free Energies=         -423.041894

                     E (Thermal)             CV                S
                      KCal/Mol        Cal/Mol-Kelvin    Cal/Mol-Kelvin
 Total                  104.350             32.919             93.409
 Electronic               0.000              0.000              0.000
 Translational            0.889              2.981             40.409
 Rotational               0.889              2.981             29.159
 Vibrational            102.572             26.957             23.842
 Vibration     1          0.596              1.974              4.508
 Vibration     2          0.602              1.955              3.628
 Vibration     3          0.607              1.940              3.245
 Vibration     4          0.622              1.892              2.552
 Vibration     5          0.658              1.777              1.794
 Vibration     6          0.687              1.690              1.466
 Vibration     7          0.698              1.659              1.374
 Vibration     8          0.763              1.477              0.975
 Vibration     9          0.826              1.320              0.742
 Vibration    10          0.864              1.231              0.637
 Vibration    11          0.914              1.121              0.527

 Normal termination of Gaussian 09 at Tue Jan 28 14:46:17 2020.
