 Gaussian 09, Revision D.01,
 Gaussian 09:  ES64L-G09RevD.01 24-Apr-2013

 -----------------------------
 # b3lyp 6-31G(2df,p) opt Freq
 -----------------------------

 -----
 titel
 -----
 Symbolic Z-matrix:
 Charge =  0 Multiplicity = 1

 SCF Done:  E(RB3LYP) =  -423.158940062     A.U. after   12 cycles
 Optimization completed.
    -- Stationary point found.
 Normal termination of Gaussian 09 at Mon Jan 27 18:19:46 2020.

 ----------------------------------------------------------------------
 #N Geom=AllCheck Guess=TCheck SCRF=Check GenChk RB3LYP/6-31G(2df,p) Fr
 eq
 ----------------------------------------------------------------------

 Structure from the checkpoint file:  "/scratch/puck/g09_80b397ed-5f92-4a26-9168-c3723fdbdaee/Gau-149820.chk"
 -----
 titel
 -----
 Charge =  0 Multiplicity = 1

                         Standard orientation:
 ---------------------------------------------------------------------
 Center     Atomic      Atomic             Coordinates (Angstroms)
 Number     Number       Type             X           Y           Z
 ---------------------------------------------------------------------
      1          6           0       -1.389183    1.792730    0.087750
      2          6           0       -0.320697    0.741333    0.005146
      3          8           0        0.838009    1.175087   -0.695739
      4          6           0        1.959212    0.481106   -0.140933
      5          6           0        1.343478   -0.737694    0.545687
      6          6           0        0.506627   -1.555021   -0.496003
      7          6           0       -0.704715   -0.717641   -0.104439
      8          8           0       -2.025471   -1.067923   -0.299611
      9          6           0        0.028995   -0.171005    1.144901
     10          1           0       -1.025075    2.666788    0.635896
     11          1           0       -1.679767    2.115993   -0.916621
     12          1           0       -2.277519    1.399039    0.585335
     13          1           0        2.643514    0.220943   -0.955671
     14          1           0        2.493139    1.123119    0.576556
     15          1           0        2.017442   -1.300239    1.190244
     16          1           0        0.833652   -1.528970   -1.541310
     17          1           0        0.387262   -2.595842   -0.177297
     18          1           0       -2.182031   -1.916557    0.130699
     19          1           0       -0.253226   -0.044432    2.182325
 ---------------------------------------------------------------------

 SCF Done:  E(RB3LYP) =  -423.158940062     A.U. after    1 cycles

 The electronic state is 1-A.
 Alpha  occ. eigenvalues --  -19.15167 -19.13071 -10.23663 -10.23234 -10.22226
 Alpha  occ. eigenvalues --  -10.19693 -10.18521 -10.18201 -10.17207  -1.04408
 Alpha  occ. eigenvalues --   -1.02746  -0.87358  -0.77423  -0.69213  -0.68034
 Alpha  occ. eigenvalues --   -0.62003  -0.56239  -0.54406  -0.51585  -0.47614
 Alpha  occ. eigenvalues --   -0.47225  -0.44716  -0.41638  -0.40198  -0.39170
 Alpha  occ. eigenvalues --   -0.38566  -0.37947  -0.37044  -0.33258  -0.32224
 Alpha  occ. eigenvalues --   -0.31188  -0.29242  -0.24010  -0.22290
 Alpha virt. eigenvalues --    0.07245   0.09866   0.10806   0.12291   0.13472
 Alpha virt. eigenvalues --    0.14305   0.15169   0.15963   0.16413   0.16581
 Alpha virt. eigenvalues --    0.18347   0.19046   0.19590   0.20974   0.22875

 Mulliken charges:
               1
     1  C   -0.475489
     2  C    0.419939
     3  O   -0.307911
     4  C   -0.082746
     5  C   -0.077727
     6  C   -0.298846
     7  C    0.320011
     8  O   -0.460036
     9  C   -0.252150
    10  H    0.118822
    11  H    0.132032
    12  H    0.130495
    13  H    0.104184
    14  H    0.089245
    15  H    0.075462
    16  H    0.102338
    17  H    0.090497
    18  H    0.283543
    19  H    0.088337
 Sum of Mulliken charges =   0.00000

 Dipole moment (field-independent basis, Debye):
    X=              0.4508    Y=             -1.8752    Z=              1.7840  Tot=              2.6272
 Quadrupole moment (field-independent basis, Debye-Ang):
   XX=            -51.9192   YY=            -50.3900   ZZ=            -53.5284
   XY=              0.2336   XZ=             -1.2697   YZ=              0.1886

  Exact polarizability:  81.425  -0.501  77.764   0.071   1.309  65.118
 Approx polarizability: 112.776   2.660 109.406   2.286  -0.484 104.523

                      1                      2                      3
                      A                      A                      A
 Frequencies --    183.3133               203.2145               211.6442
 Red. masses --      1.1903                 1.9992                 3.1747
 Frc consts  --      0.0236                 0.0486                 0.0838
 IR Inten    --      0.7648                 1.8676                 3.9137

                      4                      5                      6
                      A                      A                      A
 Frequencies --    278.4639               301.5983               354.5451
 Red. masses --      3.3976                 1.4428                 2.1607
 Frc consts  --      0.1552                 0.0773                 0.1600
 IR Inten    --      1.4096                49.6698                21.2947

                      7                      8                      9
                      A                      A                      A
 Frequencies --    369.2740               433.6285               488.7042
 Red. masses --      2.0827                 2.7835                 3.4656
 Frc consts  --      0.1673                 0.3084                 0.4877
 IR Inten    --     17.6989                14.0940                 2.0243

                     10                     11                     12
                      A                      A                      A
 Frequencies --    602.3621               630.8440               710.1078
 Red. masses --      3.7162                 3.5206                 3.7944
 Frc consts  --      0.7944                 0.8255                 1.1273
 IR Inten    --      4.4207                 1.2326                 5.8884

                     13                     14                     15
                      A                      A                      A
 Frequencies --    726.9276               787.6444               850.7343
 Red. masses --      3.4852                 4.5390                 2.4475
 Frc consts  --      1.0851                 1.6591                 1.0437
 IR Inten    --      6.3192                 1.4340                 2.6860

                     16                     17                     18
                      A                      A                      A
 Frequencies --    865.8659               906.9242               918.6907
 Red. masses --      2.2583                 1.8401                 1.6629
 Frc consts  --      0.9976                 0.8917                 0.8269
 IR Inten    --     19.0244                 3.5284                 8.7655

                     19                     20                     21
                      A                      A                      A
 Frequencies --    959.2072               972.6665               993.0328
 Red. masses --      2.5299                 1.7734                 1.7414
 Frc consts  --      1.3715                 0.9885                 1.0118
 IR Inten    --      2.4147                 5.0058                22.8911

                     22                     23                     24
                      A                      A                      A
 Frequencies --   1052.8886              1066.6328              1089.5837
 Red. masses --      2.2983                 2.3241                 2.0218
 Frc consts  --      1.5012                 1.5579                 1.4142
 IR Inten    --     32.9773                40.6120                26.3254

                     25                     26                     27
                      A                      A                      A
 Frequencies --   1118.3174              1128.8480              1165.9576
 Red. masses --      2.0225                 1.5722                 1.7212
 Frc consts  --      1.4903                 1.1804                 1.3786
 IR Inten    --      1.1884                39.1079                10.0778

                     28                     29                     30
                      A                      A                      A
 Frequencies --   1184.1459              1209.3646              1233.1741
 Red. masses --      1.6827                 1.4708                 1.6858
 Frc consts  --      1.3901                 1.2674                 1.5104
 IR Inten    --     34.4753                13.2066                34.1159

                     31                     32                     33
                      A                      A                      A
 Frequencies --   1263.4937              1278.7880              1302.3810
 Red. masses --      1.8094                 1.8495                 1.6925
 Frc consts  --      1.7019                 1.7820                 1.6914
 IR Inten    --      2.1600                65.8095                58.2546

                     34                     35                     36
                      A                      A                      A
 Frequencies --   1349.0740              1377.7336              1417.9132
 Red. masses --      2.7143                 1.3851                 1.3808
 Frc consts  --      2.9106                 1.5490                 1.6356
 IR Inten    --     36.3239                 1.8352                 3.3896

                     37                     38                     39
                      A                      A                      A
 Frequencies --   1448.5787              1480.2155              1492.1853
 Red. masses --      2.5061                 1.0520                 1.1142
 Frc consts  --      3.0984                 1.3581                 1.4617
 IR Inten    --      5.0551                 3.9052                 0.7800

                     40                     41                     42
                      A                      A                      A
 Frequencies --   1509.9369              1518.5891              2984.8655
 Red. masses --      1.2794                 1.0974                 1.0685
 Frc consts  --      1.7186                 1.4911                 5.6089
 IR Inten    --      5.7571                 0.6887                81.0783

                     43                     44                     45
                      A                      A                      A
 Frequencies --   3033.2902              3045.4348              3067.1209
 Red. masses --      1.0566                 1.0362                 1.0954
 Frc consts  --      5.7280                 5.6625                 6.0713
 IR Inten    --     49.4634                23.5821                33.8064

                     46                     47                     48
                      A                      A                      A
 Frequencies --   3085.3177              3108.0598              3123.8536
 Red. masses --      1.1080                 1.1017                 1.0895
 Frc consts  --      6.2142                 6.2701                 6.2643
 IR Inten    --     31.2882                17.0412                32.1264

                     49                     50                     51
                      A                      A                      A
 Frequencies --   3138.6747              3194.0637              3781.0112
 Red. masses --      1.0998                 1.0948                 1.0659
 Frc consts  --      6.3837                 6.5806                 8.9780
 IR Inten    --     11.1155                 8.8805                14.7891

 - Thermochemistry -
 -------------------
 Temperature   298.150 Kelvin.  Pressure   1.00000 Atm.
 Atom     1 has atomic number  6 and mass  12.00000

 Molecular mass:   126.06808 amu.
 Principal axes and moments of inertia in atomic units:
                           1         2         3
     Eigenvalues --   722.71752 908.861011321.93305
           X            0.99151  -0.12976  -0.00848
           Y            0.12989   0.99138   0.01694
           Z            0.00621  -0.01790   0.99982
 This molecule is an asymmetric top.
 Rotational symmetry number  1.
 Warning -- assumption of classical behavior for rotation
           may cause significant error
 Rotational temperatures (Kelvin)      0.11984     0.09530     0.06552
 Rotational constants (GHZ):           2.49716     1.98572     1.36523
 Zero-point vibrational energy     418686.3 (Joules/Mol)
                                  100.06843 (Kcal/Mol)
 Warning -- explicit consideration of  10 degrees of freedom as
           vibrations may cause significant error
 Vibrational temperatures:    263.75   292.38   304.51   400.65   433.93
          (Kelvin)            510.11   531.30   623.89   703.14   866.66
                              907.64  1021.69  1045.89  1133.24  1224.02
                             1245.79  1304.86  1321.79  1380.08  1399.45
                             1428.75  1514.87  1534.64  1567.67  1609.01
                             1624.16  1677.55  1703.72  1740.00  1774.26
                             1817.88  1839.89  1873.83  1941.01  1982.25
                             2040.06  2084.18  2129.70  2146.92  2172.46
                             2184.91  4294.55  4364.22  4381.70  4412.90
                             4439.08  4471.80  4494.52  4515.85  4595.54
                             5440.03

 Zero-point correction=                           0.159469 (Hartree/Particle)
 Thermal correction to Energy=                    0.167291
 Thermal correction to Enthalpy=                  0.168236
 Thermal correction to Gibbs Free Energy=         0.127828
 Sum of electronic and zero-point Energies=           -422.999471
 Sum of electronic and thermal Energies=              -422.991649
 Sum of electronic and thermal Enthalpies=            -422.990704
 Sum of electronic and thermal Free Energies=         -423.031112

                     E (Thermal)             CV                S
                      KCal/Mol        Cal/Mol-Kelvin    Cal/Mol-Kelvin
 Total                  104.977             31.667             85.044
 Electronic               0.000              0.000              0.000
 Translational            0.889              2.981             40.409
 Rotational               0.889              2.981             28.253
 Vibrational            103.199             25.706             16.382
 Vibration     1          0.631              1.863              2.294
 Vibration     2          0.639              1.835              2.104
 Vibration     3          0.643              1.823              2.029
 Vibration     4          0.679              1.713              1.543
 Vibration     5          0.694              1.671              1.408
 Vibration     6          0.730              1.566              1.146
 Vibration     7          0.742              1.535              1.083
 Vibration     8          0.794              1.397              0.847
 Vibration     9          0.845              1.275              0.687
 Vibration    10          0.961              1.027              0.446

 Normal termination of Gaussian 09 at Mon Jan 27 19:12:02 2020.
