 Gaussian 09, Revision D.01,
 Gaussian 09:  ES64L-G09RevD.01 24-Apr-2013

 -----------------------------
 # b3lyp 6-31G(2df,p) opt Freq
 -----------------------------

 -----
 titel
 -----
 Symbolic Z-matrix:
 Charge =  0 Multiplicity = 1

 SCF Done:  E(RB3LYP) =  -423.207932565     A.U. after   14 cycles
 Optimization completed.
    -- Stationary point found.
 Normal termination of Gaussian 09 at Tue Jan 28 03:58:28 2020.

 ----------------------------------------------------------------------
 #N Geom=AllCheck Guess=TCheck SCRF=Check GenChk RB3LYP/6-31G(2df,p) Fr
 eq
 ----------------------------------------------------------------------

 Structure from the checkpoint file:  "/scratch/puck/g09_ff09edfa-0c1c-4e02-99a0-01e7ec05194e/Gau-32164.chk"
 -----
 titel
 -----
 Charge =  0 Multiplicity = 1

                         Standard orientation:
 ---------------------------------------------------------------------
 Center     Atomic      Atomic             Coordinates (Angstroms)
 Number     Number       Type             X           Y           Z
 ---------------------------------------------------------------------
      1          6           0       -2.844839   -0.276725    0.288314
      2          6           0       -1.469776   -0.257126   -0.381762
      3          8           0       -0.614651   -1.059820    0.421753
      4          6           0        0.636375   -1.354341   -0.150457
      5          6           0        1.689883   -0.255430    0.040186
      6          8           0        2.818022   -0.406691   -0.356965
      7          6           0        1.201708    1.004821    0.748104
      8          6           0        0.141881    1.698554   -0.085321
      9          6           0       -0.968045    1.151067   -0.580317
     10          1           0       -2.783480    0.165681    1.286442
     11          1           0       -3.567831    0.294237   -0.300863
     12          1           0       -3.201521   -1.305571    0.381440
     13          1           0       -1.563830   -0.730567   -1.377688
     14          1           0        1.016064   -2.256028    0.343041
     15          1           0        0.558163   -1.581293   -1.225020
     16          1           0        0.798157    0.719224    1.726396
     17          1           0        2.063039    1.656399    0.902730
     18          1           0        0.351054    2.735807   -0.331875
     19          1           0       -1.619916    1.769273   -1.195394
 ---------------------------------------------------------------------

 SCF Done:  E(RB3LYP) =  -423.207932565     A.U. after    1 cycles

 The electronic state is 1-A.
 Alpha  occ. eigenvalues --  -19.15212 -19.13077 -10.26978 -10.24750 -10.23842
 Alpha  occ. eigenvalues --  -10.19756 -10.19444 -10.19012 -10.18346  -1.05178
 Alpha  occ. eigenvalues --   -1.03862  -0.81255  -0.78792  -0.70953  -0.69839
 Alpha  occ. eigenvalues --   -0.62945  -0.55788  -0.54611  -0.49632  -0.48928
 Alpha  occ. eigenvalues --   -0.46921  -0.45345  -0.44293  -0.42310  -0.40637
 Alpha  occ. eigenvalues --   -0.39628  -0.38861  -0.37284  -0.35989  -0.34417
 Alpha  occ. eigenvalues --   -0.32425  -0.28638  -0.26538  -0.23162
 Alpha virt. eigenvalues --   -0.01513   0.01065   0.07756   0.10834   0.12135
 Alpha virt. eigenvalues --    0.13083   0.14023   0.14965   0.15736   0.17229
 Alpha virt. eigenvalues --    0.17711   0.18043   0.20240   0.21262   0.22957

 Mulliken charges:
               1
     1  C   -0.394880
     2  C    0.073049
     3  O   -0.246590
     4  C   -0.183451
     5  C    0.359827
     6  O   -0.297491
     7  C   -0.344117
     8  C   -0.106474
     9  C   -0.033087
    10  H    0.130447
    11  H    0.118241
    12  H    0.126384
    13  H    0.077858
    14  H    0.139355
    15  H    0.123226
    16  H    0.138921
    17  H    0.121385
    18  H    0.104356
    19  H    0.093040
 Sum of Mulliken charges =   0.00000

 Dipole moment (field-independent basis, Debye):
    X=             -2.4883    Y=              0.6844    Z=             -0.0672  Tot=              2.5816
 Quadrupole moment (field-independent basis, Debye-Ang):
   XX=            -60.3930   YY=            -50.7513   ZZ=            -52.5592
   XY=              0.7749   XZ=              4.1564   YZ=              0.4713

  Exact polarizability:  96.850   2.081  76.745   5.263   1.474  60.881
 Approx polarizability: 137.880   4.117 108.270   8.071   2.913  97.829

                      1                      2                      3
                      A                      A                      A
 Frequencies --     55.3960               103.4591               219.9901
 Red. masses --      3.7570                 3.4197                 1.0700
 Frc consts  --      0.0068                 0.0216                 0.0305
 IR Inten    --      3.0433                 1.1402                 0.5966

                      4                      5                      6
                      A                      A                      A
 Frequencies --    249.4281               284.9736               312.8265
 Red. masses --      2.4682                 2.5066                 3.6158
 Frc consts  --      0.0905                 0.1199                 0.2085
 IR Inten    --      3.1187                 2.9426                 5.2316

                      7                      8                      9
                      A                      A                      A
 Frequencies --    360.2703               369.0848               466.0363
 Red. masses --      3.3480                 4.4243                 2.8905
 Frc consts  --      0.2560                 0.3551                 0.3699
 IR Inten    --      0.8078                 2.2119                13.5287

                     10                     11                     12
                      A                      A                      A
 Frequencies --    504.8131               580.3867               598.1360
 Red. masses --      3.2035                 3.0269                 3.4948
 Frc consts  --      0.4810                 0.6007                 0.7367
 IR Inten    --      2.5019                 1.1991                 0.7102

                     13                     14                     15
                      A                      A                      A
 Frequencies --    703.3389               740.0315               804.2554
 Red. masses --      1.7468                 3.3286                 1.9327
 Frc consts  --      0.5091                 1.0740                 0.7366
 IR Inten    --     17.4320                12.6645                 9.9990

                     16                     17                     18
                      A                      A                      A
 Frequencies --    818.6830               897.5649               931.2823
 Red. masses --      3.1282                 2.4078                 2.0529
 Frc consts  --      1.2353                 1.1429                 1.0490
 IR Inten    --      6.7922                 4.2833                 1.3029

                     19                     20                     21
                      A                      A                      A
 Frequencies --    971.3218              1000.9485              1028.8324
 Red. masses --      2.0306                 1.2193                 2.4255
 Frc consts  --      1.1287                 0.7197                 1.5127
 IR Inten    --      5.1777                 1.0977                 3.4078

                     22                     23                     24
                      A                      A                      A
 Frequencies --   1034.0715              1108.7974              1120.6634
 Red. masses --      2.1012                 2.2358                 2.3775
 Frc consts  --      1.3238                 1.6195                 1.7592
 IR Inten    --      9.3214                 6.2386                23.5539

                     25                     26                     27
                      A                      A                      A
 Frequencies --   1153.3061              1189.1561              1236.5989
 Red. masses --      2.5553                 2.1046                 1.3844
 Frc consts  --      2.0026                 1.7535                 1.2473
 IR Inten    --     33.1452                74.7738                28.7396

                     28                     29                     30
                      A                      A                      A
 Frequencies --   1249.0121              1288.9121              1307.3933
 Red. masses --      1.4213                 1.3246                 1.4276
 Frc consts  --      1.3064                 1.2965                 1.4377
 IR Inten    --     24.7899                41.4341                 2.4434

                     31                     32                     33
                      A                      A                      A
 Frequencies --   1334.8222              1353.5463              1387.4289
 Red. masses --      1.3744                 1.2663                 1.3065
 Frc consts  --      1.4428                 1.3669                 1.4818
 IR Inten    --     12.9383                10.2704                 8.0159

                     34                     35                     36
                      A                      A                      A
 Frequencies --   1402.2062              1416.3443              1451.2882
 Red. masses --      1.3047                 1.4020                 1.0871
 Frc consts  --      1.5114                 1.6571                 1.3490
 IR Inten    --      2.7361                 7.3552                 7.8435

                     37                     38                     39
                      A                      A                      A
 Frequencies --   1462.0113              1483.9206              1498.1957
 Red. masses --      1.0979                 1.0505                 1.0571
 Frc consts  --      1.3827                 1.3629                 1.3980
 IR Inten    --      7.9668                 3.1021                 2.7529

                     40                     41                     42
                      A                      A                      A
 Frequencies --   1721.5976              1826.8457              2918.3825
 Red. masses --      7.2543                11.7494                 1.0804
 Frc consts  --     12.6681                23.1030                 5.4215
 IR Inten    --      6.6546               199.3377                49.3562

                     43                     44                     45
                      A                      A                      A
 Frequencies --   2994.2946              3044.5364              3047.3131
 Red. masses --      1.0660                 1.0635                 1.0341
 Frc consts  --      5.6312                 5.8082                 5.6581
 IR Inten    --     26.9088                 6.7812                16.6501

                     46                     47                     48
                      A                      A                      A
 Frequencies --   3073.3198              3122.2821              3124.2669
 Red. masses --      1.0949                 1.0973                 1.1016
 Frc consts  --      6.0929                 6.3028                 6.3352
 IR Inten    --     12.2999                 9.2271                12.2843

                     49                     50                     51
                      A                      A                      A
 Frequencies --   3128.6086              3139.2789              3169.3803
 Red. masses --      1.1031                 1.0856                 1.0941
 Frc consts  --      6.3614                 6.3034                 6.4750
 IR Inten    --     19.4841                11.5998                20.7242

 - Thermochemistry -
 -------------------
 Temperature   298.150 Kelvin.  Pressure   1.00000 Atm.
 Atom     1 has atomic number  6 and mass  12.00000

 Molecular mass:   126.06808 amu.
 Principal axes and moments of inertia in atomic units:
                           1         2         3
     Eigenvalues --   575.924271412.849791777.80074
           X            0.99990   0.01093   0.00935
           Y           -0.01107   0.99983   0.01491
           Z           -0.00918  -0.01501   0.99985
 This molecule is an asymmetric top.
 Rotational symmetry number  1.
 Warning -- assumption of classical behavior for rotation
           may cause significant error
 Rotational temperatures (Kelvin)      0.15039     0.06130     0.04872
 Rotational constants (GHZ):           3.13364     1.27738     1.01515
 Zero-point vibrational energy     417430.0 (Joules/Mol)
                                   99.76816 (Kcal/Mol)
 Warning -- explicit consideration of  12 degrees of freedom as
           vibrations may cause significant error
 Vibrational temperatures:     79.70   148.85   316.52   358.87   410.01
          (Kelvin)            450.09   518.35   531.03   670.52   726.31
                              835.05   860.58  1011.95  1064.74  1157.14
                             1177.90  1291.39  1339.91  1397.51  1440.14
                             1480.26  1487.80  1595.31  1612.38  1659.35
                             1710.93  1779.19  1797.05  1854.45  1881.05
                             1920.51  1947.45  1996.20  2017.46  2037.80
                             2088.08  2103.51  2135.03  2155.57  2476.99
                             2628.42  4198.90  4308.12  4380.40  4384.40
                             4421.82  4492.26  4495.12  4501.36  4516.72
                             4560.03

 Zero-point correction=                           0.158991 (Hartree/Particle)
 Thermal correction to Energy=                    0.167536
 Thermal correction to Enthalpy=                  0.168480
 Thermal correction to Gibbs Free Energy=         0.125559
 Sum of electronic and zero-point Energies=           -423.048942
 Sum of electronic and thermal Energies=              -423.040396
 Sum of electronic and thermal Enthalpies=            -423.039452
 Sum of electronic and thermal Free Energies=         -423.082374

                     E (Thermal)             CV                S
                      KCal/Mol        Cal/Mol-Kelvin    Cal/Mol-Kelvin
 Total                  105.130             32.449             90.336
 Electronic               0.000              0.000              0.000
 Translational            0.889              2.981             40.409
 Rotational               0.889              2.981             28.760
 Vibrational            103.353             26.487             21.167
 Vibration     1          0.596              1.975              4.615
 Vibration     2          0.605              1.946              3.388
 Vibration     3          0.647              1.811              1.959
 Vibration     4          0.662              1.764              1.735
 Vibration     5          0.683              1.702              1.504
 Vibration     6          0.701              1.649              1.347
 Vibration     7          0.735              1.554              1.121
 Vibration     8          0.741              1.536              1.084
 Vibration     9          0.823              1.325              0.749
 Vibration    10          0.860              1.239              0.646
 Vibration    11          0.937              1.074              0.485
 Vibration    12          0.956              1.036              0.453

 Normal termination of Gaussian 09 at Tue Jan 28 04:43:50 2020.
