 Gaussian 09, Revision D.01,
 Gaussian 09:  ES64L-G09RevD.01 24-Apr-2013

 -----------------------------
 # b3lyp 6-31G(2df,p) opt Freq
 -----------------------------

 -----
 titel
 -----
 Symbolic Z-matrix:
 Charge =  0 Multiplicity = 1

 SCF Done:  E(RB3LYP) =  -423.153418412     A.U. after   14 cycles
 Optimization completed.
    -- Stationary point found.
 Normal termination of Gaussian 09 at Mon Jan 27 23:09:30 2020.

 ----------------------------------------------------------------------
 #N Geom=AllCheck Guess=TCheck SCRF=Check GenChk RB3LYP/6-31G(2df,p) Fr
 eq
 ----------------------------------------------------------------------

 Structure from the checkpoint file:  "/scratch/puck/g09_73091965-76b4-4dc6-ab9b-c6208f391c8f/Gau-162185.chk"
 -----
 titel
 -----
 Charge =  0 Multiplicity = 1

                         Standard orientation:
 ---------------------------------------------------------------------
 Center     Atomic      Atomic             Coordinates (Angstroms)
 Number     Number       Type             X           Y           Z
 ---------------------------------------------------------------------
      1          6           0        2.132539    1.783505   -0.197916
      2          6           0        1.393989    0.596009    0.405115
      3          6           0        1.873245   -0.784290   -0.076693
      4          8           0        0.993668   -1.767352    0.480919
      5          6           0        0.577789   -1.080240   -0.705490
      6          6           0       -0.002937    0.278769   -0.263794
      7          6           0       -1.237653    0.258143    0.643965
      8          6           0       -2.486262   -0.152660   -0.100327
      9          8           0       -3.492970    0.504213   -0.177675
     10          1           0        2.213592    1.691072   -1.286879
     11          1           0        1.611579    2.721295    0.020212
     12          1           0        3.147546    1.862174    0.206120
     13          1           0        1.354842    0.672541    1.496382
     14          1           0        2.876350   -1.104728   -0.336531
     15          1           0        0.329406   -1.688921   -1.567490
     16          1           0       -0.161228    0.938188   -1.123651
     17          1           0       -1.055576   -0.474114    1.441741
     18          1           0       -1.410582    1.237620    1.099637
     19          1           0       -2.415767   -1.145433   -0.604648
 ---------------------------------------------------------------------

 SCF Done:  E(RB3LYP) =  -423.153418412     A.U. after    1 cycles

 The electronic state is 1-A.
 Alpha  occ. eigenvalues --  -19.16022 -19.13771 -10.27000 -10.24515 -10.24383
 Alpha  occ. eigenvalues --  -10.20982 -10.20495 -10.19346 -10.18984  -1.08626
 Alpha  occ. eigenvalues --   -1.04420  -0.83434  -0.76600  -0.70916  -0.64911
 Alpha  occ. eigenvalues --   -0.62553  -0.57362  -0.55323  -0.52500  -0.48407
 Alpha  occ. eigenvalues --   -0.46889  -0.45189  -0.43313  -0.42345  -0.40972
 Alpha  occ. eigenvalues --   -0.40082  -0.38646  -0.37002  -0.35294  -0.34445
 Alpha  occ. eigenvalues --   -0.32949  -0.29928  -0.26401  -0.24690
 Alpha virt. eigenvalues --   -0.02110   0.07550   0.08675   0.10321   0.11357
 Alpha virt. eigenvalues --    0.12589   0.12971   0.14270   0.15074   0.15169
 Alpha virt. eigenvalues --    0.16104   0.16669   0.17880   0.18032   0.20565

 Mulliken charges:
               1
     1  C   -0.415586
     2  C   -0.031231
     3  C    0.029199
     4  O   -0.247551
     5  C    0.011542
     6  C   -0.046575
     7  C   -0.296138
     8  C    0.155204
     9  O   -0.239527
    10  H    0.118705
    11  H    0.126582
    12  H    0.121790
    13  H    0.085022
    14  H    0.106407
    15  H    0.106859
    16  H    0.087990
    17  H    0.135435
    18  H    0.118384
    19  H    0.073490
 Sum of Mulliken charges =   0.00000

 Dipole moment (field-independent basis, Debye):
    X=              3.0555    Y=              0.4038    Z=             -0.7855  Tot=              3.1806
 Quadrupole moment (field-independent basis, Debye-Ang):
   XX=            -62.8539   YY=            -55.4981   ZZ=            -51.8364
   XY=              4.9308   XZ=             -1.8421   YZ=              2.7630

  Exact polarizability:  91.717  -0.162  74.456   2.659   3.819  62.283
 Approx polarizability: 124.796  -5.698 110.590   6.558   1.190  99.062

                      1                      2                      3
                      A                      A                      A
 Frequencies --     56.8986                65.6855               149.0091
 Red. masses --      4.8841                 3.7991                 2.6765
 Frc consts  --      0.0093                 0.0097                 0.0350
 IR Inten    --      6.4873                 3.0813                 0.5082

                      4                      5                      6
                      A                      A                      A
 Frequencies --    178.5784               237.9192               243.0612
 Red. masses --      2.3711                 1.4996                 2.5833
 Frc consts  --      0.0446                 0.0500                 0.0899
 IR Inten    --      1.3294                 0.4551                 2.9284

                      7                      8                      9
                      A                      A                      A
 Frequencies --    271.7471               370.4438               464.9639
 Red. masses --      2.1120                 2.9784                 3.5573
 Frc consts  --      0.0919                 0.2408                 0.4531
 IR Inten    --      1.5932                 2.0318                13.9931

                     10                     11                     12
                      A                      A                      A
 Frequencies --    503.9559               592.4215               716.8350
 Red. masses --      4.0138                 2.2342                 4.0454
 Frc consts  --      0.6006                 0.4620                 1.2248
 IR Inten    --      7.8330                 3.5289                 1.3439

                     13                     14                     15
                      A                      A                      A
 Frequencies --    827.2786               841.1148               856.9816
 Red. masses --      2.7583                 1.8659                 2.8539
 Frc consts  --      1.1122                 0.7778                 1.2349
 IR Inten    --      2.4429                 3.5971                10.3691

                     16                     17                     18
                      A                      A                      A
 Frequencies --    864.0560               875.8896               896.7864
 Red. masses --      1.6633                 2.1652                 2.8726
 Frc consts  --      0.7316                 0.9787                 1.3611
 IR Inten    --     24.1013                 2.9796                 1.9969

                     19                     20                     21
                      A                      A                      A
 Frequencies --    983.0921              1016.3629              1042.8341
 Red. masses --      1.9216                 1.6381                 1.2773
 Frc consts  --      1.0942                 0.9970                 0.8184
 IR Inten    --     20.3449                10.5776                 6.5504

                     22                     23                     24
                      A                      A                      A
 Frequencies --   1050.8371              1079.7162              1095.1720
 Red. masses --      1.9462                 2.3973                 2.3341
 Frc consts  --      1.2662                 1.6466                 1.6495
 IR Inten    --      4.7492                 5.0141                16.8438

                     25                     26                     27
                      A                      A                      A
 Frequencies --   1122.3745              1139.9771              1201.7931
 Red. masses --      1.7895                 2.4884                 1.4251
 Frc consts  --      1.3282                 1.9053                 1.2127
 IR Inten    --      3.8515                 1.8414                 5.2517

                     28                     29                     30
                      A                      A                      A
 Frequencies --   1226.2072              1234.2976              1253.5291
 Red. masses --      1.3505                 1.3782                 1.3674
 Frc consts  --      1.1964                 1.2371                 1.2660
 IR Inten    --      4.5795                 6.8167                 2.9414

                     31                     32                     33
                      A                      A                      A
 Frequencies --   1263.2921              1307.4167              1338.7886
 Red. masses --      1.4667                 1.5299                 1.5254
 Frc consts  --      1.3791                 1.5408                 1.6109
 IR Inten    --      0.9586                 0.8934                15.1258

                     34                     35                     36
                      A                      A                      A
 Frequencies --   1373.0566              1387.9043              1412.8996
 Red. masses --      1.5897                 3.2005                 1.2690
 Frc consts  --      1.7658                 3.6324                 1.4925
 IR Inten    --      4.7221                11.6142                 4.9383

                     37                     38                     39
                      A                      A                      A
 Frequencies --   1431.5572              1467.3676              1495.5351
 Red. masses --      1.2005                 1.0990                 1.0450
 Frc consts  --      1.4496                 1.3941                 1.3771
 IR Inten    --      4.7423                 5.4928                 3.4120

                     40                     41                     42
                      A                      A                      A
 Frequencies --   1499.2662              1833.1040              2852.5222
 Red. masses --      1.0486                 9.9867                 1.0813
 Frc consts  --      1.3887                19.7717                 5.1839
 IR Inten    --      4.8827               195.2726               101.0865

                     43                     44                     45
                      A                      A                      A
 Frequencies --   3028.2687              3030.8689              3055.2790
 Red. masses --      1.0360                 1.0604                 1.0850
 Frc consts  --      5.5974                 5.7393                 5.9673
 IR Inten    --     22.6673                 3.5545                 4.2847

                     46                     47                     48
                      A                      A                      A
 Frequencies --   3060.0323              3096.3276              3099.2768
 Red. masses --      1.0847                 1.1005                 1.1010
 Frc consts  --      5.9843                 6.2161                 6.2308
 IR Inten    --     25.9784                35.8503                 7.8414

                     49                     50                     51
                      A                      A                      A
 Frequencies --   3102.4849              3173.1025              3188.6313
 Red. masses --      1.1014                 1.0869                 1.1012
 Frc consts  --      6.2463                 6.4477                 6.5969
 IR Inten    --     22.2499                16.9531                19.7492

 - Thermochemistry -
 -------------------
 Temperature   298.150 Kelvin.  Pressure   1.00000 Atm.
 Atom     1 has atomic number  6 and mass  12.00000

 Molecular mass:   126.06808 amu.
 Principal axes and moments of inertia in atomic units:
                           1         2         3
     Eigenvalues --   613.059071766.353812164.76696
           X            0.99920   0.03943  -0.00640
           Y           -0.03928   0.99898   0.02208
           Z            0.00727  -0.02181   0.99974
 This molecule is an asymmetric top.
 Rotational symmetry number  1.
 Warning -- assumption of classical behavior for rotation
           may cause significant error
 Rotational temperatures (Kelvin)      0.14128     0.04904     0.04001
 Rotational constants (GHZ):           2.94383     1.02173     0.83369
 Zero-point vibrational energy     412453.3 (Joules/Mol)
                                   98.57870 (Kcal/Mol)
 Warning -- explicit consideration of  11 degrees of freedom as
           vibrations may cause significant error
 Vibrational temperatures:     81.86    94.51   214.39   256.93   342.31
          (Kelvin)            349.71   390.98   532.99   668.98   725.08
                              852.36  1031.36  1190.27  1210.18  1233.00
                             1243.18  1260.21  1290.27  1414.45  1462.32
                             1500.40  1511.92  1553.47  1575.71  1614.84
                             1640.17  1729.11  1764.24  1775.88  1803.55
                             1817.59  1881.08  1926.22  1975.52  1996.88
                             2032.84  2059.69  2111.21  2151.74  2157.11
                             2637.42  4104.14  4357.00  4360.74  4395.86
                             4402.70  4454.92  4459.16  4463.78  4565.38
                             4587.72

 Zero-point correction=                           0.157095 (Hartree/Particle)
 Thermal correction to Energy=                    0.166078
 Thermal correction to Enthalpy=                  0.167023
 Thermal correction to Gibbs Free Energy=         0.122437
 Sum of electronic and zero-point Energies=           -422.996323
 Sum of electronic and thermal Energies=              -422.987340
 Sum of electronic and thermal Enthalpies=            -422.986396
 Sum of electronic and thermal Free Energies=         -423.030981

                     E (Thermal)             CV                S
                      KCal/Mol        Cal/Mol-Kelvin    Cal/Mol-Kelvin
 Total                  104.216             32.627             93.838
 Electronic               0.000              0.000              0.000
 Translational            0.889              2.981             40.409
 Rotational               0.889              2.981             29.240
 Vibrational            102.438             26.665             24.189
 Vibration     1          0.596              1.975              4.562
 Vibration     2          0.597              1.971              4.279
 Vibration     3          0.618              1.904              2.685
 Vibration     4          0.629              1.869              2.343
 Vibration     5          0.656              1.783              1.818
 Vibration     6          0.659              1.774              1.780
 Vibration     7          0.675              1.725              1.585
 Vibration     8          0.742              1.533              1.078
 Vibration     9          0.822              1.328              0.752
 Vibration    10          0.859              1.241              0.648
 Vibration    11          0.950              1.048              0.463

 Optimization completed.
    -- Stationary point found.
 Normal termination of Gaussian 09 at Mon Jan 27 23:52:08 2020.
