 Gaussian 09, Revision D.01,
 Gaussian 09:  ES64L-G09RevD.01 24-Apr-2013

 -----------------------------
 # b3lyp 6-31G(2df,p) opt Freq
 -----------------------------

 -----
 titel
 -----
 Symbolic Z-matrix:
 Charge =  0 Multiplicity = 1

 SCF Done:  E(RB3LYP) =  -423.146230112     A.U. after   12 cycles
 Optimization completed.
    -- Stationary point found.
 Normal termination of Gaussian 09 at Tue Jan 28 03:02:39 2020.

 ----------------------------------------------------------------------
 #N Geom=AllCheck Guess=TCheck SCRF=Check GenChk RB3LYP/6-31G(2df,p) Fr
 eq
 ----------------------------------------------------------------------

 Structure from the checkpoint file:  "/scratch/puck/g09_75bc59e6-0501-4847-8bd4-b81b6109eb1d/Gau-44455.chk"
 -----
 titel
 -----
 Charge =  0 Multiplicity = 1

                         Standard orientation:
 ---------------------------------------------------------------------
 Center     Atomic      Atomic             Coordinates (Angstroms)
 Number     Number       Type             X           Y           Z
 ---------------------------------------------------------------------
      1          6           0       -2.766002   -0.091620   -0.079737
      2          6           0       -1.273063    0.041134   -0.336785
      3          6           0       -0.638437    1.222781    0.416719
      4          6           0        0.880938    1.126322    0.338123
      5          8           0        1.309536    0.746324   -1.010369
      6          6           0        1.756883   -0.516590   -0.521063
      7          6           0        0.685578   -1.264582    0.235370
      8          8           0       -0.691512   -1.221456    0.023168
      9          6           0        1.442579   -0.173113    0.931862
     10          1           0       -2.961835   -0.251928    0.985208
     11          1           0       -3.291449    0.813421   -0.400289
     12          1           0       -3.171080   -0.942430   -0.634275
     13          1           0       -1.096991    0.204355   -1.407347
     14          1           0       -0.997303    2.153871   -0.035704
     15          1           0       -0.941916    1.226815    1.471285
     16          1           0        1.394736    2.039232    0.650377
     17          1           0        2.616527   -0.965078   -1.007692
     18          1           0        0.974614   -2.274136    0.514312
     19          1           0        1.999656   -0.269070    1.854812
 ---------------------------------------------------------------------

 SCF Done:  E(RB3LYP) =  -423.146230112     A.U. after    1 cycles

 The electronic state is 1-A.
 Alpha  occ. eigenvalues --  -19.13919 -19.13853 -10.24180 -10.23877 -10.23702
 Alpha  occ. eigenvalues --  -10.23031 -10.19080 -10.18400 -10.17187  -1.06106
 Alpha  occ. eigenvalues --   -1.02163  -0.83039  -0.78858  -0.72666  -0.65080
 Alpha  occ. eigenvalues --   -0.62498  -0.56583  -0.53580  -0.53194  -0.49237
 Alpha  occ. eigenvalues --   -0.46075  -0.45304  -0.43626  -0.41621  -0.38962
 Alpha  occ. eigenvalues --   -0.38459  -0.37736  -0.36690  -0.34399  -0.32097
 Alpha  occ. eigenvalues --   -0.31752  -0.29325  -0.25190  -0.21478
 Alpha virt. eigenvalues --    0.07230   0.08825   0.10729   0.11883   0.12886
 Alpha virt. eigenvalues --    0.14144   0.15480   0.15758   0.16975   0.17391
 Alpha virt. eigenvalues --    0.17700   0.19125   0.19758   0.20110   0.22417

 Mulliken charges:
               1
     1  C   -0.402529
     2  C    0.158980
     3  C   -0.240586
     4  C    0.075480
     5  O   -0.300597
     6  C    0.036941
     7  C    0.109223
     8  O   -0.289035
     9  C   -0.197120
    10  H    0.118620
    11  H    0.112439
    12  H    0.124360
    13  H    0.093846
    14  H    0.106841
    15  H    0.103981
    16  H    0.084337
    17  H    0.103475
    18  H    0.106808
    19  H    0.094535
 Sum of Mulliken charges =   0.00000

 Dipole moment (field-independent basis, Debye):
    X=              0.3623    Y=              0.4556    Z=              1.3274  Tot=              1.4494
 Quadrupole moment (field-independent basis, Debye-Ang):
   XX=            -50.9320   YY=            -52.4462   ZZ=            -53.8096
   XY=             -4.0751   XZ=              2.3949   YZ=              1.6684

  Exact polarizability:  83.607  -3.640  73.016   0.728   1.487  64.947
 Approx polarizability: 106.901  -2.300 109.454  -1.606   0.462 105.704

                      1                      2                      3
                      A                      A                      A
 Frequencies --    127.5625               215.6137               240.7814
 Red. masses --      3.4621                 2.0507                 1.3023
 Frc consts  --      0.0332                 0.0562                 0.0445
 IR Inten    --      2.6055                 2.6648                 1.0169

                      4                      5                      6
                      A                      A                      A
 Frequencies --    304.7903               345.7321               428.0563
 Red. masses --      2.5249                 3.8101                 4.0408
 Frc consts  --      0.1382                 0.2683                 0.4362
 IR Inten    --      1.5188                 5.0010                 0.4894

                      7                      8                      9
                      A                      A                      A
 Frequencies --    468.8737               504.2713               658.4899
 Red. masses --      2.8385                 3.5427                 4.2980
 Frc consts  --      0.3677                 0.5308                 1.0980
 IR Inten    --      2.5345                 0.3866                12.5432

                     10                     11                     12
                      A                      A                      A
 Frequencies --    704.4853               744.2186               771.4555
 Red. masses --      2.3224                 4.3476                 3.0417
 Frc consts  --      0.6791                 1.4187                 1.0666
 IR Inten    --      8.4240                 5.2648                 3.1317

                     13                     14                     15
                      A                      A                      A
 Frequencies --    791.5144               826.0870               863.1269
 Red. masses --      2.0728                 2.3940                 2.6155
 Frc consts  --      0.7651                 0.9626                 1.1480
 IR Inten    --     11.4554                13.8179                13.6167

                     16                     17                     18
                      A                      A                      A
 Frequencies --    911.9956               942.3264               955.9517
 Red. masses --      2.4260                 1.7607                 1.7051
 Frc consts  --      1.1888                 0.9212                 0.9181
 IR Inten    --      3.6433                18.0815                 1.1978

                     19                     20                     21
                      A                      A                      A
 Frequencies --    986.0707              1030.3154              1041.3910
 Red. masses --      1.9958                 1.6323                 2.0805
 Frc consts  --      1.1434                 1.0209                 1.3294
 IR Inten    --      5.5998                32.0532                 8.3780

                     22                     23                     24
                      A                      A                      A
 Frequencies --   1055.3674              1058.1353              1101.9410
 Red. masses --      1.8323                 2.2503                 2.5868
 Frc consts  --      1.2024                 1.4845                 1.8507
 IR Inten    --     12.7365                 7.4197                44.6525

                     25                     26                     27
                      A                      A                      A
 Frequencies --   1115.0098              1132.5529              1157.8678
 Red. masses --      2.1967                 2.3779                 2.0250
 Frc consts  --      1.6091                 1.7971                 1.5996
 IR Inten    --      3.3308                21.0435                12.1561

                     28                     29                     30
                      A                      A                      A
 Frequencies --   1185.6392              1225.1579              1250.1323
 Red. masses --      1.7899                 1.7103                 1.3241
 Frc consts  --      1.4825                 1.5125                 1.2192
 IR Inten    --     60.8111                59.8601                 4.6365

                     31                     32                     33
                      A                      A                      A
 Frequencies --   1299.4462              1306.8253              1342.9875
 Red. masses --      1.7976                 1.6184                 1.3534
 Frc consts  --      1.7884                 1.6284                 1.4382
 IR Inten    --      7.8052                23.7761                11.2983

                     34                     35                     36
                      A                      A                      A
 Frequencies --   1350.6012              1387.1276              1398.6914
 Red. masses --      1.5062                 1.2931                 1.4484
 Frc consts  --      1.6188                 1.4660                 1.6695
 IR Inten    --      4.4092                 9.6265                 9.2518

                     37                     38                     39
                      A                      A                      A
 Frequencies --   1408.6859              1440.7454              1470.4704
 Red. masses --      1.3121                 2.0742                 1.0996
 Frc consts  --      1.5340                 2.5367                 1.4009
 IR Inten    --     11.2087                34.3957                 1.5251

                     40                     41                     42
                      A                      A                      A
 Frequencies --   1483.1056              1500.4838              3023.9531
 Red. masses --      1.0543                 1.0546                 1.0776
 Frc consts  --      1.3663                 1.3989                 5.8057
 IR Inten    --      3.3992                 2.4976                11.1024

                     43                     44                     45
                      A                      A                      A
 Frequencies --   3030.4707              3039.9595              3070.4006
 Red. masses --      1.0642                 1.0365                 1.0904
 Frc consts  --      5.7582                 5.6438                 6.0564
 IR Inten    --     16.5782                25.1417                43.4378

                     46                     47                     48
                      A                      A                      A
 Frequencies --   3079.5676              3113.3835              3119.4511
 Red. masses --      1.1006                 1.1016                 1.1018
 Frc consts  --      6.1497                 6.2914                 6.3168
 IR Inten    --     27.5720                31.7161                20.1905

                     49                     50                     51
                      A                      A                      A
 Frequencies --   3155.5056              3168.5672              3192.2918
 Red. masses --      1.0878                 1.0907                 1.0977
 Frc consts  --      6.3820                 6.4518                 6.5911
 IR Inten    --      7.8266                33.5841                16.2809

 - Thermochemistry -
 -------------------
 Temperature   298.150 Kelvin.  Pressure   1.00000 Atm.
 Atom     1 has atomic number  6 and mass  12.00000

 Molecular mass:   126.06808 amu.
 Principal axes and moments of inertia in atomic units:
                           1         2         3
     Eigenvalues --   547.545471147.515271364.07109
           X            0.99948  -0.02995   0.01226
           Y            0.02952   0.99900   0.03358
           Z           -0.01326  -0.03320   0.99936
 This molecule is an asymmetric top.
 Rotational symmetry number  1.
 Warning -- assumption of classical behavior for rotation
           may cause significant error
 Rotational temperatures (Kelvin)      0.15819     0.07548     0.06350
 Rotational constants (GHZ):           3.29606     1.57274     1.32306
 Zero-point vibrational energy     421848.9 (Joules/Mol)
                                  100.82431 (Kcal/Mol)
 Warning -- explicit consideration of   8 degrees of freedom as
           vibrations may cause significant error
 Vibrational temperatures:    183.53   310.22   346.43   438.52   497.43
          (Kelvin)            615.88   674.60   725.53   947.42  1013.60
                             1070.76  1109.95  1138.81  1188.55  1241.85
                             1312.16  1355.80  1375.40  1418.73  1482.39
                             1498.33  1518.44  1522.42  1585.45  1604.25
                             1629.49  1665.91  1705.87  1762.73  1798.66
                             1869.61  1880.23  1932.26  1943.21  1995.76
                             2012.40  2026.78  2072.91  2115.68  2133.86
                             2158.86  4350.79  4360.17  4373.82  4417.62
                             4430.81  4479.46  4488.19  4540.06  4558.86
                             4592.99

 Zero-point correction=                           0.160674 (Hartree/Particle)
 Thermal correction to Energy=                    0.167922
 Thermal correction to Enthalpy=                  0.168866
 Thermal correction to Gibbs Free Energy=         0.129295
 Sum of electronic and zero-point Energies=           -422.985556
 Sum of electronic and thermal Energies=              -422.978308
 Sum of electronic and thermal Enthalpies=            -422.977364
 Sum of electronic and thermal Free Energies=         -423.016935

                     E (Thermal)             CV                S
                      KCal/Mol        Cal/Mol-Kelvin    Cal/Mol-Kelvin
 Total                  105.373             29.577             83.284
 Electronic               0.000              0.000              0.000
 Translational            0.889              2.981             40.409
 Rotational               0.889              2.981             28.240
 Vibrational            103.595             23.616             14.635
 Vibration     1          0.611              1.926              2.982
 Vibration     2          0.645              1.817              1.996
 Vibration     3          0.658              1.778              1.797
 Vibration     4          0.696              1.665              1.390
 Vibration     5          0.724              1.584              1.186
 Vibration     6          0.790              1.409              0.865
 Vibration     7          0.826              1.319              0.741
 Vibration     8          0.860              1.241              0.648

 Normal termination of Gaussian 09 at Tue Jan 28 04:57:56 2020.
