 Gaussian 09, Revision D.01,
 Gaussian 09:  ES64L-G09RevD.01 24-Apr-2013

 -----------------------------
 # b3lyp 6-31G(2df,p) opt Freq
 -----------------------------

 -----
 titel
 -----
 Symbolic Z-matrix:
 Charge =  0 Multiplicity = 1

 SCF Done:  E(RB3LYP) =  -423.142563082     A.U. after   14 cycles
 Optimization completed.
    -- Stationary point found.
 Normal termination of Gaussian 09 at Mon Jan 27 15:58:23 2020.

 ----------------------------------------------------------------------
 #N Geom=AllCheck Guess=TCheck SCRF=Check GenChk RB3LYP/6-31G(2df,p) Fr
 eq
 ----------------------------------------------------------------------

 Structure from the checkpoint file:  "/scratch/puck/g09_353b2169-5517-41f3-bda5-1205cfe9fc5d/Gau-10490.chk"
 -----
 titel
 -----
 Charge =  0 Multiplicity = 1

                         Standard orientation:
 ---------------------------------------------------------------------
 Center     Atomic      Atomic             Coordinates (Angstroms)
 Number     Number       Type             X           Y           Z
 ---------------------------------------------------------------------
      1          6           0       -2.996771   -1.211541   -0.016784
      2          6           0       -1.785370   -0.338855   -0.400095
      3          6           0       -0.507283   -0.866912    0.266143
      4          8           0        0.598643   -0.158060   -0.246216
      5          6           0        1.819609   -0.504477    0.351722
      6          6           0        2.908862    0.358149   -0.262964
      7          8           0        4.075830    0.244279    0.000861
      8          6           0       -2.016718    1.064766   -0.063900
      9          6           0       -2.235104    2.208240    0.234656
     10          1           0       -3.165706   -1.189466    1.064030
     11          1           0       -3.901859   -0.844468   -0.505412
     12          1           0       -2.834726   -2.249885   -0.322276
     13          1           0       -1.628164   -0.413539   -1.484282
     14          1           0       -0.574957   -0.744020    1.359054
     15          1           0       -0.404530   -1.944406    0.055672
     16          1           0        1.808558   -0.331766    1.441873
     17          1           0        2.075811   -1.566333    0.197562
     18          1           0        2.523496    1.114100   -0.981683
     19          1           0       -2.417057    3.223816    0.485633
 ---------------------------------------------------------------------

 SCF Done:  E(RB3LYP) =  -423.142563082     A.U. after    1 cycles

 The electronic state is 1-A.
 Alpha  occ. eigenvalues --  -19.15898 -19.14490 -10.27594 -10.24624 -10.24554
 Alpha  occ. eigenvalues --  -10.22125 -10.19165 -10.18105 -10.17207  -1.06008
 Alpha  occ. eigenvalues --   -1.04844  -0.82657  -0.74970  -0.72709  -0.67092
 Alpha  occ. eigenvalues --   -0.62558  -0.58796  -0.53147  -0.51455  -0.50406
 Alpha  occ. eigenvalues --   -0.47690  -0.47339  -0.44109  -0.43249  -0.41808
 Alpha  occ. eigenvalues --   -0.39774  -0.37926  -0.37490  -0.36505  -0.34118
 Alpha  occ. eigenvalues --   -0.27548  -0.26760  -0.26487  -0.25685
 Alpha virt. eigenvalues --   -0.02814   0.04777   0.05171   0.08699   0.09656
 Alpha virt. eigenvalues --    0.12516   0.12818   0.13221   0.14059   0.15545
 Alpha virt. eigenvalues --    0.16600   0.17307   0.17413   0.19288   0.21911

 Mulliken charges:
               1
     1  C   -0.396913
     2  C   -0.167365
     3  C   -0.044031
     4  O   -0.245335
     5  C   -0.144456
     6  C    0.139066
     7  O   -0.237487
     8  C    0.347875
     9  C   -0.486069
    10  H    0.129873
    11  H    0.134461
    12  H    0.117570
    13  H    0.118285
    14  H    0.099665
    15  H    0.090959
    16  H    0.124110
    17  H    0.121098
    18  H    0.100849
    19  H    0.197844
 Sum of Mulliken charges =   0.00000

 Dipole moment (field-independent basis, Debye):
    X=             -2.5756    Y=             -1.3198    Z=              0.3784  Tot=              2.9188
 Quadrupole moment (field-independent basis, Debye-Ang):
   XX=            -67.1218   YY=            -48.4083   ZZ=            -52.3605
   XY=             -0.3400   XZ=             -0.2022   YZ=              0.9454

  Exact polarizability:  89.499  -2.607  87.485   0.456   1.432  59.852
 Approx polarizability: 111.179  -7.885 133.240   1.311   6.344  92.449

                      1                      2                      3
                      A                      A                      A
 Frequencies --     39.1750                57.0777                81.1934
 Red. masses --      5.6506                 2.1656                 2.9824
 Frc consts  --      0.0051                 0.0042                 0.0116
 IR Inten    --      0.9893                 5.8789                 4.0307

                      4                      5                      6
                      A                      A                      A
 Frequencies --    106.8876               127.2181               184.1235
 Red. masses --      3.5635                 3.9774                 2.8693
 Frc consts  --      0.0240                 0.0379                 0.0573
 IR Inten    --      4.6422                 3.9213                 1.2707

                      7                      8                      9
                      A                      A                      A
 Frequencies --    208.9125               250.5084               265.8508
 Red. masses --      1.3675                 1.9862                 2.7891
 Frc consts  --      0.0352                 0.0734                 0.1161
 IR Inten    --      0.2554                 1.6134                 2.2203

                     10                     11                     12
                      A                      A                      A
 Frequencies --    327.6436               433.3264               527.9137
 Red. masses --      6.0596                 3.8073                 5.3048
 Frc consts  --      0.3833                 0.4212                 0.8711
 IR Inten    --      0.6720                 6.5614                11.4430

                     13                     14                     15
                      A                      A                      A
 Frequencies --    543.5848               599.8226               630.2186
 Red. masses --      3.4418                 4.2491                 1.2209
 Frc consts  --      0.5992                 0.9007                 0.2857
 IR Inten    --      0.9979                 3.8462                43.5091

                     16                     17                     18
                      A                      A                      A
 Frequencies --    641.4536               740.6350               805.1373
 Red. masses --      1.2146                 1.2602                 2.7534
 Frc consts  --      0.2945                 0.4073                 1.0516
 IR Inten    --     45.0665                 0.1971                 1.4478

                     19                     20                     21
                      A                      A                      A
 Frequencies --    928.4351               960.5610              1014.2082
 Red. masses --      1.4739                 1.6209                 3.6605
 Frc consts  --      0.7486                 0.8812                 2.2184
 IR Inten    --      5.2269                 2.7248                49.4077

                     22                     23                     24
                      A                      A                      A
 Frequencies --   1058.6709              1102.4036              1110.7478
 Red. masses --      4.2476                 2.7614                 1.9061
 Frc consts  --      2.8049                 1.9772                 1.3856
 IR Inten    --     13.8995                 8.7530                 2.4184

                     25                     26                     27
                      A                      A                      A
 Frequencies --   1123.2717              1174.0635              1180.9464
 Red. masses --      1.7333                 2.2575                 6.8750
 Frc consts  --      1.2886                 1.8334                 5.6492
 IR Inten    --      1.8525                10.2247               205.8510

                     28                     29                     30
                      A                      A                      A
 Frequencies --   1234.5680              1258.8794              1299.9569
 Red. masses --      1.0985                 1.1690                 1.2854
 Frc consts  --      0.9865                 1.0915                 1.2799
 IR Inten    --      1.7757                 4.4975                 1.8928

                     31                     32                     33
                      A                      A                      A
 Frequencies --   1344.3825              1364.3965              1395.8643
 Red. masses --      1.2760                 1.4163                 1.2485
 Frc consts  --      1.3588                 1.5534                 1.4332
 IR Inten    --     25.6797                14.5179                19.2403

                     34                     35                     36
                      A                      A                      A
 Frequencies --   1407.4706              1429.9240              1480.0183
 Red. masses --      1.2317                 1.3566                 1.1047
 Frc consts  --      1.4376                 1.6343                 1.4257
 IR Inten    --      4.5981                11.2757                18.0223

                     37                     38                     39
                      A                      A                      A
 Frequencies --   1492.3932              1500.4611              1519.8770
 Red. masses --      1.0465                 1.0510                 1.0928
 Frc consts  --      1.3733                 1.3942                 1.4874
 IR Inten    --      5.0314                 3.0025                 3.0996

                     40                     41                     42
                      A                      A                      A
 Frequencies --   1845.4088              2238.0500              2904.5923
 Red. masses --     10.6268                 5.9200                 1.0847
 Frc consts  --     21.3225                17.4706                 5.3919
 IR Inten    --    165.8251                 0.7913                73.4002

                     43                     44                     45
                      A                      A                      A
 Frequencies --   2956.1174              2965.9238              2988.2362
 Red. masses --      1.0546                 1.0553                 1.1019
 Frc consts  --      5.4298                 5.4697                 5.7974
 IR Inten    --     31.9892                53.6765                44.9735

                     46                     47                     48
                      A                      A                      A
 Frequencies --   2997.9700              3027.6998              3042.8789
 Red. masses --      1.1030                 1.0848                 1.0354
 Frc consts  --      5.8407                 5.8591                 5.6482
 IR Inten    --     14.9636                22.6002                24.1611

                     49                     50                     51
                      A                      A                      A
 Frequencies --   3114.0675              3129.9842              3504.7627
 Red. masses --      1.1022                 1.1015                 1.1624
 Frc consts  --      6.2974                 6.3580                 8.4122
 IR Inten    --     25.7568                16.8458                62.8308

 - Thermochemistry -
 -------------------
 Temperature   298.150 Kelvin.  Pressure   1.00000 Atm.
 Atom     1 has atomic number  6 and mass  12.00000

 Molecular mass:   126.06808 amu.
 Principal axes and moments of inertia in atomic units:
                           1         2         3
     Eigenvalues --   527.058672651.245583066.33123
           X            0.99993   0.01140   0.00049
           Y           -0.01139   0.99990  -0.00838
           Z           -0.00059   0.00838   0.99996
 This molecule is an asymmetric top.
 Rotational symmetry number  1.
 Warning -- assumption of classical behavior for rotation
           may cause significant error
 Rotational temperatures (Kelvin)      0.16433     0.03267     0.02825
 Rotational constants (GHZ):           3.42418     0.68071     0.58857
 Zero-point vibrational energy     404743.8 (Joules/Mol)
                                   96.73608 (Kcal/Mol)
 Warning -- explicit consideration of  14 degrees of freedom as
           vibrations may cause significant error
 Vibrational temperatures:     56.36    82.12   116.82   153.79   183.04
          (Kelvin)            264.91   300.58   360.43   382.50   471.41
                              623.46   759.55   782.10   863.01   906.74
                              922.91  1065.61  1158.41  1335.81  1382.03
                             1459.22  1523.19  1586.11  1598.12  1616.14
                             1689.21  1699.12  1776.27  1811.24  1870.35
                             1934.26  1963.06  2008.33  2025.03  2057.34
                             2129.41  2147.22  2158.83  2186.76  2655.13
                             3220.05  4179.06  4253.19  4267.30  4299.40
                             4313.40  4356.18  4378.02  4480.44  4503.34
                             5042.57

 Zero-point correction=                           0.154159 (Hartree/Particle)
 Thermal correction to Energy=                    0.164972
 Thermal correction to Enthalpy=                  0.165916
 Thermal correction to Gibbs Free Energy=         0.116578
 Sum of electronic and zero-point Energies=           -422.988404
 Sum of electronic and thermal Energies=              -422.977591
 Sum of electronic and thermal Enthalpies=            -422.976647
 Sum of electronic and thermal Free Energies=         -423.025985

                     E (Thermal)             CV                S
                      KCal/Mol        Cal/Mol-Kelvin    Cal/Mol-Kelvin
 Total                  103.522             36.834            103.842
 Electronic               0.000              0.000              0.000
 Translational            0.889              2.981             40.409
 Rotational               0.889              2.981             29.839
 Vibrational            101.744             30.873             33.594
 Vibration     1          0.594              1.981              5.300
 Vibration     2          0.596              1.975              4.556
 Vibration     3          0.600              1.962              3.862
 Vibration     4          0.606              1.944              3.325
 Vibration     5          0.611              1.926              2.988
 Vibration     6          0.631              1.861              2.286
 Vibration     7          0.642              1.827              2.053
 Vibration     8          0.663              1.762              1.727
 Vibration     9          0.672              1.736              1.623
 Vibration    10          0.711              1.620              1.272
 Vibration    11          0.794              1.398              0.848
 Vibration    12          0.883              1.188              0.592
 Vibration    13          0.899              1.154              0.558
 Vibration    14          0.958              1.032              0.450

 Optimization completed on the basis of negligible forces.
    -- Stationary point found.
 Normal termination of Gaussian 09 at Mon Jan 27 17:22:43 2020.
