 Gaussian 09, Revision D.01,
 Gaussian 09:  ES64L-G09RevD.01 24-Apr-2013

 -----------------------------
 # b3lyp 6-31G(2df,p) opt Freq
 -----------------------------

 -----
 titel
 -----
 Symbolic Z-matrix:
 Charge =  0 Multiplicity = 1

 SCF Done:  E(RB3LYP) =  -423.148102998     A.U. after   14 cycles
 Optimization completed.
    -- Stationary point found.
 Normal termination of Gaussian 09 at Tue Jan 28 09:15:02 2020.

 ----------------------------------------------------------------------
 #N Geom=AllCheck Guess=TCheck SCRF=Check GenChk RB3LYP/6-31G(2df,p) Fr
 eq
 ----------------------------------------------------------------------

 Structure from the checkpoint file:  "/scratch/puck/g09_5cfebe49-6ec2-4eaa-b30a-e0d51856d0bc/Gau-129690.chk"
 -----
 titel
 -----
 Charge =  0 Multiplicity = 1

                         Standard orientation:
 ---------------------------------------------------------------------
 Center     Atomic      Atomic             Coordinates (Angstroms)
 Number     Number       Type             X           Y           Z
 ---------------------------------------------------------------------
      1          6           0        2.929995    0.043145    0.439926
      2          6           0        1.934893   -0.492674   -0.598354
      3          6           0        0.518789   -0.299032   -0.158275
      4          6           0       -0.290467   -0.947030    0.996868
      5          6           0       -1.339619   -0.210919    0.123961
      6          6           0       -2.830106   -0.278610    0.121260
      7          8           0       -0.591879   -0.697247   -1.081542
      8          6           0       -0.343860    0.978569    0.034576
      9          8           0       -0.295864    2.165161   -0.022651
     10          1           0        3.957651   -0.094417    0.093628
     11          1           0        2.772447    1.110891    0.619206
     12          1           0        2.826359   -0.479306    1.396487
     13          1           0        2.068983    0.025948   -1.554560
     14          1           0        2.111135   -1.558308   -0.786325
     15          1           0       -0.355214   -2.033926    0.910801
     16          1           0       -0.123077   -0.602841    2.021352
     17          1           0       -3.176118   -1.312525    0.031560
     18          1           0       -3.221924    0.138932    1.053804
     19          1           0       -3.236050    0.301545   -0.712177
 ---------------------------------------------------------------------

 SCF Done:  E(RB3LYP) =  -423.148102998     A.U. after    1 cycles

 The electronic state is 1-A.
 Alpha  occ. eigenvalues --  -19.15331 -19.14423 -10.27511 -10.25787 -10.25461
 Alpha  occ. eigenvalues --  -10.20394 -10.19665 -10.19355 -10.18620  -1.07576
 Alpha  occ. eigenvalues --   -1.04384  -0.79961  -0.78512  -0.74495  -0.66065
 Alpha  occ. eigenvalues --   -0.65154  -0.57433  -0.50363  -0.47833  -0.46662
 Alpha  occ. eigenvalues --   -0.45934  -0.45425  -0.44358  -0.42358  -0.40606
 Alpha  occ. eigenvalues --   -0.40174  -0.37945  -0.37006  -0.36214  -0.35471
 Alpha  occ. eigenvalues --   -0.33819  -0.32504  -0.26007  -0.24344
 Alpha virt. eigenvalues --   -0.00176   0.07960   0.09653   0.10283   0.12103
 Alpha virt. eigenvalues --    0.12768   0.14094   0.14135   0.14367   0.16495
 Alpha virt. eigenvalues --    0.16782   0.17208   0.17725   0.18333   0.20653

 Mulliken charges:
               1
     1  C   -0.391457
     2  C   -0.322356
     3  C    0.289396
     4  C   -0.303426
     5  C    0.265660
     6  C   -0.516863
     7  O   -0.373132
     8  C    0.406977
     9  O   -0.326658
    10  H    0.122781
    11  H    0.141867
    12  H    0.121709
    13  H    0.125334
    14  H    0.115345
    15  H    0.113590
    16  H    0.108471
    17  H    0.137254
    18  H    0.138413
    19  H    0.147096
 Sum of Mulliken charges =   0.00000

 Dipole moment (field-independent basis, Debye):
    X=              0.2408    Y=             -2.1447    Z=              1.5315  Tot=              2.6464
 Quadrupole moment (field-independent basis, Debye-Ang):
   XX=            -46.8729   YY=            -59.4953   ZZ=            -53.6753
   XY=              0.2015   XZ=             -1.7411   YZ=             -1.3191

  Exact polarizability:  90.902   0.423  74.801  -1.180  -0.932  65.106
 Approx polarizability: 112.236   1.254 123.399  -0.662   3.586 105.723

                      1                      2                      3
                      A                      A                      A
 Frequencies --     58.7146               131.3105               156.8960
 Red. masses --      2.6496                 3.0481                 1.3318
 Frc consts  --      0.0054                 0.0310                 0.0193
 IR Inten    --      0.6907                 0.7246                 1.8704

                      4                      5                      6
                      A                      A                      A
 Frequencies --    180.9232               190.5063               209.2022
 Red. masses --      1.6960                 2.2348                 3.5163
 Frc consts  --      0.0327                 0.0478                 0.0907
 IR Inten    --      0.1875                 2.6159                 3.2431

                      7                      8                      9
                      A                      A                      A
 Frequencies --    262.4278               296.9739               417.2135
 Red. masses --      1.4884                 2.8872                 3.6380
 Frc consts  --      0.0604                 0.1500                 0.3731
 IR Inten    --      0.3436                 1.4181                 7.3171

                     10                     11                     12
                      A                      A                      A
 Frequencies --    508.6859               518.8239               606.7419
 Red. masses --      3.0751                 2.6310                 3.6134
 Frc consts  --      0.4688                 0.4173                 0.7837
 IR Inten    --      3.4015                 4.2810                 4.2673

                     13                     14                     15
                      A                      A                      A
 Frequencies --    665.3026               698.5792               753.2974
 Red. masses --      4.1493                 2.7691                 3.5340
 Frc consts  --      1.0821                 0.7962                 1.1815
 IR Inten    --     13.7246                 2.0033                 9.8131

                     16                     17                     18
                      A                      A                      A
 Frequencies --    790.4248               829.1296               859.0132
 Red. masses --      1.9911                 2.4749                 4.8324
 Frc consts  --      0.7329                 1.0024                 2.1009
 IR Inten    --      1.6167                 9.0885                68.8748

                     19                     20                     21
                      A                      A                      A
 Frequencies --    906.4323               935.9821               977.9484
 Red. masses --      2.8091                 2.5125                 2.0196
 Frc consts  --      1.3598                 1.2969                 1.1380
 IR Inten    --     15.2724                 1.7342                 0.5707

                     22                     23                     24
                      A                      A                      A
 Frequencies --   1025.5350              1049.9552              1070.7915
 Red. masses --      1.6524                 1.3992                 1.9097
 Frc consts  --      1.0239                 0.9088                 1.2901
 IR Inten    --     11.3956                 2.1185                 4.0479

                     25                     26                     27
                      A                      A                      A
 Frequencies --   1128.6195              1149.7712              1161.0621
 Red. masses --      2.2351                 1.5207                 1.6955
 Frc consts  --      1.6774                 1.1844                 1.3467
 IR Inten    --      7.4723                 1.9395                 8.8548

                     28                     29                     30
                      A                      A                      A
 Frequencies --   1194.5289              1282.4892              1298.3122
 Red. masses --      2.2634                 1.9538                 1.5039
 Frc consts  --      1.9028                 1.8934                 1.4936
 IR Inten    --      5.7273                16.2752                 8.7367

                     31                     32                     33
                      A                      A                      A
 Frequencies --   1344.8295              1392.6080              1412.3755
 Red. masses --      1.6234                 1.6497                 1.2545
 Frc consts  --      1.7298                 1.8850                 1.4745
 IR Inten    --      0.7752                 1.4077                 3.4127

                     34                     35                     36
                      A                      A                      A
 Frequencies --   1425.4525              1475.8217              1484.4998
 Red. masses --      1.7635                 1.0459                 1.0698
 Frc consts  --      2.1112                 1.3421                 1.3891
 IR Inten    --      2.9094                 3.6954                 1.1428

                     37                     38                     39
                      A                      A                      A
 Frequencies --   1486.8965              1487.8261              1500.3349
 Red. masses --      1.0636                 1.5069                 1.0393
 Frc consts  --      1.3855                 1.9654                 1.3783
 IR Inten    --      5.2700                 1.7377                 6.7107

                     40                     41                     42
                      A                      A                      A
 Frequencies --   1511.0492              1918.6916              3035.4776
 Red. masses --      1.1182                12.8625                 1.0582
 Frc consts  --      1.5043                27.8988                 5.7450
 IR Inten    --      4.0241               319.0338                15.2457

                     43                     44                     45
                      A                      A                      A
 Frequencies --   3042.0371              3043.5896              3056.1308
 Red. masses --      1.0364                 1.0349                 1.0555
 Frc consts  --      5.6509                 5.6482                 5.8082
 IR Inten    --     21.7659                13.5004                19.7113

                     46                     47                     48
                      A                      A                      A
 Frequencies --   3072.5514              3111.9962              3116.6707
 Red. masses --      1.1021                 1.1017                 1.1013
 Frc consts  --      6.1302                 6.2862                 6.3028
 IR Inten    --      5.3009                28.3926                 8.5450

                     49                     50                     51
                      A                      A                      A
 Frequencies --   3120.7627              3121.7827              3137.5996
 Red. masses --      1.1023                 1.1016                 1.1102
 Frc consts  --      6.3249                 6.3255                 6.4397
 IR Inten    --     22.5995                 8.0562                13.2873

 - Thermochemistry -
 -------------------
 Temperature   298.150 Kelvin.  Pressure   1.00000 Atm.
 Atom     1 has atomic number  6 and mass  12.00000

 Molecular mass:   126.06808 amu.
 Principal axes and moments of inertia in atomic units:
                           1         2         3
     Eigenvalues --   608.869631427.308341680.45098
           X            0.99998   0.00655  -0.00185
           Y           -0.00660   0.99955  -0.02932
           Z            0.00166   0.02933   0.99957
 This molecule is an asymmetric top.
 Rotational symmetry number  1.
 Warning -- assumption of classical behavior for rotation
           may cause significant error
 Rotational temperatures (Kelvin)      0.14225     0.06068     0.05154
 Rotational constants (GHZ):           2.96408     1.26444     1.07396
 Zero-point vibrational energy     410406.3 (Joules/Mol)
                                   98.08946 (Kcal/Mol)
 Warning -- explicit consideration of  12 degrees of freedom as
           vibrations may cause significant error
 Vibrational temperatures:     84.48   188.93   225.74   260.31   274.10
          (Kelvin)            300.99   377.57   427.28   600.28   731.88
                              746.47   872.97   957.22  1005.10  1083.83
                             1137.24  1192.93  1235.93  1304.15  1346.67
                             1407.05  1475.51  1510.65  1540.63  1623.83
                             1654.26  1670.51  1718.66  1845.21  1867.98
                             1934.91  2003.65  2032.09  2050.91  2123.38
                             2135.86  2139.31  2140.65  2158.64  2174.06
                             2760.57  4367.37  4376.81  4379.04  4397.09
                             4420.71  4477.46  4484.19  4490.08  4491.54
                             4514.30

 Zero-point correction=                           0.156316 (Hartree/Particle)
 Thermal correction to Energy=                    0.165702
 Thermal correction to Enthalpy=                  0.166646
 Thermal correction to Gibbs Free Energy=         0.122022
 Sum of electronic and zero-point Energies=           -422.991787
 Sum of electronic and thermal Energies=              -422.982401
 Sum of electronic and thermal Enthalpies=            -422.981457
 Sum of electronic and thermal Free Energies=         -423.026081

                     E (Thermal)             CV                S
                      KCal/Mol        Cal/Mol-Kelvin    Cal/Mol-Kelvin
 Total                  103.979             34.383             93.918
 Electronic               0.000              0.000              0.000
 Translational            0.889              2.981             40.409
 Rotational               0.889              2.981             28.770
 Vibrational            102.202             28.422             24.740
 Vibration     1          0.596              1.974              4.500
 Vibration     2          0.612              1.922              2.927
 Vibration     3          0.621              1.895              2.587
 Vibration     4          0.630              1.866              2.319
 Vibration     5          0.634              1.853              2.223
 Vibration     6          0.642              1.827              2.051
 Vibration     7          0.670              1.742              1.646
 Vibration     8          0.691              1.679              1.434
 Vibration     9          0.780              1.433              0.901
 Vibration    10          0.864              1.231              0.637
 Vibration    11          0.874              1.208              0.613
 Vibration    12          0.965              1.018              0.438

 Optimization completed.
    -- Stationary point found.
 Normal termination of Gaussian 09 at Tue Jan 28 09:58:21 2020.
