 Gaussian 09, Revision D.01,
 Gaussian 09:  ES64L-G09RevD.01 24-Apr-2013

 -----------------------------
 # b3lyp 6-31G(2df,p) opt Freq
 -----------------------------

 -----
 titel
 -----
 Symbolic Z-matrix:
 Charge =  0 Multiplicity = 1

 SCF Done:  E(RB3LYP) =  -423.083782903     A.U. after   13 cycles
 Optimization completed.
    -- Stationary point found.
 Normal termination of Gaussian 09 at Tue Jan 28 13:53:37 2020.

 ----------------------------------------------------------------------
 #N Geom=AllCheck Guess=TCheck SCRF=Check GenChk RB3LYP/6-31G(2df,p) Fr
 eq
 ----------------------------------------------------------------------

 Structure from the checkpoint file:  "/scratch/puck/g09_6810cd71-4feb-4b2b-8d86-f2ada4c9573f/Gau-119945.chk"
 -----
 titel
 -----
 Charge =  0 Multiplicity = 1

                         Standard orientation:
 ---------------------------------------------------------------------
 Center     Atomic      Atomic             Coordinates (Angstroms)
 Number     Number       Type             X           Y           Z
 ---------------------------------------------------------------------
      1          6           0       -2.783421   -0.469963   -0.543497
      2          8           0       -1.835948   -0.455731    0.513436
      3          6           0       -0.521881   -0.647768    0.048730
      4          6           0        0.492932   -0.297291    1.113701
      5          6           0        1.964143   -0.404828    0.621338
      6          6           0        2.132852   -0.834070   -0.814951
      7          6           0        1.684025    0.571217   -0.509785
      8          6           0        0.217211    0.664296   -0.042862
      9          8           0       -0.434898    1.877328   -0.106935
     10          1           0       -2.788813   -1.441560   -1.058319
     11          1           0       -3.765082   -0.302362   -0.094266
     12          1           0       -2.581746    0.315943   -1.283802
     13          1           0       -0.432058   -1.496760   -0.630944
     14          1           0        0.205224   -0.269719    2.157182
     15          1           0        2.795715   -0.393002    1.313814
     16          1           0        3.168552   -0.905947   -1.135449
     17          1           0        1.490097   -1.564697   -1.292091
     18          1           0        2.244294    1.450636   -0.798507
     19          1           0       -1.284578    1.745143    0.334326
 ---------------------------------------------------------------------

 SCF Done:  E(RB3LYP) =  -423.083782903     A.U. after    1 cycles

 The electronic state is 1-A.
 Alpha  occ. eigenvalues --  -19.15548 -19.14545 -10.23870 -10.23256 -10.23107
 Alpha  occ. eigenvalues --  -10.19569 -10.19098 -10.19069 -10.18349  -1.05424
 Alpha  occ. eigenvalues --   -1.02418  -0.90881  -0.79457  -0.69359  -0.63601
 Alpha  occ. eigenvalues --   -0.62840  -0.55979  -0.54170  -0.52861  -0.51484
 Alpha  occ. eigenvalues --   -0.47051  -0.45781  -0.43959  -0.43655  -0.40249
 Alpha  occ. eigenvalues --   -0.38838  -0.37043  -0.34879  -0.34541  -0.30644
 Alpha  occ. eigenvalues --   -0.29884  -0.29284  -0.24742  -0.19437
 Alpha virt. eigenvalues --    0.07129   0.08584   0.10346   0.10507   0.12142
 Alpha virt. eigenvalues --    0.13215   0.14760   0.15741   0.15938   0.16740
 Alpha virt. eigenvalues --    0.18323   0.19857   0.20063   0.21351   0.21901

 Mulliken charges:
               1
     1  C   -0.250847
     2  O   -0.269552
     3  C    0.000845
     4  C   -0.200443
     5  C   -0.056251
     6  C   -0.306031
     7  C   -0.108560
     8  C    0.406289
     9  O   -0.468244
    10  H    0.115274
    11  H    0.129451
    12  H    0.121654
    13  H    0.077025
    14  H    0.096816
    15  H    0.095242
    16  H    0.112706
    17  H    0.115751
    18  H    0.099399
    19  H    0.289477
 Sum of Mulliken charges =   0.00000

 Dipole moment (field-independent basis, Debye):
    X=             -0.3778    Y=             -0.8713    Z=             -0.4473  Tot=              1.0497
 Quadrupole moment (field-independent basis, Debye-Ang):
   XX=            -46.0444   YY=            -56.2676   ZZ=            -53.1306
   XY=             -0.7598   XZ=              1.5862   YZ=              2.4831

  Exact polarizability:  91.127  -1.270  67.957   0.041   1.145  66.124
 Approx polarizability: 114.193  -2.148 107.630   0.094  -2.173 105.401

                      1                      2                      3
                      A                      A                      A
 Frequencies --     91.4305               154.5099               178.7106
 Red. masses --      2.8761                 2.8355                 1.3773
 Frc consts  --      0.0142                 0.0399                 0.0259
 IR Inten    --      8.5895                 2.0640                 0.3091

                      4                      5                      6
                      A                      A                      A
 Frequencies --    227.5139               270.3377               334.9485
 Red. masses --      2.5268                 3.6244                 3.6924
 Frc consts  --      0.0771                 0.1561                 0.2441
 IR Inten    --      1.2271                11.7657                 4.4365

                      7                      8                      9
                      A                      A                      A
 Frequencies --    386.3426               400.7948               438.9730
 Red. masses --      2.0916                 1.6920                 2.8676
 Frc consts  --      0.1839                 0.1601                 0.3256
 IR Inten    --     13.9280                44.6629                 8.0400

                     10                     11                     12
                      A                      A                      A
 Frequencies --    464.9893               548.2008               690.7297
 Red. masses --      2.3067                 3.3695                 3.0693
 Frc consts  --      0.2938                 0.5966                 0.8628
 IR Inten    --     35.6775                 4.8927                 5.4162

                     13                     14                     15
                      A                      A                      A
 Frequencies --    703.6517               760.7424               850.8696
 Red. masses --      3.2594                 1.5322                 2.2856
 Frc consts  --      0.9508                 0.5224                 0.9749
 IR Inten    --      8.9551                 9.3739                 6.6988

                     16                     17                     18
                      A                      A                      A
 Frequencies --    861.2090               890.3089               905.9550
 Red. masses --      2.7808                 2.3755                 1.6560
 Frc consts  --      1.2152                 1.1094                 0.8008
 IR Inten    --     14.0054                10.5421                12.0620

                     19                     20                     21
                      A                      A                      A
 Frequencies --    930.3524               975.4332               986.3875
 Red. masses --      2.7874                 2.0755                 1.7559
 Frc consts  --      1.4215                 1.1635                 1.0066
 IR Inten    --      2.5714                 3.4596                14.1435

                     22                     23                     24
                      A                      A                      A
 Frequencies --   1031.2153              1053.3893              1063.4923
 Red. masses --      1.9820                 1.2454                 1.5475
 Frc consts  --      1.2418                 0.8142                 1.0312
 IR Inten    --     11.6769                 3.7560                 6.1957

                     25                     26                     27
                      A                      A                      A
 Frequencies --   1085.0206              1105.1021              1113.9699
 Red. masses --      1.7597                 1.6352                 1.7820
 Frc consts  --      1.2206                 1.1766                 1.3029
 IR Inten    --     40.9690                48.4892                 1.1799

                     28                     29                     30
                      A                      A                      A
 Frequencies --   1148.6543              1181.3790              1182.0906
 Red. masses --      2.9370                 1.6916                 1.4268
 Frc consts  --      2.2831                 1.3910                 1.1747
 IR Inten    --    100.1273                 2.1612                 9.0845

                     31                     32                     33
                      A                      A                      A
 Frequencies --   1222.7763              1245.8049              1260.8210
 Red. masses --      1.7438                 1.9924                 1.5692
 Frc consts  --      1.5362                 1.8219                 1.4697
 IR Inten    --     20.2778                23.3770                 1.7447

                     34                     35                     36
                      A                      A                      A
 Frequencies --   1304.7986              1329.6147              1409.6474
 Red. masses --      2.1734                 1.5313                 2.3083
 Frc consts  --      2.1801                 1.5950                 2.7025
 IR Inten    --     88.2724                42.6183                 1.5597

                     37                     38                     39
                      A                      A                      A
 Frequencies --   1444.0543              1477.3164              1486.3588
 Red. masses --      3.1674                 1.1932                 1.0488
 Frc consts  --      3.8916                 1.5343                 1.3651
 IR Inten    --     76.4411                 0.8755                 5.9014

                     40                     41                     42
                      A                      A                      A
 Frequencies --   1496.7470              1510.8082              2992.1618
 Red. masses --      1.1869                 1.0579                 1.0351
 Frc consts  --      1.5666                 1.4227                 5.4603
 IR Inten    --      2.8876                 6.4488                52.8428

                     43                     44                     45
                      A                      A                      A
 Frequencies --   3048.5601              3070.3042              3120.3632
 Red. masses --      1.1032                 1.0863                 1.0991
 Frc consts  --      6.0406                 6.0335                 6.3054
 IR Inten    --     39.7520                26.4232                26.4111

                     46                     47                     48
                      A                      A                      A
 Frequencies --   3129.4833              3187.3728              3195.9784
 Red. masses --      1.0558                 1.0905                 1.0915
 Frc consts  --      6.0921                 6.5273                 6.5688
 IR Inten    --     25.3211                 6.6917                13.3986

                     49                     50                     51
                      A                      A                      A
 Frequencies --   3200.3427              3209.2471              3768.8340
 Red. masses --      1.1052                 1.1051                 1.0643
 Frc consts  --      6.6693                 6.7057                 8.9068
 IR Inten    --      0.2160                23.3708                34.7146

 - Thermochemistry -
 -------------------
 Temperature   298.150 Kelvin.  Pressure   1.00000 Atm.
 Atom     1 has atomic number  6 and mass  12.00000

 Molecular mass:   126.06808 amu.
 Principal axes and moments of inertia in atomic units:
                           1         2         3
     Eigenvalues --   546.524091425.868841603.60249
           X            0.99994  -0.00226   0.01089
           Y            0.00149   0.99752   0.07035
           Z           -0.01102  -0.07032   0.99746
 This molecule is an asymmetric top.
 Rotational symmetry number  1.
 Warning -- assumption of classical behavior for rotation
           may cause significant error
 Rotational temperatures (Kelvin)      0.15848     0.06074     0.05401
 Rotational constants (GHZ):           3.30222     1.26571     1.12543
 Zero-point vibrational energy     413477.9 (Joules/Mol)
                                   98.82358 (Kcal/Mol)
 Warning -- explicit consideration of  11 degrees of freedom as
           vibrations may cause significant error
 Vibrational temperatures:    131.55   222.31   257.12   327.34   388.96
          (Kelvin)            481.92   555.86   576.65   631.58   669.02
                              788.74   993.80  1012.40  1094.54  1224.21
                             1239.09  1280.95  1303.47  1338.57  1403.43
                             1419.19  1483.69  1515.59  1530.13  1561.10
                             1589.99  1602.75  1652.66  1699.74  1700.76
                             1759.30  1792.43  1814.04  1877.31  1913.02
                             2028.17  2077.67  2125.53  2138.54  2153.48
                             2173.71  4305.05  4386.19  4417.48  4489.50
                             4502.62  4585.91  4598.29  4604.57  4617.38
                             5422.50

 Zero-point correction=                           0.157485 (Hartree/Particle)
 Thermal correction to Energy=                    0.166003
 Thermal correction to Enthalpy=                  0.166948
 Thermal correction to Gibbs Free Energy=         0.124644
 Sum of electronic and zero-point Energies=           -422.926298
 Sum of electronic and thermal Energies=              -422.917780
 Sum of electronic and thermal Enthalpies=            -422.916835
 Sum of electronic and thermal Free Energies=         -422.959139

                     E (Thermal)             CV                S
                      KCal/Mol        Cal/Mol-Kelvin    Cal/Mol-Kelvin
 Total                  104.169             33.224             89.036
 Electronic               0.000              0.000              0.000
 Translational            0.889              2.981             40.409
 Rotational               0.889              2.981             28.615
 Vibrational            102.391             27.262             20.012
 Vibration     1          0.602              1.955              3.629
 Vibration     2          0.620              1.898              2.616
 Vibration     3          0.629              1.868              2.342
 Vibration     4          0.651              1.799              1.898
 Vibration     5          0.674              1.728              1.594
 Vibration     6          0.716              1.606              1.236
 Vibration     7          0.755              1.499              1.014
 Vibration     8          0.767              1.468              0.960
 Vibration     9          0.799              1.385              0.830
 Vibration    10          0.822              1.328              0.752
 Vibration    11          0.903              1.144              0.548

 Optimization completed.
    -- Stationary point found.
 Normal termination of Gaussian 09 at Tue Jan 28 14:34:58 2020.
