 Gaussian 09, Revision D.01,
 Gaussian 09:  ES64L-G09RevD.01 24-Apr-2013

 -----------------------------
 # b3lyp 6-31G(2df,p) opt Freq
 -----------------------------

 -----
 titel
 -----
 Symbolic Z-matrix:
 Charge =  0 Multiplicity = 1

 SCF Done:  E(RB3LYP) =  -423.091589738     A.U. after   13 cycles
 Optimization completed.
    -- Stationary point found.
 Normal termination of Gaussian 09 at Mon Jan 27 15:55:27 2020.

 ----------------------------------------------------------------------
 #N Geom=AllCheck Guess=TCheck SCRF=Check GenChk RB3LYP/6-31G(2df,p) Fr
 eq
 ----------------------------------------------------------------------

 Structure from the checkpoint file:  "/scratch/puck/g09_e7617eed-e3f3-4ce2-9791-bdfeb7b26448/Gau-82158.chk"
 -----
 titel
 -----
 Charge =  0 Multiplicity = 1

                         Standard orientation:
 ---------------------------------------------------------------------
 Center     Atomic      Atomic             Coordinates (Angstroms)
 Number     Number       Type             X           Y           Z
 ---------------------------------------------------------------------
      1          6           0       -0.813822   -1.806452   -0.639983
      2          6           0       -0.851233   -0.447727    0.048691
      3          6           0       -2.289206   -0.050753    0.386860
      4          6           0        0.113359    0.079342    1.115798
      5          6           0        1.634533   -0.132183    0.851385
      6          8           0        1.856587   -0.878384   -0.356761
      7          6           0        1.543932    0.514242   -0.452209
      8          6           0        0.005221    0.768951   -0.239418
      9          8           0       -0.494830    2.038780   -0.479868
     10          1           0       -1.457059   -1.784735   -1.528555
     11          1           0        0.184634   -2.107418   -0.936117
     12          1           0       -1.224809   -2.568552    0.033167
     13          1           0       -2.742803   -0.809337    1.033515
     14          1           0       -2.347601    0.916878    0.888272
     15          1           0       -2.894135    0.008080   -0.525466
     16          1           0       -0.254581    0.431392    2.071582
     17          1           0        2.422487   -0.143499    1.594649
     18          1           0        2.222148    1.165337   -0.992156
     19          1           0       -0.859040    2.056172   -1.372606
 ---------------------------------------------------------------------

 SCF Done:  E(RB3LYP) =  -423.091589738     A.U. after    1 cycles

 The electronic state is 1-A.
 Alpha  occ. eigenvalues --  -19.15467 -19.15409 -10.24124 -10.23939 -10.23630
 Alpha  occ. eigenvalues --  -10.20625 -10.18965 -10.17550 -10.16315  -1.08003
 Alpha  occ. eigenvalues --   -1.03712  -0.86704  -0.75157  -0.68156  -0.65524
 Alpha  occ. eigenvalues --   -0.64620  -0.56467  -0.54247  -0.53358  -0.47913
 Alpha  occ. eigenvalues --   -0.46126  -0.43695  -0.41626  -0.40399  -0.39227
 Alpha  occ. eigenvalues --   -0.38123  -0.37765  -0.35994  -0.35137  -0.33908
 Alpha  occ. eigenvalues --   -0.31870  -0.26573  -0.24664  -0.22596
 Alpha virt. eigenvalues --    0.05748   0.06958   0.09894   0.11454   0.12576
 Alpha virt. eigenvalues --    0.13280   0.14973   0.15471   0.16213   0.16580
 Alpha virt. eigenvalues --    0.19245   0.19693   0.19960   0.20984   0.22321

 Mulliken charges:
               1
     1  C   -0.471972
     2  C    0.231324
     3  C   -0.438434
     4  C   -0.205442
     5  C    0.012858
     6  O   -0.241560
     7  C   -0.051690
     8  C    0.285571
     9  O   -0.449184
    10  H    0.102483
    11  H    0.153971
    12  H    0.110210
    13  H    0.116951
    14  H    0.129215
    15  H    0.108926
    16  H    0.095902
    17  H    0.111150
    18  H    0.110545
    19  H    0.289177
 Sum of Mulliken charges =   0.00000

 Dipole moment (field-independent basis, Debye):
    X=             -0.6771    Y=              0.7974    Z=             -0.2491  Tot=              1.0753
 Quadrupole moment (field-independent basis, Debye-Ang):
   XX=            -52.2809   YY=            -57.0033   ZZ=            -48.6352
   XY=              2.3136   XZ=              2.7876   YZ=             -3.5011

  Exact polarizability:  83.099   2.580  71.430   2.040  -2.294  70.066
 Approx polarizability: 110.115  -0.061 108.576   2.871  -5.459 114.163

                      1                      2                      3
                      A                      A                      A
 Frequencies --    124.0389               167.4368               196.2470
 Red. masses --      1.0759                 2.6106                 1.4498
 Frc consts  --      0.0098                 0.0431                 0.0329
 IR Inten    --      0.1061                 1.6094                13.2585

                      4                      5                      6
                      A                      A                      A
 Frequencies --    235.5151               269.7873               284.7350
 Red. masses --      1.6554                 1.9046                 2.3310
 Frc consts  --      0.0541                 0.0817                 0.1113
 IR Inten    --     15.0539                21.8190                13.2785

                      7                      8                      9
                      A                      A                      A
 Frequencies --    315.2895               358.1562               381.4757
 Red. masses --      2.7827                 3.2318                 2.8581
 Frc consts  --      0.1630                 0.2443                 0.2451
 IR Inten    --     57.6502                 0.3286                 2.4287

                     10                     11                     12
                      A                      A                      A
 Frequencies --    402.7732               507.4085               601.2090
 Red. masses --      3.7310                 2.8295                 3.9471
 Frc consts  --      0.3566                 0.4292                 0.8406
 IR Inten    --      2.6538                 0.8317                 5.7182

                     13                     14                     15
                      A                      A                      A
 Frequencies --    627.7665               696.6538               742.1861
 Red. masses --      3.8364                 5.1383                 3.6715
 Frc consts  --      0.8908                 1.4693                 1.1916
 IR Inten    --     12.2708                 2.7656                 0.4131

                     16                     17                     18
                      A                      A                      A
 Frequencies --    816.4163               839.8716               905.0671
 Red. masses --      5.5339                 1.5005                 2.1690
 Frc consts  --      2.1732                 0.6236                 1.0468
 IR Inten    --      2.4420                34.4221                 3.0004

                     19                     20                     21
                      A                      A                      A
 Frequencies --    922.5911               943.2156               958.2167
 Red. masses --      2.2148                 1.9559                 1.8704
 Frc consts  --      1.1107                 1.0252                 1.0118
 IR Inten    --      3.3154                10.6851                 8.4961

                     22                     23                     24
                      A                      A                      A
 Frequencies --    969.7157               986.1083              1022.7646
 Red. masses --      1.9677                 2.8760                 1.3292
 Frc consts  --      1.0902                 1.6477                 0.8192
 IR Inten    --     15.2721                11.8214                 0.5626

                     25                     26                     27
                      A                      A                      A
 Frequencies --   1042.0939              1099.7086              1144.5967
 Red. masses --      1.3263                 2.1456                 1.8507
 Frc consts  --      0.8486                 1.5288                 1.4285
 IR Inten    --      3.1613                11.3839                 5.8143

                     28                     29                     30
                      A                      A                      A
 Frequencies --   1162.6206              1194.3816              1229.6001
 Red. masses --      2.3861                 1.7594                 1.5618
 Frc consts  --      1.9003                 1.4788                 1.3913
 IR Inten    --     46.9034                12.4325                14.0850

                     31                     32                     33
                      A                      A                      A
 Frequencies --   1256.5690              1267.3525              1320.3954
 Red. masses --      1.7508                 1.8804                 1.9682
 Frc consts  --      1.6288                 1.7795                 2.0217
 IR Inten    --      2.6570                81.3633                24.1392

                     34                     35                     36
                      A                      A                      A
 Frequencies --   1369.1082              1398.4762              1414.0677
 Red. masses --      3.5914                 1.3075                 1.3778
 Frc consts  --      3.9663                 1.5066                 1.6232
 IR Inten    --     18.8149                 2.8617                 4.0570

                     37                     38                     39
                      A                      A                      A
 Frequencies --   1446.6470              1482.5985              1489.5294
 Red. masses --      2.5305                 1.0523                 1.0469
 Frc consts  --      3.1202                 1.3628                 1.3685
 IR Inten    --     12.5106                 5.0145                 1.5149

                     40                     41                     42
                      A                      A                      A
 Frequencies --   1509.2623              1517.5068              3023.2757
 Red. masses --      1.1374                 1.0505                 1.0439
 Frc consts  --      1.5265                 1.4253                 5.6217
 IR Inten    --      0.8224                 8.6082                27.2181

                     43                     44                     45
                      A                      A                      A
 Frequencies --   3031.8420              3072.4157              3088.8594
 Red. masses --      1.0391                 1.0993                 1.0996
 Frc consts  --      5.6277                 6.1138                 6.1816
 IR Inten    --     52.2874                19.2239                29.0311

                     46                     47                     48
                      A                      A                      A
 Frequencies --   3132.9225              3178.0219              3189.6794
 Red. masses --      1.0990                 1.0874                 1.0938
 Frc consts  --      6.3552                 6.4706                 6.5564
 IR Inten    --     14.8901                12.0122                13.2830

                     49                     50                     51
                      A                      A                      A
 Frequencies --   3198.3436              3209.9713              3780.1025
 Red. masses --      1.1001                 1.0921                 1.0662
 Frc consts  --      6.6302                 6.6299                 8.9763
 IR Inten    --     18.0987                 2.5708                21.7415

 - Thermochemistry -
 -------------------
 Temperature   298.150 Kelvin.  Pressure   1.00000 Atm.
 Atom     1 has atomic number  6 and mass  12.00000

 Molecular mass:   126.06808 amu.
 Principal axes and moments of inertia in atomic units:
                           1         2         3
     Eigenvalues --   737.730021038.403711387.71405
           X            0.99756   0.06965   0.00538
           Y           -0.06971   0.99748   0.01311
           Z           -0.00446  -0.01346   0.99990
 This molecule is an asymmetric top.
 Rotational symmetry number  1.
 Warning -- assumption of classical behavior for rotation
           may cause significant error
 Rotational temperatures (Kelvin)      0.11741     0.08341     0.06241
 Rotational constants (GHZ):           2.44634     1.73800     1.30051
 Zero-point vibrational energy     409868.1 (Joules/Mol)
                                   97.96082 (Kcal/Mol)
 Warning -- explicit consideration of  12 degrees of freedom as
           vibrations may cause significant error
 Vibrational temperatures:    178.46   240.90   282.36   338.85   388.16
          (Kelvin)            409.67   453.63   515.31   548.86   579.50
                              730.05   865.00   903.21  1002.33  1067.84
                             1174.64  1208.39  1302.19  1327.40  1357.08
                             1378.66  1395.20  1418.79  1471.53  1499.34
                             1582.23  1646.82  1672.75  1718.45  1769.12
                             1807.92  1823.44  1899.75  1969.84  2012.09
                             2034.53  2081.40  2133.13  2143.10  2171.49
                             2183.35  4349.81  4362.14  4420.52  4444.17
                             4507.57  4572.46  4589.23  4601.70  4618.43
                             5438.72

 Zero-point correction=                           0.156111 (Hartree/Particle)
 Thermal correction to Energy=                    0.165002
 Thermal correction to Enthalpy=                  0.165946
 Thermal correction to Gibbs Free Energy=         0.123344
 Sum of electronic and zero-point Energies=           -422.935479
 Sum of electronic and thermal Energies=              -422.926588
 Sum of electronic and thermal Enthalpies=            -422.925643
 Sum of electronic and thermal Free Energies=         -422.968245

                     E (Thermal)             CV                S
                      KCal/Mol        Cal/Mol-Kelvin    Cal/Mol-Kelvin
 Total                  103.540             34.709             89.664
 Electronic               0.000              0.000              0.000
 Translational            0.889              2.981             40.409
 Rotational               0.889              2.981             28.454
 Vibrational            101.763             28.747             20.801
 Vibration     1          0.610              1.929              3.036
 Vibration     2          0.624              1.883              2.464
 Vibration     3          0.636              1.845              2.168
 Vibration     4          0.655              1.786              1.837
 Vibration     5          0.674              1.729              1.598
 Vibration     6          0.683              1.702              1.505
 Vibration     7          0.703              1.644              1.334
 Vibration     8          0.733              1.558              1.130
 Vibration     9          0.751              1.510              1.033
 Vibration    10          0.768              1.464              0.953
 Vibration    11          0.863              1.234              0.640
 Vibration    12          0.959              1.029              0.448

 Optimization completed.
    -- Stationary point found.
 Normal termination of Gaussian 09 at Mon Jan 27 16:37:37 2020.
