 Gaussian 09, Revision D.01,
 Gaussian 09:  ES64L-G09RevD.01 24-Apr-2013

 -----------------------------
 # b3lyp 6-31G(2df,p) opt Freq
 -----------------------------

 -----
 titel
 -----
 Symbolic Z-matrix:
 Charge =  0 Multiplicity = 1

 SCF Done:  E(RB3LYP) =  -423.177410927     A.U. after   14 cycles
 Optimization completed.
    -- Stationary point found.
 Normal termination of Gaussian 09 at Mon Jan 27 17:36:16 2020.

 ----------------------------------------------------------------------
 #N Geom=AllCheck Guess=TCheck SCRF=Check GenChk RB3LYP/6-31G(2df,p) Fr
 eq
 ----------------------------------------------------------------------

 Structure from the checkpoint file:  "/scratch/puck/g09_18c2e8df-e56b-4b0a-acd6-665fc66ff5df/Gau-79624.chk"
 -----
 titel
 -----
 Charge =  0 Multiplicity = 1

                         Standard orientation:
 ---------------------------------------------------------------------
 Center     Atomic      Atomic             Coordinates (Angstroms)
 Number     Number       Type             X           Y           Z
 ---------------------------------------------------------------------
      1          6           0       -2.201878    0.925472   -0.182029
      2          6           0       -1.003279    0.069636    0.109656
      3          8           0       -1.250697   -1.342031    0.245826
      4          6           0       -0.377545   -0.899503   -0.804499
      5          6           0        1.111963   -0.864425   -0.434507
      6          6           0        1.072161   -0.652885    1.083875
      7          6           0        0.175174    0.597289    0.954104
      8          6           0        1.035517    1.404959   -0.049622
      9          8           0        1.592812    0.404389   -0.927154
     10          1           0       -1.905367    1.912057   -0.552270
     11          1           0       -2.842055    0.450805   -0.929541
     12          1           0       -2.794922    1.075589    0.727180
     13          1           0       -0.709322   -1.075419   -1.823204
     14          1           0        1.750176   -1.650780   -0.835766
     15          1           0        0.606356   -1.467116    1.633888
     16          1           0        2.062364   -0.429431    1.485643
     17          1           0       -0.082307    1.133424    1.868433
     18          1           0        0.456609    2.125560   -0.638346
     19          1           0        1.848871    1.943191    0.452744
 ---------------------------------------------------------------------

 SCF Done:  E(RB3LYP) =  -423.177410927     A.U. after    1 cycles

 The electronic state is 1-A.
 Alpha  occ. eigenvalues --  -19.14850 -19.13595 -10.24040 -10.23427 -10.22963
 Alpha  occ. eigenvalues --  -10.22899 -10.19826 -10.18684 -10.18174  -1.07462
 Alpha  occ. eigenvalues --   -1.02835  -0.80717  -0.75747  -0.72927  -0.66669
 Alpha  occ. eigenvalues --   -0.61731  -0.57355  -0.54218  -0.51697  -0.50206
 Alpha  occ. eigenvalues --   -0.46310  -0.44456  -0.43145  -0.41254  -0.40503
 Alpha  occ. eigenvalues --   -0.38061  -0.37923  -0.36368  -0.35464  -0.34274
 Alpha  occ. eigenvalues --   -0.31063  -0.29507  -0.26145  -0.24389
 Alpha virt. eigenvalues --    0.08603   0.09448   0.10684   0.11828   0.12409
 Alpha virt. eigenvalues --    0.13977   0.14752   0.15119   0.15786   0.16852
 Alpha virt. eigenvalues --    0.18334   0.18933   0.19539   0.21287   0.21739

 Mulliken charges:
               1
     1  C   -0.489911
     2  C    0.439169
     3  O   -0.306993
     4  C   -0.028627
     5  C    0.060466
     6  C   -0.233865
     7  C   -0.145383
     8  C   -0.075145
     9  O   -0.281715
    10  H    0.125506
    11  H    0.132613
    12  H    0.128496
    13  H    0.099211
    14  H    0.077055
    15  H    0.125367
    16  H    0.101410
    17  H    0.069790
    18  H    0.101743
    19  H    0.100811
 Sum of Mulliken charges =   0.00000

 Dipole moment (field-independent basis, Debye):
    X=             -0.2115    Y=              1.1901    Z=              0.4922  Tot=              1.3051
 Quadrupole moment (field-independent basis, Debye-Ang):
   XX=            -55.1227   YY=            -52.5603   ZZ=            -52.6488
   XY=             -3.9075   XZ=              3.4394   YZ=              2.6660

  Exact polarizability:  77.412  -2.698  74.138   1.675   3.229  66.862
 Approx polarizability: 107.441   0.296 113.672  -4.090   3.914 104.255

                      1                      2                      3
                      A                      A                      A
 Frequencies --    175.1344               200.2812               267.1693
 Red. masses --      1.4141                 1.7805                 2.4732
 Frc consts  --      0.0256                 0.0421                 0.1040
 IR Inten    --      0.5070                 1.7186                 0.3006

                      4                      5                      6
                      A                      A                      A
 Frequencies --    325.6068               389.7500               460.5424
 Red. masses --      2.4863                 4.1644                 3.1086
 Frc consts  --      0.1553                 0.3727                 0.3885
 IR Inten    --      2.7408                12.1335                 5.2862

                      7                      8                      9
                      A                      A                      A
 Frequencies --    477.9103               543.9851               562.8845
 Red. masses --      2.5524                 5.0356                 3.8772
 Frc consts  --      0.3435                 0.8780                 0.7238
 IR Inten    --      2.0264                 5.0134                 0.9955

                     10                     11                     12
                      A                      A                      A
 Frequencies --    659.4974               801.4645               825.7148
 Red. masses --      4.0592                 4.3597                 4.1898
 Frc consts  --      1.0402                 1.6500                 1.6831
 IR Inten    --      1.1728                 4.1130                 9.5014

                     13                     14                     15
                      A                      A                      A
 Frequencies --    849.7126               875.5061               899.6604
 Red. masses --      3.2514                 2.3324                 3.6101
 Frc consts  --      1.3832                 1.0534                 1.7216
 IR Inten    --     15.5733                 1.5999                31.9904

                     16                     17                     18
                      A                      A                      A
 Frequencies --    907.6422               930.6664               950.8255
 Red. masses --      2.7431                 1.8421                 3.2695
 Frc consts  --      1.3314                 0.9401                 1.7415
 IR Inten    --      7.1343                15.1936                 8.0624

                     19                     20                     21
                      A                      A                      A
 Frequencies --    959.3682               989.1975              1019.9186
 Red. masses --      2.1321                 1.4322                 1.9777
 Frc consts  --      1.1562                 0.8257                 1.2121
 IR Inten    --      4.5820                 3.0082                13.5395

                     22                     23                     24
                      A                      A                      A
 Frequencies --   1034.2010              1058.2358              1068.8308
 Red. masses --      1.6976                 3.7567                 1.5905
 Frc consts  --      1.0698                 2.4787                 1.0705
 IR Inten    --      7.2773                39.6744                 8.5741

                     25                     26                     27
                      A                      A                      A
 Frequencies --   1114.3603              1145.2305              1176.4050
 Red. masses --      1.8145                 1.1706                 1.4838
 Frc consts  --      1.3276                 0.9046                 1.2099
 IR Inten    --     10.5150                 2.5125                 1.9586

                     28                     29                     30
                      A                      A                      A
 Frequencies --   1209.4566              1228.4120              1267.1128
 Red. masses --      1.4291                 1.9721                 1.4389
 Frc consts  --      1.2317                 1.7534                 1.3612
 IR Inten    --     11.6935                 3.1568                 7.7783

                     31                     32                     33
                      A                      A                      A
 Frequencies --   1288.2043              1297.1607              1306.1643
 Red. masses --      1.3243                 1.8052                 1.8083
 Frc consts  --      1.2948                 1.7896                 1.8176
 IR Inten    --      0.4122                 0.9240                 6.6393

                     34                     35                     36
                      A                      A                      A
 Frequencies --   1327.4831              1372.6954              1411.3549
 Red. masses --      1.5970                 1.3768                 1.2885
 Frc consts  --      1.6581                 1.5285                 1.5122
 IR Inten    --     10.2824                 0.7096                 3.2046

                     37                     38                     39
                      A                      A                      A
 Frequencies --   1449.4316              1478.9460              1486.8374
 Red. masses --      2.7015                 1.1061                 1.1151
 Frc consts  --      3.3439                 1.4254                 1.4524
 IR Inten    --     15.4741                 9.0467                 6.3028

                     40                     41                     42
                      A                      A                      A
 Frequencies --   1497.4712              1527.0037              3020.0672
 Red. masses --      1.1794                 1.0905                 1.0578
 Frc consts  --      1.5582                 1.4982                 5.6846
 IR Inten    --      0.2052                 0.9122                58.0346

                     43                     44                     45
                      A                      A                      A
 Frequencies --   3036.3657              3059.8433              3090.5518
 Red. masses --      1.0375                 1.1072                 1.0640
 Frc consts  --      5.6359                 6.1074                 5.9880
 IR Inten    --     20.4243                40.9458                18.4319

                     46                     47                     48
                      A                      A                      A
 Frequencies --   3097.4692              3110.0037              3124.1475
 Red. masses --      1.0992                 1.0875                 1.1010
 Frc consts  --      6.2133                 6.1971                 6.3312
 IR Inten    --     17.8402                35.9775                14.8825

                     49                     50                     51
                      A                      A                      A
 Frequencies --   3128.8225              3165.8540              3168.2770
 Red. masses --      1.0899                 1.0927                 1.1031
 Frc consts  --      6.2865                 6.4528                 6.5239
 IR Inten    --     29.1752                18.0757                 6.5493

 - Thermochemistry -
 -------------------
 Temperature   298.150 Kelvin.  Pressure   1.00000 Atm.
 Atom     1 has atomic number  6 and mass  12.00000

 Molecular mass:   126.06808 amu.
 Principal axes and moments of inertia in atomic units:
                           1         2         3
     Eigenvalues --   638.20110 988.053901162.82938
           X            0.99631  -0.07637   0.03910
           Y            0.07563   0.99693   0.02010
           Z           -0.04051  -0.01707   0.99903
 This molecule is an asymmetric top.
 Rotational symmetry number  1.
 Warning -- assumption of classical behavior for rotation
           may cause significant error
 Rotational temperatures (Kelvin)      0.13572     0.08766     0.07449
 Rotational constants (GHZ):           2.82786     1.82656     1.55203
 Zero-point vibrational energy     423590.7 (Joules/Mol)
                                  101.24061 (Kcal/Mol)
 Warning -- explicit consideration of   9 degrees of freedom as
           vibrations may cause significant error
 Vibrational temperatures:    251.98   288.16   384.40   468.47   560.76
          (Kelvin)            662.62   687.61   782.67   809.86   948.87
                             1153.13  1188.02  1222.55  1259.66  1294.41
                             1305.89  1339.02  1368.02  1380.32  1423.23
                             1467.43  1487.98  1522.56  1537.81  1603.31
                             1647.73  1692.58  1740.14  1767.41  1823.09
                             1853.44  1866.32  1879.28  1909.95  1975.00
                             2030.62  2085.41  2127.87  2139.22  2154.52
                             2197.01  4345.20  4368.65  4402.43  4446.61
                             4456.56  4474.60  4494.95  4501.67  4554.95
                             4558.44

 Zero-point correction=                           0.161337 (Hartree/Particle)
 Thermal correction to Energy=                    0.168374
 Thermal correction to Enthalpy=                  0.169318
 Thermal correction to Gibbs Free Energy=         0.130340
 Sum of electronic and zero-point Energies=           -423.016074
 Sum of electronic and thermal Energies=              -423.009037
 Sum of electronic and thermal Enthalpies=            -423.008093
 Sum of electronic and thermal Free Energies=         -423.047071

                     E (Thermal)             CV                S
                      KCal/Mol        Cal/Mol-Kelvin    Cal/Mol-Kelvin
 Total                  105.656             29.195             82.036
 Electronic               0.000              0.000              0.000
 Translational            0.889              2.981             40.409
 Rotational               0.889              2.981             28.085
 Vibrational            103.879             23.234             13.543
 Vibration     1          0.627              1.873              2.380
 Vibration     2          0.638              1.839              2.131
 Vibration     3          0.672              1.733              1.614
 Vibration     4          0.710              1.624              1.282
 Vibration     5          0.758              1.492              1.001
 Vibration     6          0.818              1.338              0.765
 Vibration     7          0.834              1.299              0.716
 Vibration     8          0.899              1.153              0.557
 Vibration     9          0.919              1.112              0.518

 Optimization completed.
    -- Stationary point found.
 Normal termination of Gaussian 09 at Mon Jan 27 18:31:07 2020.
