 Gaussian 09, Revision D.01,
 Gaussian 09:  ES64L-G09RevD.01 24-Apr-2013

 -----------------------------
 # b3lyp 6-31G(2df,p) opt Freq
 -----------------------------

 -----
 titel
 -----
 Symbolic Z-matrix:
 Charge =  0 Multiplicity = 1

 SCF Done:  E(RB3LYP) =  -423.162748541     A.U. after   14 cycles
 SCF Done:  E(RB3LYP) =  -423.162748614     A.U. after    8 cycles
 SCF Done:  E(RB3LYP) =  -423.162749214     A.U. after    7 cycles
 SCF Done:  E(RB3LYP) =  -423.162749584     A.U. after    8 cycles
 SCF Done:  E(RB3LYP) =  -423.162749861     A.U. after    8 cycles
 SCF Done:  E(RB3LYP) =  -423.162750124     A.U. after    7 cycles
 SCF Done:  E(RB3LYP) =  -423.162750308     A.U. after    7 cycles
 Optimization completed.
    -- Stationary point found.
 Normal termination of Gaussian 09 at Mon Jan 27 14:25:49 2020.

 ----------------------------------------------------------------------
 #N Geom=AllCheck Guess=TCheck SCRF=Check GenChk RB3LYP/6-31G(2df,p) Fr
 eq
 ----------------------------------------------------------------------

 Structure from the checkpoint file:  "/scratch/puck/g09_26aac75e-e399-48b3-8bf7-2751527b8b42/Gau-40328.chk"
 -----
 titel
 -----
 Charge =  0 Multiplicity = 1

                         Standard orientation:
 ---------------------------------------------------------------------
 Center     Atomic      Atomic             Coordinates (Angstroms)
 Number     Number       Type             X           Y           Z
 ---------------------------------------------------------------------
      1          6           0       -3.854611    0.059611   -0.326973
      2          6           0       -2.441272    0.003586    0.015496
      3          6           0       -1.273565   -0.054088    0.304094
      4          6           0        0.141972   -0.100294    0.649449
      5          8           0        0.680386   -1.430168    0.599003
      6          6           0        1.693621   -1.427200   -0.387090
      7          8           0        2.196526   -0.120443   -0.449018
      8          6           0        1.045651    0.707766   -0.335802
      9          6           0        1.438946    2.090729    0.141498
     10          1           0       -4.021679    0.630037   -1.247178
     11          1           0       -4.259209   -0.946541   -0.482285
     12          1           0       -4.438962    0.532140    0.470052
     13          1           0        0.285354    0.269579    1.673549
     14          1           0        2.494464   -2.108332   -0.085655
     15          1           0        1.277565   -1.734302   -1.364034
     16          1           0        0.533813    0.765458   -1.308624
     17          1           0        1.957871    2.029957    1.102699
     18          1           0        2.102937    2.571308   -0.581722
     19          1           0        0.548099    2.714923    0.259289
 ---------------------------------------------------------------------

 SCF Done:  E(RB3LYP) =  -423.162750308     A.U. after    1 cycles

 The electronic state is 1-A.
 Alpha  occ. eigenvalues --  -19.14916 -19.14261 -10.27196 -10.25318 -10.24170
 Alpha  occ. eigenvalues --  -10.20718 -10.18321 -10.18106 -10.17015  -1.08875
 Alpha  occ. eigenvalues --   -0.99418  -0.80405  -0.77352  -0.72330  -0.68268
 Alpha  occ. eigenvalues --   -0.63555  -0.60573  -0.52436  -0.50593  -0.48023
 Alpha  occ. eigenvalues --   -0.47500  -0.44925  -0.43133  -0.42959  -0.41968
 Alpha  occ. eigenvalues --   -0.41381  -0.38171  -0.38105  -0.34928  -0.32957
 Alpha  occ. eigenvalues --   -0.27946  -0.26525  -0.25833  -0.24621
 Alpha virt. eigenvalues --    0.03658   0.05378   0.10350   0.10803   0.12242
 Alpha virt. eigenvalues --    0.13040   0.13481   0.15407   0.16163   0.16685
 Alpha virt. eigenvalues --    0.17709   0.17890   0.18747   0.20213   0.21184

 Mulliken charges:
               1
     1  C   -0.498351
     2  C    0.045076
     3  C    0.101875
     4  C   -0.085723
     5  O   -0.256990
     6  C    0.017824
     7  O   -0.247365
     8  C    0.106953
     9  C   -0.416722
    10  H    0.149087
    11  H    0.154884
    12  H    0.150814
    13  H    0.103179
    14  H    0.119003
    15  H    0.085889
    16  H    0.081337
    17  H    0.128939
    18  H    0.131325
    19  H    0.128965
 Sum of Mulliken charges =   0.00000

 Dipole moment (field-independent basis, Debye):
    X=             -1.3629    Y=              1.1113    Z=             -0.6969  Tot=              1.8916
 Quadrupole moment (field-independent basis, Debye-Ang):
   XX=            -47.9149   YY=            -52.2856   ZZ=            -52.8721
   XY=             -1.2628   XZ=              1.5195   YZ=              2.0211

  Exact polarizability: 108.126  -3.635  71.882   4.563   1.953  61.717
 Approx polarizability: 149.790  -6.435  97.123  10.588   0.238  93.343

                      1                      2                      3
                      A                      A                      A
 Frequencies --     16.4338                37.7974                90.8349
 Red. masses --      1.0208                 3.6306                 3.9492
 Frc consts  --      0.0002                 0.0031                 0.0192
 IR Inten    --      0.0281                 0.3721                 0.9215

                      4                      5                      6
                      A                      A                      A
 Frequencies --    138.2901               216.7059               230.8611
 Red. masses --      4.2881                 1.3586                 1.7499
 Frc consts  --      0.0483                 0.0376                 0.0550
 IR Inten    --      2.1604                 2.0732                 1.3353

                      7                      8                      9
                      A                      A                      A
 Frequencies --    262.8994               309.9676               338.5308
 Red. masses --      2.6033                 3.3115                 3.8183
 Frc consts  --      0.1060                 0.1875                 0.2578
 IR Inten    --      3.5233                 6.6149                 2.7013

                     10                     11                     12
                      A                      A                      A
 Frequencies --    443.5976               475.1092               514.3194
 Red. masses --      3.9944                 4.4698                 5.4876
 Frc consts  --      0.4631                 0.5945                 0.8553
 IR Inten    --      3.4389                 2.6429                 1.6111

                     13                     14                     15
                      A                      A                      A
 Frequencies --    636.0010               739.2730               817.5388
 Red. masses --      5.6975                 7.9828                 3.4145
 Frc consts  --      1.3579                 2.5705                 1.3446
 IR Inten    --      6.0619                 0.5999                14.0817

                     16                     17                     18
                      A                      A                      A
 Frequencies --    880.8029               905.7790               965.8516
 Red. masses --      2.1772                 2.1778                 4.5917
 Frc consts  --      0.9952                 1.0527                 2.5238
 IR Inten    --     11.1089                 2.1993                41.3573

                     19                     20                     21
                      A                      A                      A
 Frequencies --   1014.0352              1050.9745              1054.0363
 Red. masses --      7.0388                 1.4104                 1.3971
 Frc consts  --      4.2644                 0.9179                 0.9145
 IR Inten    --    123.1040                 0.8630                 0.5868

                     22                     23                     24
                      A                      A                      A
 Frequencies --   1099.4028              1115.8085              1123.9080
 Red. masses --      2.7499                 3.3324                 1.8731
 Frc consts  --      1.9583                 2.4445                 1.3940
 IR Inten    --     23.2374               130.4728                 6.9298

                     25                     26                     27
                      A                      A                      A
 Frequencies --   1141.2440              1179.3089              1192.6486
 Red. masses --      2.5048                 3.1989                 1.7906
 Frc consts  --      1.9221                 2.6212                 1.5006
 IR Inten    --     37.9431                36.4833                38.8762

                     28                     29                     30
                      A                      A                      A
 Frequencies --   1241.6800              1284.7973              1343.5242
 Red. masses --      1.2320                 1.4044                 1.1578
 Frc consts  --      1.1191                 1.3658                 1.2313
 IR Inten    --     15.8437                15.8550                 7.2534

                     31                     32                     33
                      A                      A                      A
 Frequencies --   1367.6012              1394.4873              1413.6875
 Red. masses --      1.2736                 1.3340                 1.2946
 Frc consts  --      1.4035                 1.5283                 1.5243
 IR Inten    --     22.3334                 5.1362                11.1623

                     34                     35                     36
                      A                      A                      A
 Frequencies --   1414.2208              1428.1072              1476.4217
 Red. masses --      1.3316                 1.2844                 1.0393
 Frc consts  --      1.5692                 1.5434                 1.3348
 IR Inten    --      9.7924                 7.6249                 6.2115

                     37                     38                     39
                      A                      A                      A
 Frequencies --   1478.1388              1485.0092              1498.0886
 Red. masses --      1.0400                 1.0483                 1.0512
 Frc consts  --      1.3388                 1.3621                 1.3900
 IR Inten    --      5.4431                 2.9357                 2.9110

                     40                     41                     42
                      A                      A                      A
 Frequencies --   1541.2404              2370.0865              2936.7011
 Red. masses --      1.1080                11.8686                 1.0704
 Frc consts  --      1.5507                39.2805                 5.4389
 IR Inten    --      5.1672                14.3940                98.0151

                     43                     44                     45
                      A                      A                      A
 Frequencies --   2986.2450              3012.9265              3028.7510
 Red. masses --      1.0827                 1.0837                 1.0347
 Frc consts  --      5.6885                 5.7963                 5.5924
 IR Inten    --     23.8292                39.9543                28.9642

                     46                     47                     48
                      A                      A                      A
 Frequencies --   3044.7428              3088.4723              3090.1290
 Red. masses --      1.0348                 1.0944                 1.1004
 Frc consts  --      5.6522                 6.1503                 6.1909
 IR Inten    --     14.5815                48.6920                 9.6250

                     49                     50                     51
                      A                      A                      A
 Frequencies --   3091.4219              3120.7478              3124.2477
 Red. masses --      1.1000                 1.1019                 1.1021
 Frc consts  --      6.1938                 6.3228                 6.3383
 IR Inten    --      7.9148                17.1331                17.9359

 - Thermochemistry -
 -------------------
 Temperature   298.150 Kelvin.  Pressure   1.00000 Atm.
 Atom     1 has atomic number  6 and mass  12.00000

 Molecular mass:   126.06808 amu.
 Principal axes and moments of inertia in atomic units:
                           1         2         3
     Eigenvalues --   620.354201883.905972291.74200
           X            0.99993   0.00775   0.00849
           Y           -0.00800   0.99955   0.02890
           Z           -0.00826  -0.02896   0.99955
 This molecule is an asymmetric top.
 Rotational symmetry number  1.
 Warning -- assumption of classical behavior for rotation
           may cause significant error
 Rotational temperatures (Kelvin)      0.13962     0.04598     0.03779
 Rotational constants (GHZ):           2.90921     0.95798     0.78750
 Zero-point vibrational energy     414227.5 (Joules/Mol)
                                   99.00276 (Kcal/Mol)
 Warning -- explicit consideration of  12 degrees of freedom as
           vibrations may cause significant error
 Vibrational temperatures:     23.64    54.38   130.69   198.97   311.79
          (Kelvin)            332.16   378.25   445.97   487.07   638.24
                              683.58   739.99   915.06  1063.65  1176.25
                             1267.28  1303.21  1389.64  1458.97  1512.12
                             1516.52  1581.79  1605.40  1617.05  1641.99
                             1696.76  1715.95  1786.50  1848.53  1933.03
                             1967.67  2006.35  2033.98  2034.75  2054.73
                             2124.24  2126.71  2136.59  2155.41  2217.50
                             3410.02  4225.25  4296.54  4334.92  4357.69
                             4380.70  4443.62  4446.00  4447.86  4490.05
                             4495.09

 Zero-point correction=                           0.157771 (Hartree/Particle)
 Thermal correction to Energy=                    0.167599
 Thermal correction to Enthalpy=                  0.168543
 Thermal correction to Gibbs Free Energy=         0.120590
 Sum of electronic and zero-point Energies=           -423.004979
 Sum of electronic and thermal Energies=              -422.995151
 Sum of electronic and thermal Enthalpies=            -422.994207
 Sum of electronic and thermal Free Energies=         -423.042161

                     E (Thermal)             CV                S
                      KCal/Mol        Cal/Mol-Kelvin    Cal/Mol-Kelvin
 Total                  105.170             33.936            100.927
 Electronic               0.000              0.000              0.000
 Translational            0.889              2.981             40.409
 Rotational               0.889              2.981             29.373
 Vibrational            103.393             27.974             31.146
 Vibration     1          0.593              1.986              7.024
 Vibration     2          0.594              1.982              5.371
 Vibration     3          0.602              1.956              3.642
 Vibration     4          0.614              1.915              2.827
 Vibration     5          0.646              1.816              1.986
 Vibration     6          0.653              1.794              1.872
 Vibration     7          0.670              1.741              1.642
 Vibration     8          0.699              1.655              1.363
 Vibration     9          0.719              1.599              1.219
 Vibration    10          0.803              1.375              0.815
 Vibration    11          0.832              1.305              0.723
 Vibration    12          0.869              1.218              0.623

 Normal termination of Gaussian 09 at Mon Jan 27 15:01:43 2020.
