 Gaussian 09, Revision D.01,
 Gaussian 09:  ES64L-G09RevD.01 24-Apr-2013

 -----------------------------
 # b3lyp 6-31G(2df,p) opt Freq
 -----------------------------

 -----
 titel
 -----
 Symbolic Z-matrix:
 Charge =  0 Multiplicity = 1

 SCF Done:  E(RB3LYP) =  -423.149670554     A.U. after   14 cycles
 Optimization completed.
    -- Stationary point found.
 Normal termination of Gaussian 09 at Mon Jan 27 15:36:56 2020.

 ----------------------------------------------------------------------
 #N Geom=AllCheck Guess=TCheck SCRF=Check GenChk RB3LYP/6-31G(2df,p) Fr
 eq
 ----------------------------------------------------------------------

 Structure from the checkpoint file:  "/scratch/puck/g09_65553fce-589b-4c9e-b898-be313f24ec86/Gau-164828.chk"
 -----
 titel
 -----
 Charge =  0 Multiplicity = 1

                         Standard orientation:
 ---------------------------------------------------------------------
 Center     Atomic      Atomic             Coordinates (Angstroms)
 Number     Number       Type             X           Y           Z
 ---------------------------------------------------------------------
      1          6           0        1.423529    1.708707   -0.467421
      2          6           0        0.956869    0.463333    0.315997
      3          6           0        1.697450   -0.763896   -0.193280
      4          8           0        2.579869   -1.323118    0.405510
      5          6           0       -0.527628    0.274627    0.170619
      6          6           0       -1.602009    0.803649    1.070291
      7          6           0       -1.554973   -0.679514    0.748628
      8          6           0       -1.991396   -0.880210   -0.695609
      9          8           0       -1.040049    0.118535   -1.164448
     10          1           0        0.910143    2.600488   -0.096866
     11          1           0        2.501128    1.854474   -0.354729
     12          1           0        1.192520    1.604035   -1.531308
     13          1           0        1.203954    0.574582    1.376587
     14          1           0        1.365131   -1.110540   -1.196950
     15          1           0       -1.290583    1.054720    2.079514
     16          1           0       -2.384945    1.433514    0.655623
     17          1           0       -1.462362   -1.447758    1.504066
     18          1           0       -1.741086   -1.866306   -1.101855
     19          1           0       -3.023518   -0.620716   -0.957921
 ---------------------------------------------------------------------

 SCF Done:  E(RB3LYP) =  -423.149670555     A.U. after    1 cycles

 The electronic state is 1-A.
 Alpha  occ. eigenvalues --  -19.14651 -19.13817 -10.26738 -10.25368 -10.24262
 Alpha  occ. eigenvalues --  -10.20585 -10.20440 -10.19780 -10.18940  -1.05944
 Alpha  occ. eigenvalues --   -1.04459  -0.84423  -0.80003  -0.70268  -0.66648
 Alpha  occ. eigenvalues --   -0.60401  -0.58487  -0.53832  -0.52314  -0.49114
 Alpha  occ. eigenvalues --   -0.46723  -0.44935  -0.44198  -0.42366  -0.41010
 Alpha  occ. eigenvalues --   -0.39890  -0.38360  -0.37069  -0.36159  -0.34830
 Alpha  occ. eigenvalues --   -0.32737  -0.28004  -0.26193  -0.23199
 Alpha virt. eigenvalues --   -0.02104   0.06995   0.09660   0.10884   0.11378
 Alpha virt. eigenvalues --    0.11945   0.13622   0.14294   0.15384   0.16579
 Alpha virt. eigenvalues --    0.16779   0.17164   0.18568   0.19394   0.20014

 Mulliken charges:
               1
     1  C   -0.410306
     2  C   -0.180024
     3  C    0.157754
     4  O   -0.255576
     5  C    0.483155
     6  C   -0.343648
     7  C   -0.199912
     8  C   -0.089279
     9  O   -0.328851
    10  H    0.129829
    11  H    0.129716
    12  H    0.144679
    13  H    0.099341
    14  H    0.090947
    15  H    0.119922
    16  H    0.117996
    17  H    0.110752
    18  H    0.114131
    19  H    0.109376
 Sum of Mulliken charges =   0.00000

 Dipole moment (field-independent basis, Debye):
    X=             -2.1679    Y=              0.9169    Z=              0.4972  Tot=              2.4057
 Quadrupole moment (field-independent basis, Debye-Ang):
   XX=            -57.8742   YY=            -53.1196   ZZ=            -53.5431
   XY=              6.4610   XZ=             -2.8215   YZ=              2.3677

  Exact polarizability:  83.923   0.354  75.101   1.768   3.316  69.247
 Approx polarizability: 114.498  -3.279 109.732   5.242   0.869 108.129

                      1                      2                      3
                      A                      A                      A
 Frequencies --     56.3731                64.0934               146.3205
 Red. masses --      4.9643                 3.7243                 2.8614
 Frc consts  --      0.0093                 0.0090                 0.0361
 IR Inten    --      4.1451                 3.8804                 1.3313

                      4                      5                      6
                      A                      A                      A
 Frequencies --    183.1833               216.8249               284.6569
 Red. masses --      3.0499                 1.0787                 2.2343
 Frc consts  --      0.0603                 0.0299                 0.1067
 IR Inten    --      2.6594                 0.3349                 2.1347

                      7                      8                      9
                      A                      A                      A
 Frequencies --    305.4620               397.7296               420.9479
 Red. masses --      2.9838                 2.6308                 2.9375
 Frc consts  --      0.1640                 0.2452                 0.3067
 IR Inten    --      6.2111                 3.1756                 0.2499

                     10                     11                     12
                      A                      A                      A
 Frequencies --    447.6175               506.3091               711.0021
 Red. masses --      3.1649                 3.6184                 2.7709
 Frc consts  --      0.3736                 0.5465                 0.8253
 IR Inten    --      9.8517                 1.2065                 1.2101

                     13                     14                     15
                      A                      A                      A
 Frequencies --    763.9369               850.6506               864.3751
 Red. masses --      3.0483                 1.8791                 1.8445
 Frc consts  --      1.0481                 0.8011                 0.8120
 IR Inten    --      3.5514                 1.9479                22.5568

                     16                     17                     18
                      A                      A                      A
 Frequencies --    902.7549               942.9221               955.8109
 Red. masses --      1.7211                 2.4092                 1.9032
 Frc consts  --      0.8264                 1.2620                 1.0244
 IR Inten    --     19.5025                 3.3080                 3.1205

                     19                     20                     21
                      A                      A                      A
 Frequencies --    973.1757               979.6872               996.3709
 Red. masses --      3.4747                 3.1452                 1.3984
 Frc consts  --      1.9389                 1.7786                 0.8179
 IR Inten    --     74.9550                 6.3173                 0.1819

                     22                     23                     24
                      A                      A                      A
 Frequencies --   1016.0930              1040.6871              1073.5722
 Red. masses --      1.7500                 1.6546                 1.5251
 Frc consts  --      1.0645                 1.0558                 1.0357
 IR Inten    --     22.8371                 8.8491                 3.8297

                     25                     26                     27
                      A                      A                      A
 Frequencies --   1103.0250              1127.2826              1156.0107
 Red. masses --      2.4368                 1.8835                 1.8014
 Frc consts  --      1.7468                 1.4102                 1.4184
 IR Inten    --      9.8985                 6.9507                 7.6124

                     28                     29                     30
                      A                      A                      A
 Frequencies --   1165.1121              1191.6897              1267.3170
 Red. masses --      1.3701                 2.0091                 1.9142
 Frc consts  --      1.0958                 1.6810                 1.8114
 IR Inten    --      9.0732                14.1165                 9.8934

                     31                     32                     33
                      A                      A                      A
 Frequencies --   1279.9125              1305.8214              1341.2583
 Red. masses --      1.5061                 1.4301                 1.5582
 Frc consts  --      1.4536                 1.4367                 1.6516
 IR Inten    --      1.3620                 4.1922                 6.6456

                     34                     35                     36
                      A                      A                      A
 Frequencies --   1392.8538              1410.2081              1423.4666
 Red. masses --      1.3068                 1.4894                 1.3002
 Frc consts  --      1.4937                 1.7451                 1.5522
 IR Inten    --      1.4846                 5.6024                 4.0416

                     37                     38                     39
                      A                      A                      A
 Frequencies --   1481.8155              1494.9090              1502.3689
 Red. masses --      1.4925                 1.0578                 1.1059
 Frc consts  --      1.9308                 1.3928                 1.4707
 IR Inten    --      8.3833                 4.7350                 6.7832

                     40                     41                     42
                      A                      A                      A
 Frequencies --   1519.9831              1832.9657              2892.1856
 Red. masses --      1.1365                10.0886                 1.0829
 Frc consts  --      1.5471                19.9705                 5.3369
 IR Inten    --      0.3527               175.5791                71.2775

                     43                     44                     45
                      A                      A                      A
 Frequencies --   3028.0171              3044.4140              3068.2241
 Red. masses --      1.0549                 1.0335                 1.0844
 Frc consts  --      5.6988                 5.6436                 6.0150
 IR Inten    --     73.8655                17.0248                 7.0589

                     46                     47                     48
                      A                      A                      A
 Frequencies --   3078.3153              3112.0778              3119.7328
 Red. masses --      1.1116                 1.0548                 1.1022
 Frc consts  --      6.2063                 6.0190                 6.3203
 IR Inten    --     33.0025                 9.3560                15.1613

                     49                     50                     51
                      A                      A                      A
 Frequencies --   3125.3280              3202.7820              3210.4706
 Red. masses --      1.1026                 1.1055                 1.1043
 Frc consts  --      6.3457                 6.6812                 6.7062
 IR Inten    --     15.3180                 3.3936                 9.7441

 - Thermochemistry -
 -------------------
 Temperature   298.150 Kelvin.  Pressure   1.00000 Atm.
 Atom     1 has atomic number  6 and mass  12.00000

 Molecular mass:   126.06808 amu.
 Principal axes and moments of inertia in atomic units:
                           1         2         3
     Eigenvalues --   676.994101459.687221635.88890
           X            0.99873   0.04820  -0.01459
           Y           -0.04752   0.99789   0.04417
           Z            0.01669  -0.04342   0.99892
 This molecule is an asymmetric top.
 Rotational symmetry number  1.
 Warning -- assumption of classical behavior for rotation
           may cause significant error
 Rotational temperatures (Kelvin)      0.12794     0.05934     0.05295
 Rotational constants (GHZ):           2.66582     1.23639     1.10322
 Zero-point vibrational energy     412580.7 (Joules/Mol)
                                   98.60915 (Kcal/Mol)
 Warning -- explicit consideration of  11 degrees of freedom as
           vibrations may cause significant error
 Vibrational temperatures:     81.11    92.22   210.52   263.56   311.96
          (Kelvin)            409.56   439.49   572.24   605.65   644.02
                              728.46  1022.97  1099.13  1223.89  1243.64
                             1298.86  1356.65  1375.20  1400.18  1409.55
                             1433.55  1461.93  1497.31  1544.63  1587.00
                             1621.91  1663.24  1676.33  1714.57  1823.38
                             1841.51  1878.78  1929.77  2004.00  2028.97
                             2048.05  2132.00  2150.84  2161.57  2186.91
                             2637.23  4161.20  4356.64  4380.23  4414.48
                             4429.00  4477.58  4488.59  4496.64  4608.08
                             4619.15

 Zero-point correction=                           0.157144 (Hartree/Particle)
 Thermal correction to Energy=                    0.166186
 Thermal correction to Enthalpy=                  0.167130
 Thermal correction to Gibbs Free Energy=         0.122647
 Sum of electronic and zero-point Energies=           -422.992527
 Sum of electronic and thermal Energies=              -422.983485
 Sum of electronic and thermal Enthalpies=            -422.982541
 Sum of electronic and thermal Free Energies=         -423.027024

                     E (Thermal)             CV                S
                      KCal/Mol        Cal/Mol-Kelvin    Cal/Mol-Kelvin
 Total                  104.283             32.996             93.623
 Electronic               0.000              0.000              0.000
 Translational            0.889              2.981             40.409
 Rotational               0.889              2.981             28.871
 Vibrational            102.506             27.035             24.343
 Vibration     1          0.596              1.975              4.580
 Vibration     2          0.597              1.971              4.327
 Vibration     3          0.617              1.907              2.720
 Vibration     4          0.631              1.863              2.296
 Vibration     5          0.646              1.815              1.985
 Vibration     6          0.683              1.702              1.506
 Vibration     7          0.696              1.663              1.387
 Vibration     8          0.764              1.475              0.971
 Vibration     9          0.783              1.425              0.889
 Vibration    10          0.807              1.366              0.803
 Vibration    11          0.862              1.236              0.643

 Optimization completed.
    -- Stationary point found.
 Normal termination of Gaussian 09 at Mon Jan 27 16:21:50 2020.
