 Gaussian 09, Revision D.01,
 Gaussian 09:  ES64L-G09RevD.01 24-Apr-2013

 -----------------------------
 # b3lyp 6-31G(2df,p) opt Freq
 -----------------------------

 -----
 titel
 -----
 Symbolic Z-matrix:
 Charge =  0 Multiplicity = 1

 SCF Done:  E(RB3LYP) =  -423.152449956     A.U. after   12 cycles
 Optimization completed.
    -- Stationary point found.
 Normal termination of Gaussian 09 at Mon Jan 27 22:05:37 2020.

 ----------------------------------------------------------------------
 #N Geom=AllCheck Guess=TCheck SCRF=Check GenChk RB3LYP/6-31G(2df,p) Fr
 eq
 ----------------------------------------------------------------------

 Structure from the checkpoint file:  "/scratch/puck/g09_98b8313b-f908-4e28-875d-4c9cacfdede3/Gau-111374.chk"
 -----
 titel
 -----
 Charge =  0 Multiplicity = 1

                         Standard orientation:
 ---------------------------------------------------------------------
 Center     Atomic      Atomic             Coordinates (Angstroms)
 Number     Number       Type             X           Y           Z
 ---------------------------------------------------------------------
      1          6           0        2.367362   -0.609403    0.173355
      2          6           0        1.109831   -0.015594   -0.465055
      3          6           0        0.011857   -1.059189   -0.639612
      4          8           0       -1.188084   -0.375667   -1.164807
      5          6           0       -1.729702   -0.364308    0.163224
      6          6           0       -0.657973   -1.223980    0.743866
      7          6           0       -0.726962    0.247109    1.119527
      8          6           0        0.396748    1.043738    0.440841
      9          8           0       -0.082092    2.163338   -0.282442
     10          1           0        2.804808   -1.392291   -0.455300
     11          1           0        3.126938    0.163920    0.323348
     12          1           0        2.144775   -1.051071    1.151404
     13          1           0        1.358959    0.454413   -1.421933
     14          1           0        0.248596   -1.945209   -1.231140
     15          1           0       -2.807040   -0.343297    0.272854
     16          1           0       -0.677561   -2.080572    1.401921
     17          1           0       -1.091150    0.531198    2.100020
     18          1           0        1.091165    1.450335    1.182108
     19          1           0       -0.665042    1.800971   -0.962166
 ---------------------------------------------------------------------

 SCF Done:  E(RB3LYP) =  -423.152449956     A.U. after    1 cycles

 The electronic state is 1-A.
 Alpha  occ. eigenvalues --  -19.14474 -19.12043 -10.24431 -10.24241 -10.22951
 Alpha  occ. eigenvalues --  -10.19804 -10.19306 -10.18691 -10.18148  -1.05999
 Alpha  occ. eigenvalues --   -1.00374  -0.85014  -0.79078  -0.69206  -0.68370
 Alpha  occ. eigenvalues --   -0.59605  -0.57775  -0.54812  -0.53269  -0.50273
 Alpha  occ. eigenvalues --   -0.45498  -0.44512  -0.43388  -0.40720  -0.39731
 Alpha  occ. eigenvalues --   -0.38367  -0.37079  -0.36593  -0.34639  -0.32226
 Alpha  occ. eigenvalues --   -0.31417  -0.28286  -0.25002  -0.23594
 Alpha virt. eigenvalues --    0.07206   0.08980   0.10725   0.11233   0.12916
 Alpha virt. eigenvalues --    0.13867   0.14485   0.15083   0.15647   0.15757
 Alpha virt. eigenvalues --    0.17218   0.18417   0.19281   0.20889   0.22421

 Mulliken charges:
               1
     1  C   -0.417461
     2  C   -0.017557
     3  C    0.079673
     4  O   -0.327495
     5  C    0.078345
     6  C   -0.151040
     7  C   -0.112251
     8  C    0.121694
     9  O   -0.448693
    10  H    0.115514
    11  H    0.124669
    12  H    0.121453
    13  H    0.084702
    14  H    0.082747
    15  H    0.108392
    16  H    0.100519
    17  H    0.092655
    18  H    0.078760
    19  H    0.285374
 Sum of Mulliken charges =   0.00000

 Dipole moment (field-independent basis, Debye):
    X=              0.2765    Y=             -2.1399    Z=              1.1906  Tot=              2.4644
 Quadrupole moment (field-independent basis, Debye-Ang):
   XX=            -50.5288   YY=            -57.3397   ZZ=            -52.3823
   XY=             -0.8460   XZ=             -2.3137   YZ=             -0.3849

  Exact polarizability:  78.918  -1.136  71.443  -1.625   1.064  67.092
 Approx polarizability: 108.645  -2.865 107.954   1.918   1.063 106.582

                      1                      2                      3
                      A                      A                      A
 Frequencies --    127.7147               214.2721               225.2404
 Red. masses --      3.7953                 1.4292                 1.9379
 Frc consts  --      0.0365                 0.0387                 0.0579
 IR Inten    --      3.4157                 0.9686                 1.0057

                      4                      5                      6
                      A                      A                      A
 Frequencies --    275.9989               321.8028               458.0097
 Red. masses --      2.6952                 3.9781                 5.8020
 Frc consts  --      0.1210                 0.2427                 0.7171
 IR Inten    --      0.3441                 1.0116                 9.4386

                      7                      8                      9
                      A                      A                      A
 Frequencies --    481.3641               526.7770               559.9193
 Red. masses --      2.7023                 1.4140                 3.0516
 Frc consts  --      0.3689                 0.2312                 0.5637
 IR Inten    --      3.8815                63.7783                10.8060

                     10                     11                     12
                      A                      A                      A
 Frequencies --    684.2112               746.0739               776.6193
 Red. masses --      3.8429                 2.6226                 3.1783
 Frc consts  --      1.0600                 0.8601                 1.1294
 IR Inten    --      1.9910                16.8584                 4.7650

                     13                     14                     15
                      A                      A                      A
 Frequencies --    800.6082               827.9000               844.6573
 Red. masses --      1.7833                 1.9763                 3.1334
 Frc consts  --      0.6735                 0.7981                 1.3171
 IR Inten    --     10.0769                 1.9293                 5.8657

                     16                     17                     18
                      A                      A                      A
 Frequencies --    882.3233               897.5669               956.8107
 Red. masses --      2.8508                 1.8569                 2.0345
 Frc consts  --      1.3076                 0.8814                 1.0974
 IR Inten    --     18.6262                 7.4129                31.2699

                     19                     20                     21
                      A                      A                      A
 Frequencies --    984.3141               991.9144              1017.5816
 Red. masses --      2.1365                 2.1693                 2.1178
 Frc consts  --      1.2196                 1.2575                 1.2920
 IR Inten    --     34.4712                 3.2747                10.5331

                     22                     23                     24
                      A                      A                      A
 Frequencies --   1028.6165              1051.1536              1066.5632
 Red. masses --      2.6230                 1.4172                 3.2056
 Frc consts  --      1.6351                 0.9226                 2.1485
 IR Inten    --     25.5044                 2.5011                68.5793

                     25                     26                     27
                      A                      A                      A
 Frequencies --   1076.7001              1100.8320              1109.0375
 Red. masses --      1.7211                 1.7859                 2.1835
 Frc consts  --      1.1756                 1.2751                 1.5823
 IR Inten    --      2.5748                 2.1761                12.2007

                     28                     29                     30
                      A                      A                      A
 Frequencies --   1121.6587              1224.7026              1232.8600
 Red. masses --      1.7743                 1.3200                 2.1683
 Frc consts  --      1.3152                 1.1665                 1.9418
 IR Inten    --     49.0248                 0.5534                 2.1150

                     31                     32                     33
                      A                      A                      A
 Frequencies --   1248.4977              1276.6596              1290.1313
 Red. masses --      1.4375                 1.4453                 1.5467
 Frc consts  --      1.3202                 1.3879                 1.5167
 IR Inten    --      2.7976                14.1969                12.4223

                     34                     35                     36
                      A                      A                      A
 Frequencies --   1300.5905              1335.2811              1369.0848
 Red. masses --      1.3351                 1.6417                 1.6507
 Frc consts  --      1.3306                 1.7246                 1.8229
 IR Inten    --      6.5215                 1.0758                 1.3361

                     37                     38                     39
                      A                      A                      A
 Frequencies --   1395.3521              1411.8035              1450.7363
 Red. masses --      2.1049                 1.3299                 1.2255
 Frc consts  --      2.4146                 1.5618                 1.5196
 IR Inten    --      5.3810                 1.3449                80.0495

                     40                     41                     42
                      A                      A                      A
 Frequencies --   1497.2761              1500.9700              3029.2642
 Red. masses --      1.0444                 1.0540                 1.0354
 Frc consts  --      1.3795                 1.3991                 5.5981
 IR Inten    --      4.3291                 4.6691                20.2255

                     43                     44                     45
                      A                      A                      A
 Frequencies --   3060.9900              3065.7324              3095.5744
 Red. masses --      1.0849                 1.0867                 1.0990
 Frc consts  --      5.9890                 6.0178                 6.2046
 IR Inten    --     10.8062                32.4113                13.7669

                     46                     47                     48
                      A                      A                      A
 Frequencies --   3102.0236              3104.5266              3183.6569
 Red. masses --      1.0919                 1.1012                 1.0898
 Frc consts  --      6.1905                 6.2534                 6.5078
 IR Inten    --     54.0105                24.3900                 5.9807

                     49                     50                     51
                      A                      A                      A
 Frequencies --   3191.9592              3217.5741              3769.9079
 Red. masses --      1.0918                 1.1000                 1.0652
 Frc consts  --      6.5543                 6.7094                 8.9198
 IR Inten    --     22.1477                 9.9893                29.6944

 - Thermochemistry -
 -------------------
 Temperature   298.150 Kelvin.  Pressure   1.00000 Atm.
 Atom     1 has atomic number  6 and mass  12.00000

 Molecular mass:   126.06808 amu.
 Principal axes and moments of inertia in atomic units:
                           1         2         3
     Eigenvalues --   766.08919 924.371671196.58286
           X            0.99685  -0.07757  -0.01627
           Y            0.07744   0.99696  -0.00879
           Z            0.01690   0.00750   0.99983
 This molecule is an asymmetric top.
 Rotational symmetry number  1.
 Warning -- assumption of classical behavior for rotation
           may cause significant error
 Rotational temperatures (Kelvin)      0.11306     0.09370     0.07238
 Rotational constants (GHZ):           2.35578     1.95240     1.50825
 Zero-point vibrational energy     421751.8 (Joules/Mol)
                                  100.80110 (Kcal/Mol)
 Warning -- explicit consideration of   9 degrees of freedom as
           vibrations may cause significant error
 Vibrational temperatures:    183.75   308.29   324.07   397.10   463.00
          (Kelvin)            658.97   692.57   757.91   805.60   984.43
                             1073.43  1117.38  1151.90  1191.16  1215.27
                             1269.46  1291.40  1376.64  1416.21  1427.14
                             1464.07  1479.95  1512.37  1534.54  1549.13
                             1583.85  1595.66  1613.81  1762.07  1773.81
                             1796.31  1836.83  1856.21  1871.26  1921.17
                             1969.81  2007.60  2031.27  2087.28  2154.24
                             2159.56  4358.43  4404.08  4410.90  4453.84
                             4463.11  4466.72  4580.57  4592.51  4629.37
                             5424.05

 Zero-point correction=                           0.160637 (Hartree/Particle)
 Thermal correction to Energy=                    0.168043
 Thermal correction to Enthalpy=                  0.168987
 Thermal correction to Gibbs Free Energy=         0.129148
 Sum of electronic and zero-point Energies=           -422.991813
 Sum of electronic and thermal Energies=              -422.984407
 Sum of electronic and thermal Enthalpies=            -422.983463
 Sum of electronic and thermal Free Energies=         -423.023302

                     E (Thermal)             CV                S
                      KCal/Mol        Cal/Mol-Kelvin    Cal/Mol-Kelvin
 Total                  105.448             30.329             83.847
 Electronic               0.000              0.000              0.000
 Translational            0.889              2.981             40.409
 Rotational               0.889              2.981             28.229
 Vibrational            103.671             24.367             15.210
 Vibration     1          0.611              1.925              2.980
 Vibration     2          0.644              1.819              2.007
 Vibration     3          0.650              1.803              1.917
 Vibration     4          0.678              1.718              1.558
 Vibration     5          0.707              1.632              1.301
 Vibration     6          0.816              1.343              0.772
 Vibration     7          0.838              1.291              0.706
 Vibration     8          0.882              1.191              0.594
 Vibration     9          0.916              1.118              0.524

 Optimization completed.
    -- Stationary point found.
 Normal termination of Gaussian 09 at Mon Jan 27 23:04:28 2020.
