 Gaussian 09, Revision D.01,
 Gaussian 09:  ES64L-G09RevD.01 24-Apr-2013

 -----------------------------
 # b3lyp 6-31G(2df,p) opt Freq
 -----------------------------

 -----
 titel
 -----
 Symbolic Z-matrix:
 Charge =  0 Multiplicity = 1

 SCF Done:  E(RB3LYP) =  -423.205681508     A.U. after   14 cycles
 Optimization completed.
    -- Stationary point found.
 Normal termination of Gaussian 09 at Mon Jan 27 17:06:13 2020.

 ----------------------------------------------------------------------
 #N Geom=AllCheck Guess=TCheck SCRF=Check GenChk RB3LYP/6-31G(2df,p) Fr
 eq
 ----------------------------------------------------------------------

 Structure from the checkpoint file:  "/scratch/puck/g09_4b157e91-0660-4e90-80df-0ee1137b500d/Gau-86309.chk"
 -----
 titel
 -----
 Charge =  0 Multiplicity = 1

                         Standard orientation:
 ---------------------------------------------------------------------
 Center     Atomic      Atomic             Coordinates (Angstroms)
 Number     Number       Type             X           Y           Z
 ---------------------------------------------------------------------
      1          6           0       -2.651619    0.031625   -0.030395
      2          6           0       -1.144672    0.022410    0.065496
      3          6           0       -0.443666   -1.022650    0.968847
      4          6           0        0.523979   -1.111833   -0.230557
      5          8           0       -0.507147   -0.593095   -1.108910
      6          6           0        1.590694   -0.039172   -0.049731
      7          8           0        2.758406   -0.277755    0.136164
      8          6           0        0.998056    1.369475   -0.114570
      9          6           0       -0.508196    1.410223    0.258409
     10          1           0       -3.090819    0.448487    0.882462
     11          1           0       -2.977594    0.646090   -0.875953
     12          1           0       -3.036160   -0.981772   -0.172202
     13          1           0       -0.050685   -0.698693    1.935544
     14          1           0       -1.031968   -1.934873    1.084274
     15          1           0        0.933598   -2.072830   -0.545267
     16          1           0        1.608319    2.041195    0.492935
     17          1           0        1.119238    1.688360   -1.156307
     18          1           0       -0.645159    1.726605    1.298593
     19          1           0       -1.026309    2.143768   -0.367102
 ---------------------------------------------------------------------

 SCF Done:  E(RB3LYP) =  -423.205681508     A.U. after    1 cycles

 The electronic state is 1-A.
 Alpha  occ. eigenvalues --  -19.14105 -19.12981 -10.26613 -10.25183 -10.24115
 Alpha  occ. eigenvalues --  -10.19960 -10.19599 -10.19398 -10.18617  -1.05454
 Alpha  occ. eigenvalues --   -1.03565  -0.80610  -0.76480  -0.74916  -0.67739
 Alpha  occ. eigenvalues --   -0.63386  -0.57796  -0.51213  -0.49607  -0.47885
 Alpha  occ. eigenvalues --   -0.46725  -0.45038  -0.43928  -0.42092  -0.40198
 Alpha  occ. eigenvalues --   -0.39922  -0.38766  -0.37612  -0.35897  -0.34491
 Alpha  occ. eigenvalues --   -0.31777  -0.31720  -0.28072  -0.22681
 Alpha virt. eigenvalues --   -0.01709   0.07165   0.09832   0.10609   0.11377
 Alpha virt. eigenvalues --    0.12862   0.14167   0.14516   0.16295   0.16791
 Alpha virt. eigenvalues --    0.17231   0.17977   0.18625   0.19737   0.21950

 Mulliken charges:
               1
     1  C   -0.471667
     2  C    0.415192
     3  C   -0.294931
     4  C   -0.014347
     5  O   -0.326630
     6  C    0.400282
     7  O   -0.319118
     8  C   -0.311530
     9  C   -0.264506
    10  H    0.122555
    11  H    0.130075
    12  H    0.125134
    13  H    0.110976
    14  H    0.114618
    15  H    0.096424
    16  H    0.125524
    17  H    0.145759
    18  H    0.108587
    19  H    0.107606
 Sum of Mulliken charges =   0.00000

 Dipole moment (field-independent basis, Debye):
    X=             -2.8094    Y=              0.8529    Z=              1.2214  Tot=              3.1799
 Quadrupole moment (field-independent basis, Debye-Ang):
   XX=            -61.2258   YY=            -49.9884   ZZ=            -53.6864
   XY=              0.9941   XZ=             -2.2349   YZ=             -1.1079

  Exact polarizability:  87.584  -1.724  74.339  -0.180  -0.694  61.626
 Approx polarizability: 122.005  -5.444 105.215   2.451   0.065 100.344

                      1                      2                      3
                      A                      A                      A
 Frequencies --     86.2918               156.8666               199.5137
 Red. masses --      3.3208                 2.2167                 1.0779
 Frc consts  --      0.0146                 0.0321                 0.0253
 IR Inten    --      4.1360                 0.6902                 0.4178

                      4                      5                      6
                      A                      A                      A
 Frequencies --    266.6589               332.0841               386.7470
 Red. masses --      2.7156                 2.6138                 2.1529
 Frc consts  --      0.1138                 0.1698                 0.1897
 IR Inten    --      0.2191                 2.8900                 2.1260

                      7                      8                      9
                      A                      A                      A
 Frequencies --    425.7962               448.9664               458.0672
 Red. masses --      3.3570                 6.2291                 3.9674
 Frc consts  --      0.3586                 0.7398                 0.4905
 IR Inten    --     14.6581                 1.3426                 6.3682

                     10                     11                     12
                      A                      A                      A
 Frequencies --    561.7661               631.6874               669.9638
 Red. masses --      2.5559                 3.7205                 3.6573
 Frc consts  --      0.4752                 0.8747                 0.9672
 IR Inten    --      4.2063                 0.9303                 2.7904

                     13                     14                     15
                      A                      A                      A
 Frequencies --    732.7310               799.9958               844.0984
 Red. masses --      3.1150                 1.7363                 2.4490
 Frc consts  --      0.9854                 0.6547                 1.0281
 IR Inten    --      2.2810                 2.6041                19.9532

                     16                     17                     18
                      A                      A                      A
 Frequencies --    899.3020               915.2489               934.9898
 Red. masses --      2.4822                 2.3537                 3.6087
 Frc consts  --      1.1827                 1.1617                 1.8587
 IR Inten    --      6.7505                 5.4729                35.1351

                     19                     20                     21
                      A                      A                      A
 Frequencies --    964.8645               999.5136              1015.6199
 Red. masses --      1.6839                 3.3560                 1.8473
 Frc consts  --      0.9236                 1.9754                 1.1227
 IR Inten    --      6.4350                25.4695                 0.5607

                     22                     23                     24
                      A                      A                      A
 Frequencies --   1031.1402              1040.3545              1106.4167
 Red. masses --      2.3895                 1.2859                 1.6711
 Frc consts  --      1.4969                 0.8200                 1.2053
 IR Inten    --     12.6189                22.0335                 5.4505

                     25                     26                     27
                      A                      A                      A
 Frequencies --   1186.4806              1199.4978              1220.5150
 Red. masses --      1.9192                 2.1606                 1.4920
 Frc consts  --      1.5918                 1.8315                 1.3095
 IR Inten    --     14.5311                13.6277                 6.6435

                     28                     29                     30
                      A                      A                      A
 Frequencies --   1227.6000              1248.2007              1272.3129
 Red. masses --      1.6491                 1.6349                 1.7717
 Frc consts  --      1.4642                 1.5008                 1.6898
 IR Inten    --      2.8770                 5.1554                16.8629

                     31                     32                     33
                      A                      A                      A
 Frequencies --   1301.6761              1308.0809              1312.1736
 Red. masses --      1.5631                 1.6097                 1.7202
 Frc consts  --      1.5604                 1.6228                 1.7450
 IR Inten    --      2.7497                 1.1342                10.8419

                     34                     35                     36
                      A                      A                      A
 Frequencies --   1372.1389              1409.6814              1450.0989
 Red. masses --      1.6526                 1.3843                 1.0749
 Frc consts  --      1.8332                 1.6208                 1.3317
 IR Inten    --      3.5409                12.2052                 5.0529

                     37                     38                     39
                      A                      A                      A
 Frequencies --   1477.2995              1484.2618              1492.4367
 Red. masses --      1.0754                 1.0936                 1.0571
 Frc consts  --      1.3828                 1.4195                 1.3873
 IR Inten    --      0.2529                 8.4440                 5.6899

                     40                     41                     42
                      A                      A                      A
 Frequencies --   1497.9783              1832.2604              3034.7804
 Red. masses --      1.1042                12.0898                 1.0388
 Frc consts  --      1.4598                23.9135                 5.6369
 IR Inten    --      0.6561               205.8056                 5.4798

                     43                     44                     45
                      A                      A                      A
 Frequencies --   3041.4228              3049.5774              3066.7065
 Red. masses --      1.0563                 1.0678                 1.0578
 Frc consts  --      5.7571                 5.8509                 5.8614
 IR Inten    --     39.3734                 4.4343                20.2711

                     46                     47                     48
                      A                      A                      A
 Frequencies --   3082.1784              3105.4681              3109.8319
 Red. masses --      1.1007                 1.1005                 1.0910
 Frc consts  --      6.1608                 6.2532                 6.2166
 IR Inten    --     16.2020                16.2267                26.9072

                     49                     50                     51
                      A                      A                      A
 Frequencies --   3114.2360              3119.3954              3129.7234
 Red. masses --      1.0979                 1.1021                 1.1082
 Frc consts  --      6.2735                 6.3182                 6.3958
 IR Inten    --     11.9139                11.3810                24.0371

 - Thermochemistry -
 -------------------
 Temperature   298.150 Kelvin.  Pressure   1.00000 Atm.
 Atom     1 has atomic number  6 and mass  12.00000

 Molecular mass:   126.06808 amu.
 Principal axes and moments of inertia in atomic units:
                           1         2         3
     Eigenvalues --   530.623351266.740721489.74198
           X            0.99994   0.00655  -0.00918
           Y           -0.00681   0.99959  -0.02799
           Z            0.00899   0.02805   0.99957
 This molecule is an asymmetric top.
 Rotational symmetry number  1.
 Warning -- assumption of classical behavior for rotation
           may cause significant error
 Rotational temperatures (Kelvin)      0.16323     0.06838     0.05814
 Rotational constants (GHZ):           3.40117     1.42471     1.21145
 Zero-point vibrational energy     419020.1 (Joules/Mol)
                                  100.14822 (Kcal/Mol)
 Warning -- explicit consideration of  10 degrees of freedom as
           vibrations may cause significant error
 Vibrational temperatures:    124.15   225.70   287.06   383.66   477.79
          (Kelvin)            556.44   612.63   645.96   659.06   808.26
                              908.86   963.93  1054.24  1151.01  1214.47
                             1293.89  1316.84  1345.24  1388.22  1438.08
                             1461.25  1483.58  1496.84  1591.88  1707.08
                             1725.81  1756.05  1766.24  1795.88  1830.57
                             1872.82  1882.03  1887.92  1974.20  2028.21
                             2086.37  2125.50  2135.52  2147.28  2155.25
                             2636.21  4366.37  4375.92  4387.66  4412.30
                             4434.56  4468.07  4474.35  4480.69  4488.11
                             4502.97

 Zero-point correction=                           0.159596 (Hartree/Particle)
 Thermal correction to Energy=                    0.167575
 Thermal correction to Enthalpy=                  0.168520
 Thermal correction to Gibbs Free Energy=         0.127268
 Sum of electronic and zero-point Energies=           -423.046085
 Sum of electronic and thermal Energies=              -423.038106
 Sum of electronic and thermal Enthalpies=            -423.037162
 Sum of electronic and thermal Free Energies=         -423.078413

                     E (Thermal)             CV                S
                      KCal/Mol        Cal/Mol-Kelvin    Cal/Mol-Kelvin
 Total                  105.155             31.345             86.821
 Electronic               0.000              0.000              0.000
 Translational            0.889              2.981             40.409
 Rotational               0.889              2.981             28.395
 Vibrational            103.378             25.383             18.018
 Vibration     1          0.601              1.959              3.742
 Vibration     2          0.621              1.895              2.587
 Vibration     3          0.638              1.841              2.138
 Vibration     4          0.672              1.734              1.618
 Vibration     5          0.714              1.611              1.250
 Vibration     6          0.755              1.498              1.013
 Vibration     7          0.788              1.414              0.873
 Vibration     8          0.808              1.363              0.799
 Vibration     9          0.816              1.343              0.772
 Vibration    10          0.917              1.114              0.520

 Normal termination of Gaussian 09 at Mon Jan 27 17:54:06 2020.
