 Gaussian 09, Revision D.01,
 Gaussian 09:  ES64L-G09RevD.01 24-Apr-2013

 -----------------------------
 # b3lyp 6-31G(2df,p) opt Freq
 -----------------------------

 -----
 titel
 -----
 Symbolic Z-matrix:
 Charge =  0 Multiplicity = 1

 SCF Done:  E(RB3LYP) =  -423.154979250     A.U. after   14 cycles
 Optimization completed.
    -- Stationary point found.
 Normal termination of Gaussian 09 at Mon Jan 27 15:56:31 2020.

 ----------------------------------------------------------------------
 #N Geom=AllCheck Guess=TCheck SCRF=Check GenChk RB3LYP/6-31G(2df,p) Fr
 eq
 ----------------------------------------------------------------------

 Structure from the checkpoint file:  "/scratch/puck/g09_85e570e4-c70f-4aa3-b361-47a898c58010/Gau-10322.chk"
 -----
 titel
 -----
 Charge =  0 Multiplicity = 1

                         Standard orientation:
 ---------------------------------------------------------------------
 Center     Atomic      Atomic             Coordinates (Angstroms)
 Number     Number       Type             X           Y           Z
 ---------------------------------------------------------------------
      1          6           0        0.531805    1.898018   -0.676808
      2          6           0       -0.179544    0.554807   -0.478353
      3          6           0       -1.577991    0.753912    0.119619
      4          6           0       -2.507859   -0.428680   -0.004879
      5          8           0       -2.222329   -1.487714   -0.506786
      6          6           0        0.642234   -0.410505    0.421097
      7          8           0        0.796851    0.102697    1.746545
      8          6           0        1.935660   -0.746861   -0.177166
      9          6           0        3.010305   -0.992015   -0.657898
     10          1           0        0.627242    2.439367    0.271387
     11          1           0        1.533035    1.754449   -1.092498
     12          1           0       -0.030488    2.538116   -1.363305
     13          1           0       -0.285667    0.054965   -1.447659
     14          1           0       -1.504679    1.010909    1.185928
     15          1           0       -2.089800    1.608015   -0.347366
     16          1           0       -3.527320   -0.254717    0.409835
     17          1           0        0.061482   -1.330940    0.534832
     18          1           0        1.536987    0.718650    1.737104
     19          1           0        3.955379   -1.230736   -1.080007
 ---------------------------------------------------------------------

 SCF Done:  E(RB3LYP) =  -423.154979250     A.U. after    1 cycles

 The electronic state is 1-A.
 Alpha  occ. eigenvalues --  -19.14704 -19.14399 -10.27548 -10.25478 -10.19908
 Alpha  occ. eigenvalues --  -10.19677 -10.18639 -10.18191 -10.18147  -1.05037
 Alpha  occ. eigenvalues --   -1.02853  -0.81946  -0.76327  -0.72291  -0.69234
 Alpha  occ. eigenvalues --   -0.60997  -0.55990  -0.54965  -0.50398  -0.49332
 Alpha  occ. eigenvalues --   -0.48022  -0.45660  -0.44405  -0.41864  -0.40703
 Alpha  occ. eigenvalues --   -0.37964  -0.36826  -0.36400  -0.35220  -0.33848
 Alpha  occ. eigenvalues --   -0.29232  -0.27643  -0.26741  -0.25420
 Alpha virt. eigenvalues --   -0.02162   0.02866   0.04917   0.08343   0.11064
 Alpha virt. eigenvalues --    0.11596   0.12175   0.14627   0.15503   0.15996
 Alpha virt. eigenvalues --    0.16349   0.17490   0.18014   0.20030   0.22801

 Mulliken charges:
               1
     1  C   -0.429507
     2  C    0.027503
     3  C   -0.310519
     4  C    0.153535
     5  O   -0.241494
     6  C   -0.063185
     7  O   -0.428178
     8  C    0.296080
     9  C   -0.441414
    10  H    0.112668
    11  H    0.131443
    12  H    0.117192
    13  H    0.102779
    14  H    0.144922
    15  H    0.117200
    16  H    0.081762
    17  H    0.139669
    18  H    0.289118
    19  H    0.200426
 Sum of Mulliken charges =   0.00000

 Dipole moment (field-independent basis, Debye):
    X=              0.4966    Y=              2.7410    Z=             -0.1681  Tot=              2.7906
 Quadrupole moment (field-independent basis, Debye-Ang):
   XX=            -46.3318   YY=            -55.8873   ZZ=            -55.3651
   XY=             -4.3310   XZ=             -2.7822   YZ=              0.1095

  Exact polarizability:  97.215  -5.883  72.416  -9.708   4.092  63.531
 Approx polarizability: 133.879 -10.325 109.002 -18.631  12.090 101.728

                      1                      2                      3
                      A                      A                      A
 Frequencies --     60.4132                79.4682               137.0311
 Red. masses --      5.5943                 4.5680                 3.0994
 Frc consts  --      0.0120                 0.0170                 0.0343
 IR Inten    --      1.2647                 4.4977                 4.5527

                      4                      5                      6
                      A                      A                      A
 Frequencies --    155.1920               181.4643               218.0961
 Red. masses --      3.9810                 2.3342                 2.3243
 Frc consts  --      0.0565                 0.0453                 0.0651
 IR Inten    --      1.1812                 3.3984                 7.1766

                      7                      8                      9
                      A                      A                      A
 Frequencies --    237.1101               267.4635               299.0435
 Red. masses --      1.3879                 2.5592                 1.1846
 Frc consts  --      0.0460                 0.1079                 0.0624
 IR Inten    --      6.2229                 0.4226                95.9790

                     10                     11                     12
                      A                      A                      A
 Frequencies --    336.8260               342.0790               480.3837
 Red. masses --      3.5572                 2.9081                 4.1585
 Frc consts  --      0.2378                 0.2005                 0.5654
 IR Inten    --      2.7532                12.6506                 0.8361

                     13                     14                     15
                      A                      A                      A
 Frequencies --    543.4973               611.9757               627.9375
 Red. masses --      4.3906                 2.6280                 1.2815
 Frc consts  --      0.7641                 0.5799                 0.2977
 IR Inten    --     13.2453                10.6880                34.4608

                     16                     17                     18
                      A                      A                      A
 Frequencies --    672.5225               712.7609               735.6112
 Red. masses --      1.2520                 2.6696                 2.1870
 Frc consts  --      0.3336                 0.7991                 0.6973
 IR Inten    --     34.3632                10.7473                 8.5361

                     19                     20                     21
                      A                      A                      A
 Frequencies --    815.7359               866.6653               948.0018
 Red. masses --      3.0251                 2.5732                 1.7191
 Frc consts  --      1.1860                 1.1388                 0.9103
 IR Inten    --      6.4570                 8.3825                23.6970

                     22                     23                     24
                      A                      A                      A
 Frequencies --    989.9446              1002.7028              1014.1199
 Red. masses --      2.0485                 1.7200                 2.4226
 Frc consts  --      1.1828                 1.0189                 1.4680
 IR Inten    --     22.4637                38.6816                38.6289

                     25                     26                     27
                      A                      A                      A
 Frequencies --   1096.9573              1119.7378              1160.1815
 Red. masses --      2.4774                 2.3624                 2.1435
 Frc consts  --      1.7564                 1.7452                 1.6999
 IR Inten    --     10.2138                28.6803                 9.2447

                     28                     29                     30
                      A                      A                      A
 Frequencies --   1226.5943              1266.5526              1293.2823
 Red. masses --      1.2843                 1.3301                 1.2300
 Frc consts  --      1.1385                 1.2571                 1.2121
 IR Inten    --      4.6483                13.8846                 2.0889

                     31                     32                     33
                      A                      A                      A
 Frequencies --   1327.5292              1356.4520              1385.8116
 Red. masses --      1.4248                 1.4028                 1.6769
 Frc consts  --      1.4794                 1.5207                 1.8974
 IR Inten    --      4.3646                 3.2898                12.3040

                     34                     35                     36
                      A                      A                      A
 Frequencies --   1406.0162              1420.3655              1424.0582
 Red. masses --      1.2507                 1.2030                 1.1797
 Frc consts  --      1.4567                 1.4300                 1.4095
 IR Inten    --      4.6179                19.5770                57.5949

                     37                     38                     39
                      A                      A                      A
 Frequencies --   1440.0089              1499.0926              1507.6344
 Red. masses --      1.1243                 1.0444                 1.0530
 Frc consts  --      1.3737                 1.3828                 1.4101
 IR Inten    --     13.4672                 4.9670                 3.2428

                     40                     41                     42
                      A                      A                      A
 Frequencies --   1823.8269              2230.7427              2869.9389
 Red. masses --      9.8629                 5.9176                 1.0828
 Frc consts  --     19.3296                17.3499                 5.2549
 IR Inten    --    126.0875                 0.8675               155.4251

                     43                     44                     45
                      A                      A                      A
 Frequencies --   3013.3607              3033.3226              3043.1521
 Red. masses --      1.0627                 1.0378                 1.0920
 Frc consts  --      5.6857                 5.6259                 5.9581
 IR Inten    --     24.7987                19.2547                 3.2710

                     46                     47                     48
                      A                      A                      A
 Frequencies --   3056.2576              3074.0632              3099.3516
 Red. masses --      1.0861                 1.0838                 1.0991
 Frc consts  --      5.9770                 6.0340                 6.2208
 IR Inten    --      7.1116                 4.5139                27.6710

                     49                     50                     51
                      A                      A                      A
 Frequencies --   3116.0721              3502.1930              3817.8337
 Red. masses --      1.1014                 1.1622                 1.0663
 Frc consts  --      6.3011                 8.3983                 9.1569
 IR Inten    --     19.3810                65.7326                24.4733

 - Thermochemistry -
 -------------------
 Temperature   298.150 Kelvin.  Pressure   1.00000 Atm.
 Atom     1 has atomic number  6 and mass  12.00000

 Molecular mass:   126.06808 amu.
 Principal axes and moments of inertia in atomic units:
                           1         2         3
     Eigenvalues --   768.138311705.489711900.17314
           X            0.99977  -0.01470  -0.01549
           Y            0.01401   0.99895  -0.04366
           Z            0.01611   0.04343   0.99893
 This molecule is an asymmetric top.
 Rotational symmetry number  1.
 Warning -- assumption of classical behavior for rotation
           may cause significant error
 Rotational temperatures (Kelvin)      0.11276     0.05079     0.04558
 Rotational constants (GHZ):           2.34950     1.05820     0.94978
 Zero-point vibrational energy     406409.9 (Joules/Mol)
                                   97.13431 (Kcal/Mol)
 Warning -- explicit consideration of  14 degrees of freedom as
           vibrations may cause significant error
 Vibrational temperatures:     86.92   114.34   197.16   223.29   261.09
          (Kelvin)            313.79   341.15   384.82   430.26   484.62
                              492.17   691.16   781.97   880.50   903.46
                              967.61  1025.50  1058.38  1173.66  1246.94
                             1363.96  1424.31  1442.66  1459.09  1578.27
                             1611.05  1669.24  1764.79  1822.28  1860.74
                             1910.02  1951.63  1993.87  2022.94  2043.59
                             2048.90  2071.85  2156.86  2169.15  2624.08
                             3209.54  4129.20  4335.55  4364.27  4378.41
                             4397.27  4422.89  4459.27  4483.33  5038.87
                             5493.00

 Zero-point correction=                           0.154793 (Hartree/Particle)
 Thermal correction to Energy=                    0.165297
 Thermal correction to Enthalpy=                  0.166242
 Thermal correction to Gibbs Free Energy=         0.119082
 Sum of electronic and zero-point Energies=           -423.000186
 Sum of electronic and thermal Energies=              -422.989682
 Sum of electronic and thermal Enthalpies=            -422.988738
 Sum of electronic and thermal Free Energies=         -423.035897

                     E (Thermal)             CV                S
                      KCal/Mol        Cal/Mol-Kelvin    Cal/Mol-Kelvin
 Total                  103.726             37.609             99.255
 Electronic               0.000              0.000              0.000
 Translational            0.889              2.981             40.409
 Rotational               0.889              2.981             29.300
 Vibrational            101.948             31.647             29.547
 Vibration     1          0.597              1.973              4.444
 Vibration     2          0.600              1.963              3.904
 Vibration     3          0.614              1.916              2.845
 Vibration     4          0.620              1.897              2.608
 Vibration     5          0.630              1.865              2.313
 Vibration     6          0.646              1.814              1.975
 Vibration     7          0.656              1.784              1.824
 Vibration     8          0.673              1.733              1.613
 Vibration     9          0.692              1.675              1.422
 Vibration    10          0.718              1.602              1.227
 Vibration    11          0.721              1.591              1.202
 Vibration    12          0.837              1.294              0.709
 Vibration    13          0.899              1.154              0.558
 Vibration    14          0.971              1.006              0.430

 Normal termination of Gaussian 09 at Mon Jan 27 17:37:18 2020.
