 Gaussian 09, Revision D.01,
 Gaussian 09:  ES64L-G09RevD.01 24-Apr-2013

 -----------------------------
 # b3lyp 6-31G(2df,p) opt Freq
 -----------------------------

 -----
 titel
 -----
 Symbolic Z-matrix:
 Charge =  0 Multiplicity = 1

 SCF Done:  E(RB3LYP) =  -423.092484748     A.U. after   12 cycles
 Optimization completed.
    -- Stationary point found.
 Normal termination of Gaussian 09 at Tue Jan 28 02:18:46 2020.

 ----------------------------------------------------------------------
 #N Geom=AllCheck Guess=TCheck SCRF=Check GenChk RB3LYP/6-31G(2df,p) Fr
 eq
 ----------------------------------------------------------------------

 Structure from the checkpoint file:  "/scratch/puck/g09_a908e61e-258b-4995-bfbd-baa090fc5cda/Gau-86073.chk"
 -----
 titel
 -----
 Charge =  0 Multiplicity = 1

                         Standard orientation:
 ---------------------------------------------------------------------
 Center     Atomic      Atomic             Coordinates (Angstroms)
 Number     Number       Type             X           Y           Z
 ---------------------------------------------------------------------
      1          6           0        3.262515    0.710672    0.020146
      2          6           0        2.054273   -0.067031    0.473892
      3          8           0        1.676888   -1.194615   -0.321957
      4          6           0        0.786274   -0.065769   -0.270741
      5          6           0       -0.528743   -0.310278    0.402633
      6          6           0       -1.562205    0.851371    0.468637
      7          6           0       -2.699522   -0.179276    0.655086
      8          6           0       -1.764689   -0.648675   -0.482877
      9          8           0       -1.748250    0.743161   -0.999925
     10          1           0        3.233308    0.874675   -1.060253
     11          1           0        3.305584    1.683424    0.521939
     12          1           0        4.182701    0.167455    0.259664
     13          1           0        2.000153   -0.256395    1.548669
     14          1           0        0.731525    0.507154   -1.194186
     15          1           0       -0.413625   -0.910356    1.310122
     16          1           0       -1.453463    1.852405    0.887401
     17          1           0       -2.726629   -0.762195    1.579007
     18          1           0       -3.682251    0.161853    0.329436
     19          1           0       -1.893821   -1.452466   -1.207400
 ---------------------------------------------------------------------

 SCF Done:  E(RB3LYP) =  -423.092484748     A.U. after    1 cycles

 The electronic state is 1-A.
 Alpha  occ. eigenvalues --  -19.14298 -19.13547 -10.25426 -10.25214 -10.23547
 Alpha  occ. eigenvalues --  -10.22986 -10.20316 -10.19748 -10.18219  -1.06467
 Alpha  occ. eigenvalues --   -1.05728  -0.80021  -0.74296  -0.71926  -0.65505
 Alpha  occ. eigenvalues --   -0.62481  -0.59016  -0.54799  -0.52450  -0.48104
 Alpha  occ. eigenvalues --   -0.47899  -0.43413  -0.43214  -0.40932  -0.40445
 Alpha  occ. eigenvalues --   -0.38733  -0.37468  -0.35412  -0.34480  -0.32938
 Alpha  occ. eigenvalues --   -0.32517  -0.28202  -0.26518  -0.24015
 Alpha virt. eigenvalues --    0.08395   0.09085   0.10920   0.11378   0.12408
 Alpha virt. eigenvalues --    0.12567   0.13141   0.13903   0.14078   0.15476
 Alpha virt. eigenvalues --    0.16347   0.17176   0.17764   0.18050   0.19306

 Mulliken charges:
               1
     1  C   -0.417586
     2  C    0.072153
     3  O   -0.267723
     4  C    0.021917
     5  C    0.000499
     6  C    0.034408
     7  C   -0.223298
     8  C    0.039540
     9  O   -0.315650
    10  H    0.129540
    11  H    0.120672
    12  H    0.128549
    13  H    0.082220
    14  H    0.105626
    15  H    0.077951
    16  H    0.096868
    17  H    0.099165
    18  H    0.112011
    19  H    0.103139
 Sum of Mulliken charges =   0.00000

 Dipole moment (field-independent basis, Debye):
    X=             -0.2491    Y=              0.6556    Z=              2.0841  Tot=              2.1989
 Quadrupole moment (field-independent basis, Debye-Ang):
   XX=            -51.2820   YY=            -54.7548   ZZ=            -53.0906
   XY=              5.3768   XZ=             -1.1711   YZ=              1.2836

  Exact polarizability:  96.708   2.582  66.670   1.046   0.589  67.329
 Approx polarizability: 116.180  -0.632 108.178   4.560   1.009 108.122

                      1                      2                      3
                      A                      A                      A
 Frequencies --     65.2465               121.4157               155.3524
 Red. masses --      3.5837                 3.3748                 2.8264
 Frc consts  --      0.0090                 0.0293                 0.0402
 IR Inten    --      2.3146                 1.3268                 3.7022

                      4                      5                      6
                      A                      A                      A
 Frequencies --    200.7169               302.1356               322.2111
 Red. masses --      1.1691                 3.1784                 4.6913
 Frc consts  --      0.0278                 0.1709                 0.2870
 IR Inten    --      0.3107                 2.5257                 0.5759

                      7                      8                      9
                      A                      A                      A
 Frequencies --    375.9136               495.8944               548.3740
 Red. masses --      2.8298                 4.0400                 2.3033
 Frc consts  --      0.2356                 0.5853                 0.4081
 IR Inten    --      1.8493                 6.5073                10.0802

                     10                     11                     12
                      A                      A                      A
 Frequencies --    644.4777               753.0846               775.1629
 Red. masses --      3.8239                 6.7866                 2.7620
 Frc consts  --      0.9358                 2.2677                 0.9778
 IR Inten    --      6.8791                17.3135                 1.7237

                     13                     14                     15
                      A                      A                      A
 Frequencies --    796.3398               872.2712               880.7599
 Red. masses --      3.8602                 2.8657                 2.5692
 Frc consts  --      1.4423                 1.2847                 1.1743
 IR Inten    --      9.3263                11.0104                21.6391

                     16                     17                     18
                      A                      A                      A
 Frequencies --    892.9805               913.4613               943.4410
 Red. masses --      2.2275                 2.2361                 4.4419
 Frc consts  --      1.0465                 1.0993                 2.3294
 IR Inten    --     17.6614                 2.8871                 8.9547

                     19                     20                     21
                      A                      A                      A
 Frequencies --    968.2865              1029.5249              1034.5058
 Red. masses --      2.3032                 1.5764                 1.1475
 Frc consts  --      1.2723                 0.9844                 0.7235
 IR Inten    --     19.5291                 5.4233                 3.6467

                     22                     23                     24
                      A                      A                      A
 Frequencies --   1039.9756              1090.0696              1129.7118
 Red. masses --      1.4005                 1.6100                 1.4701
 Frc consts  --      0.8925                 1.1272                 1.1054
 IR Inten    --      6.6680                 4.1717                 2.7745

                     25                     26                     27
                      A                      A                      A
 Frequencies --   1132.7405              1141.4459              1161.1288
 Red. masses --      1.5361                 3.5533                 1.7744
 Frc consts  --      1.1612                 2.7277                 1.4095
 IR Inten    --     11.9364                 1.9116                 9.4524

                     28                     29                     30
                      A                      A                      A
 Frequencies --   1177.4926              1189.2446              1192.7401
 Red. masses --      1.7910                 1.4464                 1.7258
 Frc consts  --      1.4631                 1.2053                 1.4466
 IR Inten    --      1.1068                 0.4395                 3.2357

                     31                     32                     33
                      A                      A                      A
 Frequencies --   1209.8857              1251.9353              1273.9472
 Red. masses --      1.4697                 1.5125                 1.3743
 Frc consts  --      1.2675                 1.3967                 1.3141
 IR Inten    --     14.8518                 7.0336                 1.4108

                     34                     35                     36
                      A                      A                      A
 Frequencies --   1281.3186              1311.2016              1398.0213
 Red. masses --      1.4887                 1.4316                 1.3261
 Frc consts  --      1.4400                 1.4502                 1.5270
 IR Inten    --      2.5898                 1.8355                 3.4245

                     37                     38                     39
                      A                      A                      A
 Frequencies --   1415.7510              1475.4895              1486.1604
 Red. masses --      1.3807                 1.2155                 1.1344
 Frc consts  --      1.6306                 1.5591                 1.4762
 IR Inten    --      8.3652                 3.5872                 2.3569

                     40                     41                     42
                      A                      A                      A
 Frequencies --   1492.7995              1514.8167              3035.7990
 Red. masses --      1.0955                 2.1210                 1.0357
 Frc consts  --      1.4384                 2.8676                 5.6240
 IR Inten    --      4.3691                 9.0009                21.9423

                     43                     44                     45
                      A                      A                      A
 Frequencies --   3063.8685              3073.3158              3079.1189
 Red. masses --      1.0659                 1.0759                 1.0857
 Frc consts  --      5.8954                 5.9876                 6.0650
 IR Inten    --     17.7114                18.8371                39.5367

                     46                     47                     48
                      A                      A                      A
 Frequencies --   3100.2992              3114.1417              3123.3741
 Red. masses --      1.1008                 1.0916                 1.1014
 Frc consts  --      6.2338                 6.2370                 6.3306
 IR Inten    --     18.1878                62.9122                24.6461

                     49                     50                     51
                      A                      A                      A
 Frequencies --   3125.8285              3140.3097              3154.2939
 Red. masses --      1.0956                 1.0873                 1.1093
 Frc consts  --      6.3072                 6.3175                 6.5031
 IR Inten    --     18.1554                12.9692                24.9188

 - Thermochemistry -
 -------------------
 Temperature   298.150 Kelvin.  Pressure   1.00000 Atm.
 Atom     1 has atomic number  6 and mass  12.00000

 Molecular mass:   126.06808 amu.
 Principal axes and moments of inertia in atomic units:
                           1         2         3
     Eigenvalues --   390.842201977.473272042.56261
           X            0.99968   0.02435  -0.00723
           Y           -0.02435   0.99970   0.00051
           Z            0.00724  -0.00034   0.99997
 This molecule is an asymmetric top.
 Rotational symmetry number  1.
 Rotational temperatures (Kelvin)      0.22161     0.04380     0.04240
 Rotational constants (GHZ):           4.61757     0.91265     0.88357
 Zero-point vibrational energy     415509.6 (Joules/Mol)
                                   99.30918 (Kcal/Mol)
 Warning -- explicit consideration of   9 degrees of freedom as
           vibrations may cause significant error
 Vibrational temperatures:     93.88   174.69   223.52   288.79   434.71
          (Kelvin)            463.59   540.86   713.48   788.99   927.26
                             1083.52  1115.29  1145.75  1255.00  1267.22
                             1284.80  1314.27  1357.40  1393.15  1481.25
                             1488.42  1496.29  1568.37  1625.40  1629.76
                             1642.28  1670.60  1694.15  1711.06  1716.08
                             1740.75  1801.25  1832.92  1843.53  1886.52
                             2011.44  2036.95  2122.90  2138.25  2147.80
                             2179.48  4367.83  4408.22  4421.81  4430.16
                             4460.63  4480.55  4493.83  4497.36  4518.20
                             4538.32

 Zero-point correction=                           0.158259 (Hartree/Particle)
 Thermal correction to Energy=                    0.166413
 Thermal correction to Enthalpy=                  0.167357
 Thermal correction to Gibbs Free Energy=         0.125023
 Sum of electronic and zero-point Energies=           -422.934225
 Sum of electronic and thermal Energies=              -422.926072
 Sum of electronic and thermal Enthalpies=            -422.925127
 Sum of electronic and thermal Free Energies=         -422.967462

                     E (Thermal)             CV                S
                      KCal/Mol        Cal/Mol-Kelvin    Cal/Mol-Kelvin
 Total                  104.426             31.046             89.100
 Electronic               0.000              0.000              0.000
 Translational            0.889              2.981             40.409
 Rotational               0.889              2.981             28.847
 Vibrational            102.648             25.085             19.844
 Vibration     1          0.597              1.971              4.292
 Vibration     2          0.609              1.931              3.078
 Vibration     3          0.620              1.897              2.606
 Vibration     4          0.638              1.839              2.127
 Vibration     5          0.694              1.670              1.405
 Vibration     6          0.707              1.631              1.299
 Vibration     7          0.747              1.521              1.056
 Vibration     8          0.851              1.259              0.668
 Vibration     9          0.904              1.143              0.548

 Optimization completed.
    -- Stationary point found.
 Normal termination of Gaussian 09 at Tue Jan 28 02:56:35 2020.
