 Gaussian 09, Revision D.01,
 Gaussian 09:  ES64L-G09RevD.01 24-Apr-2013

 -----------------------------
 # b3lyp 6-31G(2df,p) opt Freq
 -----------------------------

 -----
 titel
 -----
 Symbolic Z-matrix:
 Charge =  0 Multiplicity = 1

 SCF Done:  E(RB3LYP) =  -423.126287015     A.U. after   14 cycles
 Optimization completed.
    -- Stationary point found.
 Normal termination of Gaussian 09 at Tue Jan 28 14:03:36 2020.

 ----------------------------------------------------------------------
 #N Geom=AllCheck Guess=TCheck SCRF=Check GenChk RB3LYP/6-31G(2df,p) Fr
 eq
 ----------------------------------------------------------------------

 Structure from the checkpoint file:  "/scratch/puck/g09_1fe2adf7-4725-4070-b6b5-d07c216cd549/Gau-71018.chk"
 -----
 titel
 -----
 Charge =  0 Multiplicity = 1

                         Standard orientation:
 ---------------------------------------------------------------------
 Center     Atomic      Atomic             Coordinates (Angstroms)
 Number     Number       Type             X           Y           Z
 ---------------------------------------------------------------------
      1          8           0        2.947624   -0.265753   -0.336624
      2          6           0        1.842707   -0.354955    0.555473
      3          6           0        0.753542    0.649491    0.208604
      4          6           0       -0.617233    0.708287    0.986820
      5          6           0       -1.159899    1.434359   -0.276486
      6          6           0       -0.224882    0.440518   -1.020151
      7          6           0       -0.848841   -0.924419   -0.653318
      8          8           0       -2.202032   -0.881246   -0.170072
      9          6           0       -1.125762   -0.735686    0.771318
     10          1           0        2.630577   -0.486947   -1.218086
     11          1           0        1.451149   -1.380728    0.599652
     12          1           0        2.248075   -0.122500    1.546929
     13          1           0        1.212418    1.642352    0.158592
     14          1           0       -0.696828    1.135661    1.986055
     15          1           0       -2.226677    1.378590   -0.478875
     16          1           0       -0.795760    2.460121   -0.341783
     17          1           0        0.088828    0.602595   -2.051537
     18          1           0       -0.540487   -1.855971   -1.115298
     19          1           0       -1.053817   -1.502748    1.534357
 ---------------------------------------------------------------------

 SCF Done:  E(RB3LYP) =  -423.126287015     A.U. after    1 cycles

 The electronic state is 1-A.
 Alpha  occ. eigenvalues --  -19.15069 -19.13661 -10.23575 -10.23531 -10.22745
 Alpha  occ. eigenvalues --  -10.20230 -10.20170 -10.19754 -10.18635  -1.07285
 Alpha  occ. eigenvalues --   -1.01669  -0.87692  -0.71876  -0.69433  -0.68208
 Alpha  occ. eigenvalues --   -0.61539  -0.56699  -0.55189  -0.53002  -0.50743
 Alpha  occ. eigenvalues --   -0.48046  -0.45337  -0.43731  -0.40288  -0.38936
 Alpha  occ. eigenvalues --   -0.37224  -0.36764  -0.36084  -0.32801  -0.32045
 Alpha  occ. eigenvalues --   -0.31499  -0.28913  -0.27043  -0.25110
 Alpha virt. eigenvalues --    0.05968   0.08121   0.09323   0.09729   0.12168
 Alpha virt. eigenvalues --    0.13772   0.15119   0.15489   0.15980   0.17131
 Alpha virt. eigenvalues --    0.17639   0.18627   0.19775   0.20009   0.21078

 Mulliken charges:
               1
     1  O   -0.417888
     2  C   -0.112994
     3  C    0.022586
     4  C   -0.112597
     5  C   -0.218645
     6  C   -0.113465
     7  C    0.043863
     8  O   -0.254232
     9  C    0.044892
    10  H    0.282209
    11  H    0.087908
    12  H    0.111145
    13  H    0.082702
    14  H    0.066951
    15  H    0.121900
    16  H    0.098731
    17  H    0.063594
    18  H    0.100130
    19  H    0.103209
 Sum of Mulliken charges =   0.00000

 Dipole moment (field-independent basis, Debye):
    X=              0.3653    Y=              0.0698    Z=             -0.1033  Tot=              0.3860
 Quadrupole moment (field-independent basis, Debye-Ang):
   XX=            -66.6458   YY=            -51.4124   ZZ=            -48.4745
   XY=             -2.2238   XZ=             -2.1741   YZ=              0.5565

  Exact polarizability:  76.718   0.101  70.818  -0.602   0.241  71.788
 Approx polarizability: 112.567   3.293 103.251  -1.444   2.070 114.147

                      1                      2                      3
                      A                      A                      A
 Frequencies --     81.6437               166.4226               230.4652
 Red. masses --      3.6396                 3.7151                 1.9913
 Frc consts  --      0.0143                 0.0606                 0.0623
 IR Inten    --      4.1085                 1.9029                21.9815

                      4                      5                      6
                      A                      A                      A
 Frequencies --    294.5132               355.3598               443.0039
 Red. masses --      1.3217                 4.7474                 4.6283
 Frc consts  --      0.0675                 0.3532                 0.5352
 IR Inten    --     77.1978                 8.6723                 4.9647

                      7                      8                      9
                      A                      A                      A
 Frequencies --    447.6548               553.7187               623.6194
 Red. masses --      3.1767                 2.5305                 3.6690
 Frc consts  --      0.3751                 0.4571                 0.8407
 IR Inten    --      7.2000                 1.8873                 4.1456

                     10                     11                     12
                      A                      A                      A
 Frequencies --    698.5216               776.4230               793.5832
 Red. masses --      3.5661                 2.7921                 3.4966
 Frc consts  --      1.0252                 0.9917                 1.2974
 IR Inten    --      1.7264                 3.6451                 0.0005

                     13                     14                     15
                      A                      A                      A
 Frequencies --    801.2508               859.8985               882.4610
 Red. masses --      2.5811                 2.4881                 2.7285
 Frc consts  --      0.9763                 1.0840                 1.2519
 IR Inten    --      8.9470                 0.8677                16.2112

                     16                     17                     18
                      A                      A                      A
 Frequencies --    886.2880               928.3706               959.9675
 Red. masses --      2.5871                 2.1050                 2.2379
 Frc consts  --      1.1973                 1.0689                 1.2151
 IR Inten    --     24.6044                14.4820                 5.6070

                     19                     20                     21
                      A                      A                      A
 Frequencies --    977.9632              1006.6350              1020.9836
 Red. masses --      1.8962                 1.9457                 1.9418
 Frc consts  --      1.0685                 1.1616                 1.1926
 IR Inten    --      8.9386                 2.8035                16.7090

                     22                     23                     24
                      A                      A                      A
 Frequencies --   1033.5406              1067.3121              1076.0331
 Red. masses --      2.2553                 4.2688                 1.2401
 Frc consts  --      1.4194                 2.8651                 0.8460
 IR Inten    --     15.1230                75.6964                 0.8997

                     25                     26                     27
                      A                      A                      A
 Frequencies --   1102.4218              1118.9055              1143.4592
 Red. masses --      1.1574                 1.4345                 1.8641
 Frc consts  --      0.8288                 1.0581                 1.4360
 IR Inten    --      0.0516                 2.2242                14.1770

                     28                     29                     30
                      A                      A                      A
 Frequencies --   1161.6293              1210.9028              1230.2891
 Red. masses --      1.6607                 1.4543                 1.4176
 Frc consts  --      1.3203                 1.2564                 1.2642
 IR Inten    --      3.3299                11.4590                 4.1334

                     31                     32                     33
                      A                      A                      A
 Frequencies --   1239.2567              1256.1599              1271.9462
 Red. masses --      1.4167                 1.7385                 1.2826
 Frc consts  --      1.2819                 1.6162                 1.2226
 IR Inten    --      1.5571                 0.7008                 0.1423

                     34                     35                     36
                      A                      A                      A
 Frequencies --   1285.1260              1315.1864              1355.1218
 Red. masses --      1.5689                 1.4973                 1.3189
 Frc consts  --      1.5267                 1.5259                 1.4270
 IR Inten    --      4.1209                 3.3261                 0.8856

                     37                     38                     39
                      A                      A                      A
 Frequencies --   1400.6361              1402.2579              1426.7879
 Red. masses --      1.7386                 1.6277                 1.3696
 Frc consts  --      2.0095                 1.8858                 1.6427
 IR Inten    --     47.4595                 5.3049                21.3688

                     40                     41                     42
                      A                      A                      A
 Frequencies --   1494.5539              1508.5868              3006.5162
 Red. masses --      1.1292                 1.0889                 1.0649
 Frc consts  --      1.4861                 1.4601                 5.6714
 IR Inten    --      6.3959                 1.1502                35.7980

                     43                     44                     45
                      A                      A                      A
 Frequencies --   3054.5952              3068.9814              3096.0744
 Red. masses --      1.0859                 1.0957                 1.0617
 Frc consts  --      5.9697                 6.0806                 5.9961
 IR Inten    --     12.6092                42.7931                20.8306

                     46                     47                     48
                      A                      A                      A
 Frequencies --   3112.3517              3119.8813              3169.1232
 Red. masses --      1.0876                 1.0889                 1.0878
 Frc consts  --      6.2073                 6.2448                 6.4369
 IR Inten    --     54.2350                32.6065                17.5476

                     49                     50                     51
                      A                      A                      A
 Frequencies --   3170.4659              3181.5650              3816.3172
 Red. masses --      1.1068                 1.0977                 1.0662
 Frc consts  --      6.5550                 6.5466                 9.1490
 IR Inten    --     12.8794                17.3348                11.4933

 - Thermochemistry -
 -------------------
 Temperature   298.150 Kelvin.  Pressure   1.00000 Atm.
 Atom     1 has atomic number  8 and mass  15.99491

 Molecular mass:   126.06808 amu.
 Principal axes and moments of inertia in atomic units:
                           1         2         3
     Eigenvalues --   537.278741402.874231509.40127
           X            0.99981  -0.01925   0.00087
           Y            0.01927   0.99939  -0.02903
           Z           -0.00031   0.02905   0.99958
 This molecule is an asymmetric top.
 Rotational symmetry number  1.
 Warning -- assumption of classical behavior for rotation
           may cause significant error
 Rotational temperatures (Kelvin)      0.16121     0.06174     0.05738
 Rotational constants (GHZ):           3.35904     1.28646     1.19567
 Zero-point vibrational energy     422788.6 (Joules/Mol)
                                  101.04890 (Kcal/Mol)
 Warning -- explicit consideration of   8 degrees of freedom as
           vibrations may cause significant error
 Vibrational temperatures:    117.47   239.44   331.59   423.74   511.28
          (Kelvin)            637.38   644.07   796.68   897.25  1005.02
                             1117.10  1141.79  1152.82  1237.20  1269.66
                             1275.17  1335.72  1381.18  1407.07  1448.32
                             1468.97  1487.03  1535.62  1548.17  1586.14
                             1609.85  1645.18  1671.32  1742.22  1770.11
                             1783.01  1807.33  1830.04  1849.01  1892.26
                             1949.72  2015.20  2017.53  2052.83  2150.33
                             2170.52  4325.70  4394.88  4415.57  4454.55
                             4477.97  4488.81  4559.66  4561.59  4577.56
                             5490.82

 Zero-point correction=                           0.161032 (Hartree/Particle)
 Thermal correction to Energy=                    0.168463
 Thermal correction to Enthalpy=                  0.169407
 Thermal correction to Gibbs Free Energy=         0.129028
 Sum of electronic and zero-point Energies=           -422.965255
 Sum of electronic and thermal Energies=              -422.957824
 Sum of electronic and thermal Enthalpies=            -422.956880
 Sum of electronic and thermal Free Energies=         -422.997260

                     E (Thermal)             CV                S
                      KCal/Mol        Cal/Mol-Kelvin    Cal/Mol-Kelvin
 Total                  105.712             29.896             84.987
 Electronic               0.000              0.000              0.000
 Translational            0.889              2.981             40.409
 Rotational               0.889              2.981             28.522
 Vibrational            103.935             23.935             16.056
 Vibration     1          0.600              1.962              3.851
 Vibration     2          0.624              1.884              2.476
 Vibration     3          0.652              1.794              1.875
 Vibration     4          0.689              1.684              1.448
 Vibration     5          0.731              1.564              1.142
 Vibration     6          0.803              1.376              0.817
 Vibration     7          0.807              1.366              0.803
 Vibration     8          0.909              1.132              0.537

 Optimization completed.
    -- Stationary point found.
 Normal termination of Gaussian 09 at Tue Jan 28 14:52:55 2020.
