 Gaussian 09, Revision D.01,
 Gaussian 09:  ES64L-G09RevD.01 24-Apr-2013

 -----------------------------
 # b3lyp 6-31G(2df,p) opt Freq
 -----------------------------

 -----
 titel
 -----
 Symbolic Z-matrix:
 Charge =  0 Multiplicity = 1

 SCF Done:  E(RB3LYP) =  -423.156290907     A.U. after   13 cycles
 Optimization completed.
    -- Stationary point found.
 Normal termination of Gaussian 09 at Tue Jan 28 03:21:18 2020.

 ----------------------------------------------------------------------
 #N Geom=AllCheck Guess=TCheck SCRF=Check GenChk RB3LYP/6-31G(2df,p) Fr
 eq
 ----------------------------------------------------------------------

 Structure from the checkpoint file:  "/scratch/puck/g09_b5c1a2d2-8389-44bd-99e5-a87f2fd62246/Gau-89199.chk"
 -----
 titel
 -----
 Charge =  0 Multiplicity = 1

                         Standard orientation:
 ---------------------------------------------------------------------
 Center     Atomic      Atomic             Coordinates (Angstroms)
 Number     Number       Type             X           Y           Z
 ---------------------------------------------------------------------
      1          6           0       -2.536447   -0.577035   -0.013203
      2          6           0       -1.084028   -0.465449    0.438151
      3          8           0       -0.321041   -1.233769   -0.478630
      4          6           0        1.060719   -1.038250   -0.518705
      5          6           0        1.934844   -0.842843    0.690589
      6          6           0        1.674819    0.310286   -0.281909
      7          6           0        0.736600    1.369980    0.179879
      8          8           0       -0.377775    1.677841   -0.683397
      9          6           0       -0.633635    0.983323    0.533682
     10          1           0       -2.822883   -1.628278   -0.096713
     11          1           0       -3.202067   -0.089104    0.705181
     12          1           0       -2.657754   -0.100954   -0.989662
     13          1           0       -0.985573   -0.892699    1.452044
     14          1           0        1.465366   -1.641032   -1.324115
     15          1           0        1.475959   -0.767146    1.669948
     16          1           0        2.912028   -1.312934    0.691125
     17          1           0        2.484212    0.632164   -0.929766
     18          1           0        1.173854    2.246415    0.657821
     19          1           0       -1.169839    1.560927    1.289457
 ---------------------------------------------------------------------

 SCF Done:  E(RB3LYP) =  -423.156290907     A.U. after    1 cycles

 The electronic state is 1-A.
 Alpha  occ. eigenvalues --  -19.14680 -19.14573 -10.24083 -10.24002 -10.23899
 Alpha  occ. eigenvalues --  -10.23584 -10.19421 -10.19081 -10.17557  -1.07258
 Alpha  occ. eigenvalues --   -1.03678  -0.85791  -0.77240  -0.69034  -0.66202
 Alpha  occ. eigenvalues --   -0.62600  -0.59317  -0.53135  -0.52740  -0.51246
 Alpha  occ. eigenvalues --   -0.48714  -0.45756  -0.41883  -0.40062  -0.39524
 Alpha  occ. eigenvalues --   -0.38799  -0.37800  -0.37365  -0.35524  -0.34309
 Alpha  occ. eigenvalues --   -0.29727  -0.28272  -0.26126  -0.23616
 Alpha virt. eigenvalues --    0.08407   0.08933   0.10036   0.10775   0.12177
 Alpha virt. eigenvalues --    0.14023   0.14322   0.15546   0.16577   0.16952
 Alpha virt. eigenvalues --    0.17633   0.18435   0.19725   0.21059   0.22885

 Mulliken charges:
               1
     1  C   -0.399420
     2  C    0.091930
     3  O   -0.269564
     4  C    0.149173
     5  C   -0.345317
     6  C   -0.109623
     7  C    0.038615
     8  O   -0.261473
     9  C    0.031849
    10  H    0.126157
    11  H    0.112581
    12  H    0.141421
    13  H    0.072612
    14  H    0.106179
    15  H    0.120585
    16  H    0.116709
    17  H    0.094005
    18  H    0.092362
    19  H    0.091217
 Sum of Mulliken charges =   0.00000

 Dipole moment (field-independent basis, Debye):
    X=              0.9461    Y=             -0.2308    Z=              1.8804  Tot=              2.1176
 Quadrupole moment (field-independent basis, Debye-Ang):
   XX=            -48.4737   YY=            -55.8560   ZZ=            -53.0047
   XY=              0.0467   XZ=             -2.7636   YZ=              2.2623

  Exact polarizability:  88.006  -0.370  71.073  -2.349   0.645  64.037
 Approx polarizability: 116.262   0.441 103.952  -1.375  -2.060 104.005

                      1                      2                      3
                      A                      A                      A
 Frequencies --    111.4031               194.6933               236.4465
 Red. masses --      3.5190                 2.4946                 1.5310
 Frc consts  --      0.0257                 0.0557                 0.0504
 IR Inten    --      1.9925                 1.9025                 1.9206

                      4                      5                      6
                      A                      A                      A
 Frequencies --    252.5459               324.9260               351.7553
 Red. masses --      2.1357                 2.8208                 4.0751
 Frc consts  --      0.0803                 0.1755                 0.2971
 IR Inten    --      1.8753                 2.0205                 0.7632

                      7                      8                      9
                      A                      A                      A
 Frequencies --    422.6998               505.7929               565.3808
 Red. masses --      5.0009                 3.1683                 3.3836
 Frc consts  --      0.5265                 0.4776                 0.6372
 IR Inten    --      4.0592                 1.1801                 0.4491

                     10                     11                     12
                      A                      A                      A
 Frequencies --    658.3694               704.4573               766.5562
 Red. masses --      3.3769                 2.8750                 2.2180
 Frc consts  --      0.8624                 0.8406                 0.7679
 IR Inten    --     16.6376                 1.9323                 7.9160

                     13                     14                     15
                      A                      A                      A
 Frequencies --    780.8351               821.0748               846.6418
 Red. masses --      3.9560                 1.5920                 3.5826
 Frc consts  --      1.4211                 0.6323                 1.5130
 IR Inten    --     13.6099                 8.6470                11.0183

                     16                     17                     18
                      A                      A                      A
 Frequencies --    892.2624               898.8385               953.1308
 Red. masses --      2.7732                 2.3705                 2.6121
 Frc consts  --      1.3008                 1.1284                 1.3981
 IR Inten    --     13.5914                19.2993                22.2274

                     19                     20                     21
                      A                      A                      A
 Frequencies --   1002.1169              1016.1458              1044.7366
 Red. masses --      2.0775                 2.0947                 1.4608
 Frc consts  --      1.2292                 1.2743                 0.9394
 IR Inten    --      0.6012                 4.0895                 8.0546

                     22                     23                     24
                      A                      A                      A
 Frequencies --   1049.0838              1073.5942              1099.9045
 Red. masses --      1.5966                 1.3997                 1.9473
 Frc consts  --      1.0353                 0.9505                 1.3880
 IR Inten    --     15.3516                22.2612                 9.3935

                     25                     26                     27
                      A                      A                      A
 Frequencies --   1125.9446              1140.6512              1152.1313
 Red. masses --      1.2456                 2.2040                 1.5877
 Frc consts  --      0.9304                 1.6896                 1.2417
 IR Inten    --      1.8962                12.6910                 0.2389

                     28                     29                     30
                      A                      A                      A
 Frequencies --   1164.3465              1197.8565              1248.4288
 Red. masses --      1.5949                 1.7382                 2.4531
 Frc consts  --      1.2740                 1.4695                 2.2526
 IR Inten    --      3.4323                20.8207               103.5133

                     31                     32                     33
                      A                      A                      A
 Frequencies --   1288.6725              1344.8382              1362.6650
 Red. masses --      1.3771                 1.2472                 1.2145
 Frc consts  --      1.3474                 1.3290                 1.3287
 IR Inten    --     16.1862                 8.6451                 1.6578

                     34                     35                     36
                      A                      A                      A
 Frequencies --   1377.6539              1395.9360              1403.8527
 Red. masses --      1.5461                 1.9469                 1.2978
 Frc consts  --      1.7289                 2.2352                 1.5069
 IR Inten    --      3.3469                 8.7308                 6.7386

                     37                     38                     39
                      A                      A                      A
 Frequencies --   1419.5679              1471.2070              1483.9802
 Red. masses --      1.4228                 2.2565                 1.0635
 Frc consts  --      1.6892                 2.8776                 1.3799
 IR Inten    --     15.7246                 9.1889                 3.8314

                     40                     41                     42
                      A                      A                      A
 Frequencies --   1495.3387              1500.0994              2944.4745
 Red. masses --      1.5666                 1.1581                 1.0810
 Frc consts  --      2.0639                 1.5354                 5.5220
 IR Inten    --     31.5745                 5.7602                44.2855

                     43                     44                     45
                      A                      A                      A
 Frequencies --   3046.7404              3087.8773              3111.3732
 Red. masses --      1.0346                 1.0862                 1.0894
 Frc consts  --      5.6583                 6.1020                 6.2137
 IR Inten    --     15.4163                25.0675                38.4659

                     46                     47                     48
                      A                      A                      A
 Frequencies --   3122.2774              3132.4369              3138.2529
 Red. masses --      1.1012                 1.1031                 1.0544
 Frc consts  --      6.3253                 6.3771                 6.1181
 IR Inten    --     23.6137                14.3310                10.3814

                     49                     50                     51
                      A                      A                      A
 Frequencies --   3153.6001              3174.8305              3224.9347
 Red. masses --      1.0891                 1.0914                 1.1158
 Frc consts  --      6.3813                 6.4815                 6.8374
 IR Inten    --     13.6515                17.2955                10.8527

 - Thermochemistry -
 -------------------
 Temperature   298.150 Kelvin.  Pressure   1.00000 Atm.
 Atom     1 has atomic number  6 and mass  12.00000

 Molecular mass:   126.06808 amu.
 Principal axes and moments of inertia in atomic units:
                           1         2         3
     Eigenvalues --   670.941241020.313071414.81615
           X            0.99992   0.01107  -0.00623
           Y           -0.01097   0.99982   0.01551
           Z            0.00640  -0.01544   0.99986
 This molecule is an asymmetric top.
 Rotational symmetry number  1.
 Warning -- assumption of classical behavior for rotation
           may cause significant error
 Rotational temperatures (Kelvin)      0.12909     0.08489     0.06122
 Rotational constants (GHZ):           2.68986     1.76881     1.27560
 Zero-point vibrational energy     420387.8 (Joules/Mol)
                                  100.47511 (Kcal/Mol)
 Warning -- explicit consideration of   9 degrees of freedom as
           vibrations may cause significant error
 Vibrational temperatures:    160.28   280.12   340.19   363.36   467.50
          (Kelvin)            506.10   608.17   727.72   813.46   947.25
                             1013.56  1102.90  1123.45  1181.34  1218.13
                             1283.76  1293.23  1371.34  1441.82  1462.01
                             1503.14  1509.40  1544.66  1582.52  1619.98
                             1641.14  1657.66  1675.23  1723.45  1796.21
                             1854.11  1934.92  1960.57  1982.13  2008.44
                             2019.83  2042.44  2116.74  2135.11  2151.46
                             2158.31  4236.44  4383.57  4442.76  4476.57
                             4492.26  4506.87  4515.24  4537.32  4567.87
                             4639.96

 Zero-point correction=                           0.160117 (Hartree/Particle)
 Thermal correction to Energy=                    0.167744
 Thermal correction to Enthalpy=                  0.168688
 Thermal correction to Gibbs Free Energy=         0.128279
 Sum of electronic and zero-point Energies=           -422.996174
 Sum of electronic and thermal Energies=              -422.988547
 Sum of electronic and thermal Enthalpies=            -422.987603
 Sum of electronic and thermal Free Energies=         -423.028012

                     E (Thermal)             CV                S
                      KCal/Mol        Cal/Mol-Kelvin    Cal/Mol-Kelvin
 Total                  105.261             30.484             85.048
 Electronic               0.000              0.000              0.000
 Translational            0.889              2.981             40.409
 Rotational               0.889              2.981             28.362
 Vibrational            103.483             24.522             16.277
 Vibration     1          0.607              1.940              3.244
 Vibration     2          0.635              1.847              2.183
 Vibration     3          0.655              1.785              1.829
 Vibration     4          0.664              1.758              1.713
 Vibration     5          0.709              1.626              1.285
 Vibration     6          0.728              1.572              1.158
 Vibration     7          0.785              1.421              0.883
 Vibration     8          0.861              1.237              0.644
 Vibration     9          0.921              1.106              0.513

 Optimization completed.
    -- Stationary point found.
 Normal termination of Gaussian 09 at Tue Jan 28 04:05:46 2020.
