 Gaussian 09, Revision D.01,
 Gaussian 09:  ES64L-G09RevD.01 24-Apr-2013

 -----------------------------
 # b3lyp 6-31G(2df,p) opt Freq
 -----------------------------

 -----
 titel
 -----
 Symbolic Z-matrix:
 Charge =  0 Multiplicity = 1

 SCF Done:  E(RB3LYP) =  -423.104752436     A.U. after   14 cycles
 Optimization completed.
    -- Stationary point found.
 Normal termination of Gaussian 09 at Mon Jan 27 18:08:00 2020.

 ----------------------------------------------------------------------
 #N Geom=AllCheck Guess=TCheck SCRF=Check GenChk RB3LYP/6-31G(2df,p) Fr
 eq
 ----------------------------------------------------------------------

 Structure from the checkpoint file:  "/scratch/puck/g09_0592e737-38be-4e59-b2dd-f796c6016be9/Gau-62828.chk"
 -----
 titel
 -----
 Charge =  0 Multiplicity = 1

                         Standard orientation:
 ---------------------------------------------------------------------
 Center     Atomic      Atomic             Coordinates (Angstroms)
 Number     Number       Type             X           Y           Z
 ---------------------------------------------------------------------
      1          6           0        2.729994   -0.076882    0.067700
      2          6           0        1.231273   -0.000745    0.065378
      3          6           0        0.294863   -0.735984    1.037182
      4          6           0       -0.591611   -0.600428   -0.206252
      5          6           0       -2.117885   -0.747305   -0.100251
      6          8           0       -2.127985    0.642709    0.383670
      7          6           0       -0.868561    0.863405   -0.352438
      8          6           0        0.517876    1.416340    0.046584
      9          8           0        0.589845   -0.801800   -1.039137
     10          1           0        3.066175   -1.116212    0.106354
     11          1           0        3.142416    0.386786   -0.833961
     12          1           0        3.131913    0.453969    0.937125
     13          1           0        0.591789   -1.774707    1.191904
     14          1           0       -0.008686   -0.250282    1.966592
     15          1           0       -2.649217   -0.838628   -1.055431
     16          1           0       -2.521790   -1.442234    0.640390
     17          1           0       -1.126144    1.151453   -1.377651
     18          1           0        0.914040    2.100920   -0.706556
     19          1           0        0.588941    1.891255    1.027554
 ---------------------------------------------------------------------

 SCF Done:  E(RB3LYP) =  -423.104752436     A.U. after    1 cycles

 The electronic state is 1-A.
 Alpha  occ. eigenvalues --  -19.14338 -19.13840 -10.25147 -10.24245 -10.23755
 Alpha  occ. eigenvalues --  -10.22430 -10.19319 -10.18563 -10.18538  -1.05652
 Alpha  occ. eigenvalues --   -1.02055  -0.79859  -0.75194  -0.72567  -0.68891
 Alpha  occ. eigenvalues --   -0.64121  -0.55425  -0.53939  -0.49630  -0.47922
 Alpha  occ. eigenvalues --   -0.46987  -0.45743  -0.43457  -0.42651  -0.39241
 Alpha  occ. eigenvalues --   -0.38603  -0.37889  -0.35503  -0.33856  -0.33774
 Alpha  occ. eigenvalues --   -0.31145  -0.28978  -0.25641  -0.24390
 Alpha virt. eigenvalues --    0.05683   0.08830   0.10003   0.10507   0.11930
 Alpha virt. eigenvalues --    0.12704   0.14045   0.14252   0.15054   0.16767
 Alpha virt. eigenvalues --    0.17143   0.18156   0.18411   0.19475   0.20581

 Mulliken charges:
               1
     1  C   -0.497614
     2  C    0.395370
     3  C   -0.290709
     4  C    0.378202
     5  C   -0.210684
     6  O   -0.314674
     7  C    0.142925
     8  C   -0.347491
     9  O   -0.402522
    10  H    0.132053
    11  H    0.132380
    12  H    0.125210
    13  H    0.105498
    14  H    0.106909
    15  H    0.115048
    16  H    0.116717
    17  H    0.084560
    18  H    0.108200
    19  H    0.120624
 Sum of Mulliken charges =   0.00000

 Dipole moment (field-independent basis, Debye):
    X=              1.1217    Y=             -0.1096    Z=              0.7222  Tot=              1.3386
 Quadrupole moment (field-independent basis, Debye-Ang):
   XX=            -53.1710   YY=            -52.6572   ZZ=            -54.1188
   XY=              4.7699   XZ=              3.3337   YZ=             -2.6318

  Exact polarizability:  89.799   5.437  70.848   1.421  -3.094  65.573
 Approx polarizability: 119.017   4.987 107.868  -2.498   0.651 105.561

                      1                      2                      3
                      A                      A                      A
 Frequencies --    186.5344               202.4132               248.7347
 Red. masses --      2.2695                 1.2193                 2.8298
 Frc consts  --      0.0465                 0.0294                 0.1032
 IR Inten    --      1.0198                 1.1147                 1.2852

                      4                      5                      6
                      A                      A                      A
 Frequencies --    284.1163               361.3773               411.1777
 Red. masses --      2.4418                 2.6342                 2.6873
 Frc consts  --      0.1161                 0.2027                 0.2677
 IR Inten    --      5.7614                 5.7657                 7.0078

                      7                      8                      9
                      A                      A                      A
 Frequencies --    430.3402               535.0697               553.6257
 Red. masses --      2.3169                 3.8343                 2.9934
 Frc consts  --      0.2528                 0.6468                 0.5406
 IR Inten    --      2.3902                 2.5947                 6.3301

                     10                     11                     12
                      A                      A                      A
 Frequencies --    623.3236               671.2503               718.1477
 Red. masses --      3.6820                 4.1586                 3.5815
 Frc consts  --      0.8429                 1.1040                 1.0883
 IR Inten    --      6.6377                20.4787                 4.5189

                     13                     14                     15
                      A                      A                      A
 Frequencies --    752.3457               793.7456               832.4065
 Red. masses --      3.1992                 2.5989                 3.5724
 Frc consts  --      1.0669                 0.9647                 1.4584
 IR Inten    --     12.5677                 9.8333                22.0452

                     16                     17                     18
                      A                      A                      A
 Frequencies --    898.4189               905.3834               940.7023
 Red. masses --      4.1638                 2.0213                 2.7249
 Frc consts  --      1.9801                 0.9762                 1.4207
 IR Inten    --     37.1981                13.5234                20.9708

                     19                     20                     21
                      A                      A                      A
 Frequencies --    988.1409               992.3473              1033.2850
 Red. masses --      1.6266                 1.9898                 1.7592
 Frc consts  --      0.9358                 1.1545                 1.1066
 IR Inten    --      6.6844                 7.4410                 6.4595

                     22                     23                     24
                      A                      A                      A
 Frequencies --   1054.1552              1072.2197              1101.4924
 Red. masses --      2.1093                 1.7986                 1.8241
 Frc consts  --      1.3810                 1.2183                 1.3039
 IR Inten    --      4.8474                 7.4318                 5.3655

                     25                     26                     27
                      A                      A                      A
 Frequencies --   1127.0110              1157.0164              1182.6175
 Red. masses --      1.4249                 1.5922                 1.9103
 Frc consts  --      1.0664                 1.2558                 1.5741
 IR Inten    --      5.9945                22.2736                18.4222

                     28                     29                     30
                      A                      A                      A
 Frequencies --   1192.2922              1218.4788              1227.5927
 Red. masses --      1.5154                 1.6207                 2.2498
 Frc consts  --      1.2692                 1.4177                 1.9976
 IR Inten    --      6.1103                 0.7846                11.3946

                     31                     32                     33
                      A                      A                      A
 Frequencies --   1257.3380              1292.7269              1317.8688
 Red. masses --      2.3837                 1.8887                 1.7912
 Frc consts  --      2.2203                 1.8597                 1.8329
 IR Inten    --     31.8953                20.5008                 1.6115

                     34                     35                     36
                      A                      A                      A
 Frequencies --   1358.5265              1394.5851              1416.1152
 Red. masses --      2.3952                 1.1957                 1.5260
 Frc consts  --      2.6046                 1.3701                 1.8031
 IR Inten    --      1.1599                10.0939                 9.6581

                     37                     38                     39
                      A                      A                      A
 Frequencies --   1473.1892              1478.4848              1493.4216
 Red. masses --      1.1125                 1.0493                 1.0495
 Frc consts  --      1.4226                 1.3514                 1.3791
 IR Inten    --      1.5048                 4.6857                 4.9296

                     40                     41                     42
                      A                      A                      A
 Frequencies --   1501.4309              1506.0358              3028.2865
 Red. masses --      1.2084                 1.1131                 1.0606
 Frc consts  --      1.6051                 1.4874                 5.7307
 IR Inten    --      1.7022                 0.7532                46.1907

                     43                     44                     45
                      A                      A                      A
 Frequencies --   3039.2572              3039.7218              3070.8526
 Red. masses --      1.0818                 1.0362                 1.0569
 Frc consts  --      5.8874                 5.6410                 5.8724
 IR Inten    --     52.4576                11.7108                28.0584

                     46                     47                     48
                      A                      A                      A
 Frequencies --   3076.4071              3105.1985              3108.0672
 Red. masses --      1.0591                 1.1079                 1.1007
 Frc consts  --      5.9056                 6.2941                 6.2645
 IR Inten    --     11.7104                28.9134                11.3107

                     49                     50                     51
                      A                      A                      A
 Frequencies --   3121.5707              3126.8226              3142.8594
 Red. masses --      1.1018                 1.1074                 1.1105
 Frc consts  --      6.3253                 6.3791                 6.4629
 IR Inten    --     10.9025                18.7745                21.1041

 - Thermochemistry -
 -------------------
 Temperature   298.150 Kelvin.  Pressure   1.00000 Atm.
 Atom     1 has atomic number  6 and mass  12.00000

 Molecular mass:   126.06808 amu.
 Principal axes and moments of inertia in atomic units:
                           1         2         3
     Eigenvalues --   467.937311245.879941383.21423
           X            0.99952   0.02797   0.01364
           Y           -0.02655   0.99508  -0.09540
           Z           -0.01624   0.09499   0.99535
 This molecule is an asymmetric top.
 Rotational symmetry number  1.
 Warning -- assumption of classical behavior for rotation
           may cause significant error
 Rotational temperatures (Kelvin)      0.18510     0.06952     0.06262
 Rotational constants (GHZ):           3.85680     1.44857     1.30474
 Zero-point vibrational energy     418959.3 (Joules/Mol)
                                  100.13368 (Kcal/Mol)
 Warning -- explicit consideration of   9 degrees of freedom as
           vibrations may cause significant error
 Vibrational temperatures:    268.38   291.23   357.87   408.78   519.94
          (Kelvin)            591.59   619.16   769.84   796.54   896.82
                              965.78  1033.25  1082.46  1142.02  1197.65
                             1292.62  1302.64  1353.46  1421.71  1427.76
                             1486.66  1516.69  1542.68  1584.80  1621.52
                             1664.69  1701.52  1715.44  1753.12  1766.23
                             1809.03  1859.94  1896.12  1954.61  2006.49
                             2037.47  2119.59  2127.21  2148.70  2160.22
                             2166.85  4357.02  4372.81  4373.48  4418.27
                             4426.26  4467.68  4471.81  4491.24  4498.79
                             4521.87

 Zero-point correction=                           0.159573 (Hartree/Particle)
 Thermal correction to Energy=                    0.166947
 Thermal correction to Enthalpy=                  0.167891
 Thermal correction to Gibbs Free Energy=         0.128335
 Sum of electronic and zero-point Energies=           -422.945179
 Sum of electronic and thermal Energies=              -422.937805
 Sum of electronic and thermal Enthalpies=            -422.936861
 Sum of electronic and thermal Free Energies=         -422.976417

                     E (Thermal)             CV                S
                      KCal/Mol        Cal/Mol-Kelvin    Cal/Mol-Kelvin
 Total                  104.761             30.430             83.253
 Electronic               0.000              0.000              0.000
 Translational            0.889              2.981             40.409
 Rotational               0.889              2.981             28.180
 Vibrational            102.983             24.469             14.664
 Vibration     1          0.632              1.858              2.262
 Vibration     2          0.639              1.836              2.111
 Vibration     3          0.662              1.765              1.740
 Vibration     4          0.683              1.703              1.509
 Vibration     5          0.736              1.552              1.116
 Vibration     6          0.775              1.446              0.922
 Vibration     7          0.792              1.404              0.858
 Vibration     8          0.890              1.172              0.576
 Vibration     9          0.909              1.132              0.537

 Normal termination of Gaussian 09 at Mon Jan 27 18:53:34 2020.
