 Gaussian 09, Revision D.01,
 Gaussian 09:  ES64L-G09RevD.01 24-Apr-2013

 -----------------------------
 # b3lyp 6-31G(2df,p) opt Freq
 -----------------------------

 -----
 titel
 -----
 Symbolic Z-matrix:
 Charge =  0 Multiplicity = 1

 SCF Done:  E(RB3LYP) =  -423.187623148     A.U. after   14 cycles
 Optimization completed.
    -- Stationary point found.
 Normal termination of Gaussian 09 at Tue Jan 28 00:04:17 2020.

 ----------------------------------------------------------------------
 #N Geom=AllCheck Guess=TCheck SCRF=Check GenChk RB3LYP/6-31G(2df,p) Fr
 eq
 ----------------------------------------------------------------------

 Structure from the checkpoint file:  "/scratch/puck/g09_80891bf3-5452-451b-8d85-9eba557fd9cb/Gau-56587.chk"
 -----
 titel
 -----
 Charge =  0 Multiplicity = 1

                         Standard orientation:
 ---------------------------------------------------------------------
 Center     Atomic      Atomic             Coordinates (Angstroms)
 Number     Number       Type             X           Y           Z
 ---------------------------------------------------------------------
      1          6           0        2.867045   -1.015112   -0.103554
      2          6           0        1.655199   -0.145593   -0.354626
      3          6           0        0.941018    0.496935    0.808553
      4          6           0        0.107429    1.726429    0.506444
      5          8           0       -0.673319    1.397396   -0.650631
      6          6           0       -0.887370   -0.011091   -0.673293
      7          6           0       -2.228162   -0.369824   -0.032100
      8          8           0       -2.504737   -1.456447    0.404366
      9          6           0        0.288927   -0.638844    0.048301
     10          1           0        3.012533   -1.736902   -0.914388
     11          1           0        3.777859   -0.411745   -0.024742
     12          1           0        2.761180   -1.580557    0.828334
     13          1           0        1.693289    0.444323   -1.268631
     14          1           0        1.320744    0.358418    1.814422
     15          1           0       -0.540447    1.968025    1.363559
     16          1           0        0.687549    2.619466    0.251300
     17          1           0       -0.956075   -0.300386   -1.733112
     18          1           0       -2.949652    0.478968   -0.020053
     19          1           0        0.152954   -1.624597    0.475072
 ---------------------------------------------------------------------

 SCF Done:  E(RB3LYP) =  -423.187623148     A.U. after    1 cycles

 The electronic state is 1-A.
 Alpha  occ. eigenvalues --  -19.15029 -19.14656 -10.27171 -10.24440 -10.23659
 Alpha  occ. eigenvalues --  -10.19866 -10.19751 -10.19725 -10.18417  -1.05683
 Alpha  occ. eigenvalues --   -1.04365  -0.87114  -0.76037  -0.72708  -0.66159
 Alpha  occ. eigenvalues --   -0.60184  -0.57363  -0.56527  -0.51493  -0.48163
 Alpha  occ. eigenvalues --   -0.47657  -0.45542  -0.43708  -0.42158  -0.41323
 Alpha  occ. eigenvalues --   -0.40308  -0.38965  -0.37237  -0.36245  -0.32549
 Alpha  occ. eigenvalues --   -0.29916  -0.29111  -0.27595  -0.24044
 Alpha virt. eigenvalues --   -0.02960   0.09516   0.10685   0.11187   0.11655
 Alpha virt. eigenvalues --    0.12420   0.13583   0.14838   0.15419   0.16295
 Alpha virt. eigenvalues --    0.17003   0.17966   0.18461   0.19442   0.21719

 Mulliken charges:
               1
     1  C   -0.422625
     2  C   -0.025850
     3  C   -0.065337
     4  C   -0.112075
     5  O   -0.270467
     6  C   -0.005585
     7  C    0.132630
     8  O   -0.243496
     9  C   -0.060354
    10  H    0.122338
    11  H    0.120732
    12  H    0.117358
    13  H    0.094676
    14  H    0.092185
    15  H    0.098401
    16  H    0.113511
    17  H    0.113522
    18  H    0.090279
    19  H    0.110160
 Sum of Mulliken charges =   0.00000

 Dipole moment (field-independent basis, Debye):
    X=              1.9144    Y=              0.9488    Z=              0.1081  Tot=              2.1394
 Quadrupole moment (field-independent basis, Debye-Ang):
   XX=            -55.5216   YY=            -56.6485   ZZ=            -51.8813
   XY=             -3.8032   XZ=              1.9531   YZ=              3.2795

  Exact polarizability:  86.671  -1.332  76.177  -1.316   1.713  64.100
 Approx polarizability: 108.884   3.642 116.908  -2.166  -1.414 101.624

                      1                      2                      3
                      A                      A                      A
 Frequencies --     64.9116               122.4823               154.1148
 Red. masses --      3.7724                 3.7789                 2.4918
 Frc consts  --      0.0094                 0.0334                 0.0349
 IR Inten    --      8.3021                 1.7920                 2.2913

                      4                      5                      6
                      A                      A                      A
 Frequencies --    206.3431               229.0658               269.6717
 Red. masses --      1.2189                 2.6099                 2.5584
 Frc consts  --      0.0306                 0.0807                 0.1096
 IR Inten    --      1.2885                 2.7725                 1.6773

                      7                      8                      9
                      A                      A                      A
 Frequencies --    308.1107               390.2353               434.5251
 Red. masses --      2.3959                 3.5507                 3.4407
 Frc consts  --      0.1340                 0.3186                 0.3828
 IR Inten    --      5.8392                 2.8562                 8.5741

                     10                     11                     12
                      A                      A                      A
 Frequencies --    571.1125               683.5416               746.1508
 Red. masses --      4.8337                 3.7628                 5.3202
 Frc consts  --      0.9289                 1.0358                 1.7451
 IR Inten    --      7.3611                 0.0662                15.1880

                     13                     14                     15
                      A                      A                      A
 Frequencies --    802.6092               819.3621               846.9852
 Red. masses --      2.3882                 2.5433                 1.7463
 Frc consts  --      0.9064                 1.0060                 0.7381
 IR Inten    --      7.9922                 0.6798                 2.7306

                     16                     17                     18
                      A                      A                      A
 Frequencies --    918.0044               951.1825               977.8777
 Red. masses --      2.2219                 2.7164                 1.5804
 Frc consts  --      1.1032                 1.4480                 0.8904
 IR Inten    --     11.9550                19.3897                 2.1048

                     19                     20                     21
                      A                      A                      A
 Frequencies --    996.7096              1016.9566              1052.1461
 Red. masses --      1.6222                 1.8149                 1.9826
 Frc consts  --      0.9495                 1.1059                 1.2931
 IR Inten    --      1.9233                 6.6731                 3.2816

                     22                     23                     24
                      A                      A                      A
 Frequencies --   1078.3110              1097.6027              1112.7580
 Red. masses --      1.8517                 1.5360                 2.6107
 Frc consts  --      1.2686                 1.0903                 1.9046
 IR Inten    --      6.0529                12.5601                40.1442

                     25                     26                     27
                      A                      A                      A
 Frequencies --   1124.7987              1140.1118              1148.5484
 Red. masses --      2.4359                 1.9365                 1.5225
 Frc consts  --      1.8158                 1.4831                 1.1833
 IR Inten    --     34.6706                 4.0520                 1.6156

                     28                     29                     30
                      A                      A                      A
 Frequencies --   1211.6274              1232.2524              1260.4733
 Red. masses --      1.7713                 1.1782                 1.3850
 Frc consts  --      1.5321                 1.0541                 1.2965
 IR Inten    --      1.0737                 8.0060                 2.1516

                     31                     32                     33
                      A                      A                      A
 Frequencies --   1298.0578              1312.0461              1339.7148
 Red. masses --      1.4401                 1.5989                 1.5178
 Frc consts  --      1.4297                 1.6217                 1.6051
 IR Inten    --      2.8328                 2.7945                 2.0610

                     34                     35                     36
                      A                      A                      A
 Frequencies --   1375.2784              1394.1854              1418.1371
 Red. masses --      1.3531                 1.2838                 1.2484
 Frc consts  --      1.5079                 1.4702                 1.4793
 IR Inten    --      2.2810                14.5888                 2.6735

                     37                     38                     39
                      A                      A                      A
 Frequencies --   1451.2778              1493.6557              1502.8125
 Red. masses --      2.4380                 1.0447                 1.0920
 Frc consts  --      3.0254                 1.3733                 1.4531
 IR Inten    --      2.2623                 1.8116                 5.4330

                     40                     41                     42
                      A                      A                      A
 Frequencies --   1519.4815              1832.6938              2879.2461
 Red. masses --      1.0904                11.0442                 1.0842
 Frc consts  --      1.4833                21.8556                 5.2957
 IR Inten    --      0.4356               132.2341               103.5190

                     43                     44                     45
                      A                      A                      A
 Frequencies --   2982.5260              2997.7548              3029.0628
 Red. masses --      1.0696                 1.0818                 1.0351
 Frc consts  --      5.6056                 5.7280                 5.5956
 IR Inten    --     77.8844                26.1197                33.3742

                     46                     47                     48
                      A                      A                      A
 Frequencies --   3068.2407              3093.6565              3095.6375
 Red. masses --      1.0940                 1.1014                 1.0993
 Frc consts  --      6.0681                 6.2108                 6.2069
 IR Inten    --     35.7661                23.2843                14.9044

                     49                     50                     51
                      A                      A                      A
 Frequencies --   3127.7809              3178.3175              3200.0011
 Red. masses --      1.0891                 1.0898                 1.0913
 Frc consts  --      6.2775                 6.4865                 6.5843
 IR Inten    --     19.3778                 9.8338                 2.4675

 - Thermochemistry -
 -------------------
 Temperature   298.150 Kelvin.  Pressure   1.00000 Atm.
 Atom     1 has atomic number  6 and mass  12.00000

 Molecular mass:   126.06808 amu.
 Principal axes and moments of inertia in atomic units:
                           1         2         3
     Eigenvalues --   648.173591446.627251816.42953
           X            0.99890  -0.04691   0.00188
           Y            0.04683   0.99837   0.03273
           Z           -0.00341  -0.03261   0.99946
 This molecule is an asymmetric top.
 Rotational symmetry number  1.
 Warning -- assumption of classical behavior for rotation
           may cause significant error
 Rotational temperatures (Kelvin)      0.13363     0.05987     0.04768
 Rotational constants (GHZ):           2.78435     1.24755     0.99357
 Zero-point vibrational energy     416050.1 (Joules/Mol)
                                   99.43836 (Kcal/Mol)
 Warning -- explicit consideration of  10 degrees of freedom as
           vibrations may cause significant error
 Vibrational temperatures:     93.39   176.22   221.74   296.88   329.57
          (Kelvin)            388.00   443.30   561.46   625.18   821.70
                              983.46  1073.54  1154.77  1178.88  1218.62
                             1320.80  1368.54  1406.95  1434.04  1463.17
                             1513.80  1551.45  1579.20  1601.01  1618.33
                             1640.36  1652.50  1743.26  1772.93  1813.54
                             1867.61  1887.74  1927.55  1978.72  2005.92
                             2040.38  2088.06  2149.03  2162.21  2186.19
                             2636.83  4142.59  4291.18  4313.10  4358.14
                             4414.51  4451.08  4453.93  4500.17  4572.88
                             4604.08

 Zero-point correction=                           0.158465 (Hartree/Particle)
 Thermal correction to Energy=                    0.167069
 Thermal correction to Enthalpy=                  0.168013
 Thermal correction to Gibbs Free Energy=         0.124780
 Sum of electronic and zero-point Energies=           -423.029158
 Sum of electronic and thermal Energies=              -423.020554
 Sum of electronic and thermal Enthalpies=            -423.019610
 Sum of electronic and thermal Free Energies=         -423.062843

                     E (Thermal)             CV                S
                      KCal/Mol        Cal/Mol-Kelvin    Cal/Mol-Kelvin
 Total                  104.837             31.804             90.991
 Electronic               0.000              0.000              0.000
 Translational            0.889              2.981             40.409
 Rotational               0.889              2.981             28.923
 Vibrational            103.060             25.842             21.659
 Vibration     1          0.597              1.971              4.302
 Vibration     2          0.610              1.930              3.061
 Vibration     3          0.620              1.898              2.621
 Vibration     4          0.641              1.831              2.076
 Vibration     5          0.652              1.797              1.886
 Vibration     6          0.674              1.729              1.598
 Vibration     7          0.698              1.658              1.372
 Vibration     8          0.758              1.491              0.999
 Vibration     9          0.795              1.395              0.844
 Vibration    10          0.927              1.094              0.502

 Normal termination of Gaussian 09 at Tue Jan 28 01:24:20 2020.
