 Gaussian 09, Revision D.01,
 Gaussian 09:  ES64L-G09RevD.01 24-Apr-2013

 -----------------------------
 # b3lyp 6-31G(2df,p) opt Freq
 -----------------------------

 -----
 titel
 -----
 Symbolic Z-matrix:
 Charge =  0 Multiplicity = 1

 SCF Done:  E(RB3LYP) =  -423.128215955     A.U. after   14 cycles
 Optimization completed.
    -- Stationary point found.
 Normal termination of Gaussian 09 at Mon Jan 27 22:03:31 2020.

 ----------------------------------------------------------------------
 #N Geom=AllCheck Guess=TCheck SCRF=Check GenChk RB3LYP/6-31G(2df,p) Fr
 eq
 ----------------------------------------------------------------------

 Structure from the checkpoint file:  "/scratch/puck/g09_d1fbd073-02e3-44a6-a3d0-7e4be6f5e934/Gau-76252.chk"
 -----
 titel
 -----
 Charge =  0 Multiplicity = 1

                         Standard orientation:
 ---------------------------------------------------------------------
 Center     Atomic      Atomic             Coordinates (Angstroms)
 Number     Number       Type             X           Y           Z
 ---------------------------------------------------------------------
      1          6           0       -0.759702   -1.288975   -1.301538
      2          6           0       -0.928748   -0.177902   -0.285298
      3          6           0       -2.224824    0.601038   -0.400018
      4          6           0       -0.349484   -0.374238    1.094291
      5          8           0        0.265182   -1.586275    1.388758
      6          6           0        0.322666    0.616667    0.158410
      7          8           0        0.162039    1.959103    0.543582
      8          6           0        1.614795    0.291398   -0.381395
      9          6           0        2.709542    0.052531   -0.821661
     10          1           0       -0.735366   -0.882770   -2.318598
     11          1           0        0.154580   -1.856656   -1.131063
     12          1           0       -1.603975   -1.984616   -1.237939
     13          1           0       -3.079286   -0.061508   -0.222924
     14          1           0       -2.269242    1.421817    0.318047
     15          1           0       -2.338211    1.023558   -1.405408
     16          1           0       -0.878690    0.096943    1.923623
     17          1           0        1.155309   -1.404780    1.710816
     18          1           0        0.199884    2.500399   -0.253465
     19          1           0        3.671769   -0.158124   -1.218563
 ---------------------------------------------------------------------

 SCF Done:  E(RB3LYP) =  -423.128215955     A.U. after    1 cycles

 The electronic state is 1-A.
 Alpha  occ. eigenvalues --  -19.15383 -19.14649 -10.25716 -10.23650 -10.20257
 Alpha  occ. eigenvalues --  -10.18729 -10.18063 -10.17822 -10.17214  -1.04422
 Alpha  occ. eigenvalues --   -1.02801  -0.85667  -0.75780  -0.72190  -0.68930
 Alpha  occ. eigenvalues --   -0.63081  -0.56659  -0.55826  -0.51266  -0.49353
 Alpha  occ. eigenvalues --   -0.47067  -0.44940  -0.43484  -0.39841  -0.38875
 Alpha  occ. eigenvalues --   -0.38210  -0.37991  -0.34973  -0.34180  -0.30959
 Alpha  occ. eigenvalues --   -0.29683  -0.27588  -0.26554  -0.23327
 Alpha virt. eigenvalues --    0.02862   0.04169   0.08071   0.09545   0.11852
 Alpha virt. eigenvalues --    0.12338   0.13491   0.14309   0.15061   0.16468
 Alpha virt. eigenvalues --    0.18370   0.19749   0.20382   0.20532   0.22821

 Mulliken charges:
               1
     1  C   -0.449877
     2  C    0.202202
     3  C   -0.458882
     4  C    0.026804
     5  O   -0.419798
     6  C    0.086156
     7  O   -0.447090
     8  C    0.314667
     9  C   -0.471081
    10  H    0.111619
    11  H    0.140286
    12  H    0.117345
    13  H    0.121450
    14  H    0.132531
    15  H    0.112989
    16  H    0.100452
    17  H    0.294212
    18  H    0.288146
    19  H    0.197870
 Sum of Mulliken charges =   0.00000

 Dipole moment (field-independent basis, Debye):
    X=              0.4025    Y=              0.7383    Z=             -1.0657  Tot=              1.3575
 Quadrupole moment (field-independent basis, Debye-Ang):
   XX=            -47.6643   YY=            -54.9739   ZZ=            -52.3760
   XY=             -2.2968   XZ=              0.0296   YZ=             -2.0552

  Exact polarizability:  98.514  -2.813  69.285  -5.999   0.798  68.737
 Approx polarizability: 145.015  -5.884 101.968 -15.314   1.003 103.272

                      1                      2                      3
                      A                      A                      A
 Frequencies --     87.4022               133.7766               169.0820
 Red. masses --      2.6115                 2.2241                 1.4199
 Frc consts  --      0.0118                 0.0235                 0.0239
 IR Inten    --     15.0400                 9.1970                17.4984

                      4                      5                      6
                      A                      A                      A
 Frequencies --    176.7290               195.5226               218.8421
 Red. masses --      1.3117                 1.2890                 2.5272
 Frc consts  --      0.0241                 0.0290                 0.0713
 IR Inten    --     16.5157                21.0183                41.4599

                      7                      8                      9
                      A                      A                      A
 Frequencies --    264.7666               271.0359               293.5823
 Red. masses --      2.4774                 1.7129                 2.6031
 Frc consts  --      0.1023                 0.0741                 0.1322
 IR Inten    --      3.8035                21.0603                16.8257

                     10                     11                     12
                      A                      A                      A
 Frequencies --    328.5829               354.2179               378.4718
 Red. masses --      2.4202                 3.0218                 2.3285
 Frc consts  --      0.1540                 0.2234                 0.1965
 IR Inten    --     57.4530                 9.6070                26.3444

                     13                     14                     15
                      A                      A                      A
 Frequencies --    446.7366               538.5678               568.8960
 Red. masses --      6.1930                 4.8348                 3.5933
 Frc consts  --      0.7282                 0.8263                 0.6852
 IR Inten    --     12.3366                 6.8519                 4.7320

                     16                     17                     18
                      A                      A                      A
 Frequencies --    583.3419               637.2882               661.4616
 Red. masses --      1.2810                 3.7376                 5.4610
 Frc consts  --      0.2568                 0.8944                 1.4078
 IR Inten    --     39.9366                 3.4904                 0.3038

                     19                     20                     21
                      A                      A                      A
 Frequencies --    677.5754               736.3612               860.3917
 Red. masses --      1.2696                 4.0812                 4.5437
 Frc consts  --      0.3434                 1.3038                 1.9818
 IR Inten    --     32.7170                18.3159                 4.6774

                     22                     23                     24
                      A                      A                      A
 Frequencies --    975.3101               980.8119               997.1374
 Red. masses --      1.3487                 2.1186                 1.3713
 Frc consts  --      0.7559                 1.2008                 0.8033
 IR Inten    --      0.8478                14.3818                 2.7484

                     25                     26                     27
                      A                      A                      A
 Frequencies --   1042.8772              1110.0536              1148.2617
 Red. masses --      1.2956                 3.6062                 1.8849
 Frc consts  --      0.8302                 2.6181                 1.4642
 IR Inten    --      4.5247               141.0751                13.8199

                     28                     29                     30
                      A                      A                      A
 Frequencies --   1173.7617              1199.7918              1279.9701
 Red. masses --      3.4035                 3.7739                 2.4226
 Frc consts  --      2.7627                 3.2007                 2.3385
 IR Inten    --     52.8397                11.8735                13.8176

                     31                     32                     33
                      A                      A                      A
 Frequencies --   1303.0404              1329.7421              1353.9327
 Red. masses --      1.7849                 1.3413                 1.4224
 Frc consts  --      1.7856                 1.3974                 1.5362
 IR Inten    --      2.7072                48.2401                43.5339

                     34                     35                     36
                      A                      A                      A
 Frequencies --   1406.0696              1417.7326              1444.1764
 Red. masses --      1.2919                 1.4675                 1.8263
 Frc consts  --      1.5049                 1.7379                 2.2442
 IR Inten    --      2.4594                 1.8609                 2.6419

                     37                     38                     39
                      A                      A                      A
 Frequencies --   1483.1580              1487.8673              1505.4640
 Red. masses --      1.0479                 1.0497                 1.0492
 Frc consts  --      1.3581                 1.3692                 1.4010
 IR Inten    --      0.6774                 5.3769                 9.3027

                     40                     41                     42
                      A                      A                      A
 Frequencies --   1511.0967              2223.1379              3028.4509
 Red. masses --      1.1418                 6.0274                 1.0386
 Frc consts  --      1.5362                17.5514                 5.6124
 IR Inten    --      3.2117                 7.9247                23.2994

                     43                     44                     45
                      A                      A                      A
 Frequencies --   3035.5636              3085.1337              3090.6591
 Red. masses --      1.0397                 1.1004                 1.1008
 Frc consts  --      5.6448                 6.1709                 6.1951
 IR Inten    --     43.3029                 9.6807                34.2758

                     46                     47                     48
                      A                      A                      A
 Frequencies --   3096.1325              3131.7088              3153.7557
 Red. masses --      1.0873                 1.0981                 1.0960
 Frc consts  --      6.1412                 6.3451                 6.4227
 IR Inten    --     21.2434                13.3108                 8.8551

                     49                     50                     51
                      A                      A                      A
 Frequencies --   3500.5039              3791.6105              3796.4633
 Red. masses --      1.1595                 1.0662                 1.0663
 Frc consts  --      8.3708                 9.0312                 9.0549
 IR Inten    --     80.1627                24.0855                27.6851

 - Thermochemistry -
 -------------------
 Temperature   298.150 Kelvin.  Pressure   1.00000 Atm.
 Atom     1 has atomic number  6 and mass  12.00000

 Molecular mass:   126.06808 amu.
 Principal axes and moments of inertia in atomic units:
                           1         2         3
     Eigenvalues --   910.101761217.967251402.27818
           X            0.99890  -0.04334   0.01798
           Y            0.04227   0.99751   0.05646
           Z           -0.02038  -0.05563   0.99824
 This molecule is an asymmetric top.
 Rotational symmetry number  1.
 Warning -- assumption of classical behavior for rotation
           may cause significant error
 Rotational temperatures (Kelvin)      0.09517     0.07111     0.06177
 Rotational constants (GHZ):           1.98301     1.48176     1.28701
 Zero-point vibrational energy     404732.6 (Joules/Mol)
                                   96.73341 (Kcal/Mol)
 Warning -- explicit consideration of  16 degrees of freedom as
           vibrations may cause significant error
 Vibrational temperatures:    125.75   192.47   243.27   254.27   281.31
          (Kelvin)            314.86   380.94   389.96   422.40   472.76
                              509.64   544.54   642.75   774.88   818.51
                              839.30   916.91   951.69   974.88  1059.46
                             1237.91  1403.25  1411.17  1434.66  1500.47
                             1597.12  1652.09  1688.78  1726.23  1841.59
                             1874.78  1913.20  1948.00  2023.02  2039.80
                             2077.85  2133.93  2140.71  2166.02  2174.13
                             3198.60  4357.26  4367.49  4438.81  4446.76
                             4454.64  4505.82  4537.55  5036.44  5455.27
                             5462.26

 Zero-point correction=                           0.154155 (Hartree/Particle)
 Thermal correction to Energy=                    0.164827
 Thermal correction to Enthalpy=                  0.165771
 Thermal correction to Gibbs Free Energy=         0.119409
 Sum of electronic and zero-point Energies=           -422.974061
 Sum of electronic and thermal Energies=              -422.963389
 Sum of electronic and thermal Enthalpies=            -422.962445
 Sum of electronic and thermal Free Energies=         -423.008807

                     E (Thermal)             CV                S
                      KCal/Mol        Cal/Mol-Kelvin    Cal/Mol-Kelvin
 Total                  103.431             39.471             97.577
 Electronic               0.000              0.000              0.000
 Translational            0.889              2.981             40.409
 Rotational               0.889              2.981             28.832
 Vibrational            101.653             33.509             28.337
 Vibration     1          0.601              1.958              3.717
 Vibration     2          0.613              1.920              2.891
 Vibration     3          0.625              1.881              2.446
 Vibration     4          0.628              1.871              2.363
 Vibration     5          0.636              1.846              2.175
 Vibration     6          0.647              1.812              1.969
 Vibration     7          0.671              1.738              1.630
 Vibration     8          0.675              1.727              1.590
 Vibration     9          0.688              1.686              1.453
 Vibration    10          0.712              1.618              1.267
 Vibration    11          0.730              1.567              1.147
 Vibration    12          0.749              1.516              1.045
 Vibration    13          0.806              1.368              0.806
 Vibration    14          0.894              1.165              0.568
 Vibration    15          0.925              1.099              0.506
 Vibration    16          0.940              1.067              0.479

 Optimization completed.
    -- Stationary point found.
 Normal termination of Gaussian 09 at Mon Jan 27 22:44:31 2020.
