 Gaussian 09, Revision D.01,
 Gaussian 09:  ES64L-G09RevD.01 24-Apr-2013

 -----------------------------
 # b3lyp 6-31G(2df,p) opt Freq
 -----------------------------

 -----
 titel
 -----
 Symbolic Z-matrix:
 Charge =  0 Multiplicity = 1

 SCF Done:  E(RB3LYP) =  -423.126524976     A.U. after   14 cycles
 Optimization completed.
    -- Stationary point found.
 Normal termination of Gaussian 09 at Tue Jan 28 04:07:27 2020.

 ----------------------------------------------------------------------
 #N Geom=AllCheck Guess=TCheck SCRF=Check GenChk RB3LYP/6-31G(2df,p) Fr
 eq
 ----------------------------------------------------------------------

 Structure from the checkpoint file:  "/scratch/puck/g09_dc3a214c-5925-4254-b3a1-1d3b1e1135ba/Gau-68876.chk"
 -----
 titel
 -----
 Charge =  0 Multiplicity = 1

                         Standard orientation:
 ---------------------------------------------------------------------
 Center     Atomic      Atomic             Coordinates (Angstroms)
 Number     Number       Type             X           Y           Z
 ---------------------------------------------------------------------
      1          8           0       -1.823273   -1.562548   -0.070344
      2          6           0       -1.377036   -0.300610   -0.507559
      3          6           0       -2.023729    0.898532    0.210120
      4          6           0       -0.644825    1.614015    0.164942
      5          6           0        0.021214    0.235946   -0.062549
      6          6           0        0.711943   -0.535815    1.117626
      7          6           0        1.928725   -0.734147    0.204987
      8          8           0        2.388181    0.565879   -0.182348
      9          6           0        1.280691   -0.003450   -0.896688
     10          1           0       -1.488391   -2.235067   -0.671661
     11          1           0       -1.480411   -0.203059   -1.598836
     12          1           0       -2.880604    1.376798   -0.268540
     13          1           0       -2.297006    0.613941    1.229929
     14          1           0       -0.542183    2.267760   -0.706253
     15          1           0       -0.334924    2.167678    1.052529
     16          1           0        0.906802    0.029237    2.032514
     17          1           0        0.178695   -1.460406    1.350744
     18          1           0        2.654795   -1.538814    0.189825
     19          1           0        1.382068   -0.091545   -1.973981
 ---------------------------------------------------------------------

 SCF Done:  E(RB3LYP) =  -423.126524976     A.U. after    1 cycles

 The electronic state is 1-A.
 Alpha  occ. eigenvalues --  -19.14621 -19.14485 -10.23482 -10.23409 -10.23082
 Alpha  occ. eigenvalues --  -10.19320 -10.18259 -10.18001 -10.17978  -1.07189
 Alpha  occ. eigenvalues --   -1.02658  -0.84678  -0.76856  -0.66117  -0.65248
 Alpha  occ. eigenvalues --   -0.62074  -0.58204  -0.53321  -0.52752  -0.51327
 Alpha  occ. eigenvalues --   -0.45989  -0.44262  -0.43635  -0.40059  -0.39448
 Alpha  occ. eigenvalues --   -0.37531  -0.36488  -0.34042  -0.32982  -0.32485
 Alpha  occ. eigenvalues --   -0.30184  -0.28376  -0.26481  -0.24606
 Alpha virt. eigenvalues --    0.06206   0.08528   0.10122   0.11034   0.11905
 Alpha virt. eigenvalues --    0.12678   0.14131   0.14817   0.16520   0.17366
 Alpha virt. eigenvalues --    0.17776   0.19130   0.19681   0.20389   0.20656

 Mulliken charges:
               1
     1  O   -0.421561
     2  C    0.065911
     3  C   -0.241268
     4  C   -0.297315
     5  C    0.319047
     6  C   -0.328079
     7  C    0.038127
     8  O   -0.247545
     9  C   -0.087300
    10  H    0.284837
    11  H    0.067831
    12  H    0.098946
    13  H    0.117295
    14  H    0.104011
    15  H    0.110309
    16  H    0.106110
    17  H    0.118000
    18  H    0.101244
    19  H    0.091400
 Sum of Mulliken charges =   0.00000

 Dipole moment (field-independent basis, Debye):
    X=             -0.6709    Y=             -1.3014    Z=             -1.2402  Tot=              1.9188
 Quadrupole moment (field-independent basis, Debye-Ang):
   XX=            -60.2138   YY=            -50.8146   ZZ=            -49.8594
   XY=             -5.1997   XZ=              1.8380   YZ=              2.2515

  Exact polarizability:  81.415  -4.800  72.775   1.074  -1.572  69.932
 Approx polarizability: 110.466  -0.488 108.333   2.443  -4.501 108.082

                      1                      2                      3
                      A                      A                      A
 Frequencies --    105.4279               117.6571               201.2581
 Red. masses --      3.4962                 2.6379                 4.1464
 Frc consts  --      0.0229                 0.0215                 0.0990
 IR Inten    --      2.3034                 0.1904                 6.7129

                      4                      5                      6
                      A                      A                      A
 Frequencies --    284.3823               287.6339               319.7637
 Red. masses --      1.1653                 3.0564                 2.7551
 Frc consts  --      0.0555                 0.1490                 0.1660
 IR Inten    --    108.3132                 2.6839                 4.6869

                      7                      8                      9
                      A                      A                      A
 Frequencies --    406.9910               458.1679               522.3504
 Red. masses --      2.2037                 2.9397                 4.2330
 Frc consts  --      0.2151                 0.3636                 0.6805
 IR Inten    --      3.6507                 7.1543                 2.8532

                     10                     11                     12
                      A                      A                      A
 Frequencies --    598.5572               678.6583               782.8174
 Red. masses --      3.5909                 2.2564                 3.6380
 Frc consts  --      0.7580                 0.6123                 1.3135
 IR Inten    --     13.2992                 0.5239                 0.5963

                     13                     14                     15
                      A                      A                      A
 Frequencies --    798.9930               838.5713               858.2940
 Red. masses --      1.6610                 2.0083                 2.0895
 Frc consts  --      0.6248                 0.8321                 0.9069
 IR Inten    --      1.8490                 9.8424                18.6178

                     16                     17                     18
                      A                      A                      A
 Frequencies --    865.5210               894.6066               934.1889
 Red. masses --      2.4089                 2.2202                 2.4293
 Frc consts  --      1.0632                 1.0469                 1.2491
 IR Inten    --      3.5923                 1.3785                 0.8550

                     19                     20                     21
                      A                      A                      A
 Frequencies --    955.3218               972.1892               980.6973
 Red. masses --      2.3307                 2.3213                 1.9622
 Frc consts  --      1.2532                 1.2927                 1.1119
 IR Inten    --      4.6250                 8.2278                30.0995

                     22                     23                     24
                      A                      A                      A
 Frequencies --   1037.9992              1069.3768              1077.2492
 Red. masses --      1.4029                 1.6919                 2.0110
 Frc consts  --      0.8905                 1.1400                 1.3750
 IR Inten    --      0.1008                41.9621                 1.2284

                     25                     26                     27
                      A                      A                      A
 Frequencies --   1123.9232              1160.6026              1165.1090
 Red. masses --      2.1034                 2.4228                 1.7242
 Frc consts  --      1.5655                 1.9228                 1.3791
 IR Inten    --     21.5265                13.6837                16.6954

                     28                     29                     30
                      A                      A                      A
 Frequencies --   1189.4844              1220.2605              1230.1129
 Red. masses --      1.6744                 1.5266                 1.3693
 Frc consts  --      1.3958                 1.3393                 1.2208
 IR Inten    --     10.5023                 7.2482                 3.6848

                     31                     32                     33
                      A                      A                      A
 Frequencies --   1243.8072              1254.1269              1264.2683
 Red. masses --      1.2387                 1.5633                 1.4403
 Frc consts  --      1.1291                 1.4487                 1.3563
 IR Inten    --      1.8350                 5.3151                 9.3731

                     34                     35                     36
                      A                      A                      A
 Frequencies --   1267.9349              1291.9688              1317.8739
 Red. masses --      1.3704                 1.9555                 1.9649
 Frc consts  --      1.2981                 1.9232                 2.0107
 IR Inten    --     32.6876                15.8937                30.2849

                     37                     38                     39
                      A                      A                      A
 Frequencies --   1381.8732              1427.0048              1471.7344
 Red. masses --      3.3859                 1.3747                 1.1189
 Frc consts  --      3.8095                 1.6493                 1.4278
 IR Inten    --     11.3839                 3.5617                 2.4310

                     40                     41                     42
                      A                      A                      A
 Frequencies --   1480.0557              1497.8610              2983.7360
 Red. masses --      1.0875                 1.1544                 1.0842
 Frc consts  --      1.4036                 1.5260                 5.6867
 IR Inten    --      1.0593                 4.8271                47.8382

                     43                     44                     45
                      A                      A                      A
 Frequencies --   3060.9165              3064.9201              3066.3727
 Red. masses --      1.0606                 1.0576                 1.0592
 Frc consts  --      5.8545                 5.8531                 5.8680
 IR Inten    --     28.8848                19.9376                29.4004

                     46                     47                     48
                      A                      A                      A
 Frequencies --   3114.0692              3126.5503              3127.0997
 Red. masses --      1.1055                 1.1076                 1.1075
 Frc consts  --      6.3166                 6.3794                 6.3807
 IR Inten    --     11.4507                14.8718                30.5061

                     49                     50                     51
                      A                      A                      A
 Frequencies --   3161.6777              3187.5679              3819.8961
 Red. masses --      1.0893                 1.0983                 1.0663
 Frc consts  --      6.4156                 6.5748                 9.1668
 IR Inten    --     21.0202                28.0973                22.4440

 - Thermochemistry -
 -------------------
 Temperature   298.150 Kelvin.  Pressure   1.00000 Atm.
 Atom     1 has atomic number  8 and mass  15.99491

 Molecular mass:   126.06808 amu.
 Principal axes and moments of inertia in atomic units:
                           1         2         3
     Eigenvalues --   586.510211307.980131566.36093
           X            0.99919  -0.04016   0.00395
           Y            0.04011   0.99913   0.01145
           Z           -0.00441  -0.01129   0.99993
 This molecule is an asymmetric top.
 Rotational symmetry number  1.
 Warning -- assumption of classical behavior for rotation
           may cause significant error
 Rotational temperatures (Kelvin)      0.14768     0.06622     0.05530
 Rotational constants (GHZ):           3.07708     1.37979     1.15219
 Zero-point vibrational energy     417182.6 (Joules/Mol)
                                   99.70903 (Kcal/Mol)
 Warning -- explicit consideration of  10 degrees of freedom as
           vibrations may cause significant error
 Vibrational temperatures:    151.69   169.28   289.57   409.16   413.84
          (Kelvin)            460.07   585.57   659.20   751.54   861.19
                              976.44  1126.30  1149.57  1206.52  1234.89
                             1245.29  1287.14  1344.09  1374.49  1398.76
                             1411.00  1493.45  1538.59  1549.92  1617.07
                             1669.85  1676.33  1711.40  1755.68  1769.86
                             1789.56  1804.41  1819.00  1824.27  1858.85
                             1896.12  1988.20  2053.14  2117.49  2129.47
                             2155.09  4292.93  4403.97  4409.73  4411.82
                             4480.45  4498.40  4499.19  4548.94  4586.19
                             5495.97

 Zero-point correction=                           0.158896 (Hartree/Particle)
 Thermal correction to Energy=                    0.166919
 Thermal correction to Enthalpy=                  0.167863
 Thermal correction to Gibbs Free Energy=         0.126402
 Sum of electronic and zero-point Energies=           -422.967629
 Sum of electronic and thermal Energies=              -422.959606
 Sum of electronic and thermal Enthalpies=            -422.958661
 Sum of electronic and thermal Free Energies=         -423.000123

                     E (Thermal)             CV                S
                      KCal/Mol        Cal/Mol-Kelvin    Cal/Mol-Kelvin
 Total                  104.743             31.523             87.263
 Electronic               0.000              0.000              0.000
 Translational            0.889              2.981             40.409
 Rotational               0.889              2.981             28.576
 Vibrational            102.966             25.562             18.278
 Vibration     1          0.605              1.945              3.351
 Vibration     2          0.608              1.935              3.139
 Vibration     3          0.638              1.838              2.122
 Vibration     4          0.683              1.703              1.507
 Vibration     5          0.685              1.697              1.488
 Vibration     6          0.706              1.636              1.311
 Vibration     7          0.772              1.455              0.937
 Vibration     8          0.816              1.343              0.771
 Vibration     9          0.877              1.201              0.605
 Vibration    10          0.957              1.035              0.452

 Normal termination of Gaussian 09 at Tue Jan 28 04:59:24 2020.
