 Gaussian 09, Revision D.01,
 Gaussian 09:  ES64L-G09RevD.01 24-Apr-2013

 -----------------------------
 # b3lyp 6-31G(2df,p) opt Freq
 -----------------------------

 -----
 titel
 -----
 Symbolic Z-matrix:
 Charge =  0 Multiplicity = 1

 SCF Done:  E(RB3LYP) =  -423.124931605     A.U. after   13 cycles
 Optimization completed.
    -- Stationary point found.
 Normal termination of Gaussian 09 at Mon Jan 27 15:34:15 2020.

 ----------------------------------------------------------------------
 #N Geom=AllCheck Guess=TCheck SCRF=Check GenChk RB3LYP/6-31G(2df,p) Fr
 eq
 ----------------------------------------------------------------------

 Structure from the checkpoint file:  "/scratch/puck/g09_9c37dc50-5f51-4584-b8fb-3de5d60eb3e1/Gau-175593.chk"
 -----
 titel
 -----
 Charge =  0 Multiplicity = 1

                         Standard orientation:
 ---------------------------------------------------------------------
 Center     Atomic      Atomic             Coordinates (Angstroms)
 Number     Number       Type             X           Y           Z
 ---------------------------------------------------------------------
      1          6           0       -2.089211    0.100966    1.024042
      2          6           0       -1.585676   -0.410545   -0.324338
      3          8           0       -1.836328   -1.809208   -0.461512
      4          6           0       -0.121797   -0.131910   -0.656978
      5          6           0        0.555501    1.195452   -0.579678
      6          8           0       -0.182896    2.288270   -0.126699
      7          6           0        0.959891    0.101251    0.408820
      8          6           0        2.235088   -0.541351    0.317347
      9          6           0        3.310020   -1.075413    0.227226
     10          1           0       -1.951465    1.179791    1.114711
     11          1           0       -3.150718   -0.140020    1.122067
     12          1           0       -1.558724   -0.386698    1.851016
     13          1           0       -2.188809    0.046413   -1.118473
     14          1           0       -1.324957   -2.261212    0.219372
     15          1           0        0.205908   -0.743533   -1.492268
     16          1           0        1.276964    1.422454   -1.363439
     17          1           0        0.421423    2.898994    0.308760
     18          1           0        0.584552    0.270159    1.413851
     19          1           0        4.256716   -1.549533    0.151438
 ---------------------------------------------------------------------

 SCF Done:  E(RB3LYP) =  -423.124931605     A.U. after    1 cycles

 The electronic state is 1-A.
 Alpha  occ. eigenvalues --  -19.15938 -19.13059 -10.25016 -10.23675 -10.21445
 Alpha  occ. eigenvalues --  -10.19997 -10.18258 -10.17143 -10.17102  -1.04451
 Alpha  occ. eigenvalues --   -1.01366  -0.86794  -0.75400  -0.73483  -0.65740
 Alpha  occ. eigenvalues --   -0.63033  -0.57866  -0.54863  -0.52936  -0.49572
 Alpha  occ. eigenvalues --   -0.47663  -0.46119  -0.44251  -0.40676  -0.40323
 Alpha  occ. eigenvalues --   -0.37230  -0.36391  -0.35886  -0.32444  -0.31291
 Alpha  occ. eigenvalues --   -0.29978  -0.27108  -0.25836  -0.23731
 Alpha virt. eigenvalues --    0.04629   0.04893   0.06640   0.08412   0.10635
 Alpha virt. eigenvalues --    0.11916   0.13099   0.13411   0.15618   0.17515
 Alpha virt. eigenvalues --    0.17798   0.18530   0.19605   0.20688   0.22114

 Mulliken charges:
               1
     1  C   -0.416732
     2  C    0.117217
     3  O   -0.427756
     4  C   -0.082529
     5  C    0.075901
     6  O   -0.411462
     7  C   -0.303034
     8  C    0.311009
     9  C   -0.430738
    10  H    0.139529
    11  H    0.120787
    12  H    0.104386
    13  H    0.102395
    14  H    0.278395
    15  H    0.114077
    16  H    0.105864
    17  H    0.294007
    18  H    0.114935
    19  H    0.193750
 Sum of Mulliken charges =   0.00000

 Dipole moment (field-independent basis, Debye):
    X=              1.3635    Y=              1.2257    Z=              1.0510  Tot=              2.1133
 Quadrupole moment (field-independent basis, Debye-Ang):
   XX=            -54.1595   YY=            -50.8046   ZZ=            -52.8633
   XY=             -0.8493   XZ=             -2.6155   YZ=             -0.8145

  Exact polarizability: 101.463 -11.567  75.622   0.282  -0.284  61.502
 Approx polarizability: 142.863 -22.671 112.375   3.558  -0.132  93.288

                      1                      2                      3
                      A                      A                      A
 Frequencies --     55.6462               106.7809               148.9842
 Red. masses --      3.7422                 4.1696                 3.7564
 Frc consts  --      0.0068                 0.0280                 0.0491
 IR Inten    --      0.8510                 0.0956                 0.7792

                      4                      5                      6
                      A                      A                      A
 Frequencies --    195.0291               233.7735               267.7558
 Red. masses --      5.0141                 2.9631                 1.1819
 Frc consts  --      0.1124                 0.0954                 0.0499
 IR Inten    --      1.3931                 1.9304                 2.7326

                      7                      8                      9
                      A                      A                      A
 Frequencies --    296.0780               324.1220               334.0346
 Red. masses --      1.5979                 1.1316                 1.5607
 Frc consts  --      0.0825                 0.0700                 0.1026
 IR Inten    --     39.8340                52.4645               108.3820

                     10                     11                     12
                      A                      A                      A
 Frequencies --    385.0755               410.5301               483.7277
 Red. masses --      4.4058                 3.4294                 5.2866
 Frc consts  --      0.3849                 0.3405                 0.7288
 IR Inten    --     14.5884                25.5086                 5.2498

                     13                     14                     15
                      A                      A                      A
 Frequencies --    491.9095               549.7241               573.5332
 Red. masses --      4.9205                 2.7865                 1.2741
 Frc consts  --      0.7015                 0.4961                 0.2469
 IR Inten    --      3.6885                 2.4545                34.2634

                     16                     17                     18
                      A                      A                      A
 Frequencies --    585.4656               648.5416               811.3459
 Red. masses --      3.3033                 1.2286                 2.8977
 Frc consts  --      0.6671                 0.3045                 1.1239
 IR Inten    --     27.6772                40.9234                 4.5589

                     19                     20                     21
                      A                      A                      A
 Frequencies --    846.0193               903.5355               917.4733
 Red. masses --      4.9461                 4.4111                 1.8700
 Frc consts  --      2.0858                 2.1217                 0.9274
 IR Inten    --      0.4297                11.8369                12.6562

                     22                     23                     24
                      A                      A                      A
 Frequencies --    976.0454              1020.7926              1052.9960
 Red. masses --      1.8423                 1.5082                 1.5048
 Frc consts  --      1.0341                 0.9259                 0.9830
 IR Inten    --     17.1181                 1.4135                46.5795

                     25                     26                     27
                      A                      A                      A
 Frequencies --   1079.0740              1104.0463              1118.5396
 Red. masses --      2.7887                 1.4451                 1.8645
 Frc consts  --      1.9132                 1.0378                 1.3744
 IR Inten    --      1.7717                62.1113                23.6273

                     28                     29                     30
                      A                      A                      A
 Frequencies --   1152.6311              1173.4046              1232.3435
 Red. masses --      1.6906                 2.1369                 1.8262
 Frc consts  --      1.3233                 1.7336                 1.6341
 IR Inten    --      9.7528                33.0768                95.8246

                     31                     32                     33
                      A                      A                      A
 Frequencies --   1284.7802              1291.4238              1310.1108
 Red. masses --      1.1652                 1.3599                 1.4094
 Frc consts  --      1.1332                 1.3363                 1.4253
 IR Inten    --     46.3615                 0.8755                29.9920

                     34                     35                     36
                      A                      A                      A
 Frequencies --   1365.1224              1371.6174              1403.7321
 Red. masses --      1.4799                 1.3656                 1.2520
 Frc consts  --      1.6249                 1.5138                 1.4535
 IR Inten    --     23.4698                 4.6897                23.3202

                     37                     38                     39
                      A                      A                      A
 Frequencies --   1422.0041              1472.1937              1496.8448
 Red. masses --      1.2347                 2.0715                 1.1196
 Frc consts  --      1.4710                 2.6453                 1.4780
 IR Inten    --     47.0315                13.9125                 3.0420

                     40                     41                     42
                      A                      A                      A
 Frequencies --   1504.1896              2232.9077              3029.9784
 Red. masses --      1.0569                 6.0437                 1.0543
 Frc consts  --      1.4090                17.7540                 5.7028
 IR Inten    --      2.2767                21.7743                 5.2441

                     43                     44                     45
                      A                      A                      A
 Frequencies --   3040.2463              3106.3081              3112.1385
 Red. masses --      1.0713                 1.0940                 1.0881
 Frc consts  --      5.8341                 6.2195                 6.2092
 IR Inten    --     33.6836                33.4243                20.5586

                     46                     47                     48
                      A                      A                      A
 Frequencies --   3146.6102              3154.2864              3162.5374
 Red. masses --      1.1011                 1.0869                 1.0862
 Frc consts  --      6.4232                 6.3714                 6.4006
 IR Inten    --      7.2513                 1.2972                 9.3043

                     49                     50                     51
                      A                      A                      A
 Frequencies --   3505.6503              3794.7063              3805.4879
 Red. masses --      1.1595                 1.0659                 1.0662
 Frc consts  --      8.3957                 9.0432                 9.0973
 IR Inten    --     86.1635                11.5134                30.9906

 - Thermochemistry -
 -------------------
 Temperature   298.150 Kelvin.  Pressure   1.00000 Atm.
 Atom     1 has atomic number  6 and mass  12.00000

 Molecular mass:   126.06808 amu.
 Principal axes and moments of inertia in atomic units:
                           1         2         3
     Eigenvalues --   847.440811538.129142071.93067
           X            0.99975  -0.00982  -0.02009
           Y            0.00985   0.99995   0.00107
           Z            0.02008  -0.00127   0.99980
 This molecule is an asymmetric top.
 Rotational symmetry number  1.
 Warning -- assumption of classical behavior for rotation
           may cause significant error
 Rotational temperatures (Kelvin)      0.10221     0.05631     0.04180
 Rotational constants (GHZ):           2.12964     1.17334     0.87104
 Zero-point vibrational energy     409672.1 (Joules/Mol)
                                   97.91399 (Kcal/Mol)
 Warning -- explicit consideration of  16 degrees of freedom as
           vibrations may cause significant error
 Vibrational temperatures:     80.06   153.63   214.35   280.60   336.35
          (Kelvin)            385.24   425.99   466.34   480.60   554.04
                              590.66   695.98   707.75   790.93   825.19
                              842.35   933.11  1167.34  1217.23  1299.98
                             1320.04  1404.31  1468.69  1515.02  1552.54
                             1588.47  1609.33  1658.38  1688.27  1773.07
                             1848.51  1858.07  1884.95  1964.10  1973.45
                             2019.65  2045.94  2118.16  2153.62  2164.19
                             3212.65  4359.46  4374.23  4469.28  4477.67
                             4527.26  4538.31  4550.18  5043.84  5459.73
                             5475.24

 Zero-point correction=                           0.156036 (Hartree/Particle)
 Thermal correction to Energy=                    0.166111
 Thermal correction to Enthalpy=                  0.167055
 Thermal correction to Gibbs Free Energy=         0.121134
 Sum of electronic and zero-point Energies=           -422.968896
 Sum of electronic and thermal Energies=              -422.958821
 Sum of electronic and thermal Enthalpies=            -422.957877
 Sum of electronic and thermal Free Energies=         -423.003797

                     E (Thermal)             CV                S
                      KCal/Mol        Cal/Mol-Kelvin    Cal/Mol-Kelvin
 Total                  104.236             37.671             96.648
 Electronic               0.000              0.000              0.000
 Translational            0.889              2.981             40.409
 Rotational               0.889              2.981             29.381
 Vibrational            102.459             31.709             26.859
 Vibration     1          0.596              1.975              4.606
 Vibration     2          0.606              1.944              3.327
 Vibration     3          0.618              1.904              2.685
 Vibration     4          0.636              1.847              2.179
 Vibration     5          0.654              1.789              1.850
 Vibration     6          0.673              1.732              1.611
 Vibration     7          0.690              1.681              1.439
 Vibration     8          0.709              1.627              1.289
 Vibration     9          0.716              1.608              1.241
 Vibration    10          0.754              1.502              1.019
 Vibration    11          0.775              1.447              0.925
 Vibration    12          0.840              1.286              0.700
 Vibration    13          0.848              1.268              0.679
 Vibration    14          0.905              1.140              0.545
 Vibration    15          0.930              1.088              0.497
 Vibration    16          0.942              1.063              0.475

 Normal termination of Gaussian 09 at Mon Jan 27 16:13:22 2020.
