 Gaussian 09, Revision D.01,
 Gaussian 09:  ES64L-G09RevD.01 24-Apr-2013

 -----------------------------
 # b3lyp 6-31G(2df,p) opt Freq
 -----------------------------

 -----
 titel
 -----
 Symbolic Z-matrix:
 Charge =  0 Multiplicity = 1

 SCF Done:  E(RB3LYP) =  -423.144557389     A.U. after   13 cycles
 Optimization completed.
    -- Stationary point found.
 Normal termination of Gaussian 09 at Mon Jan 27 11:29:08 2020.

 ----------------------------------------------------------------------
 #N Geom=AllCheck Guess=TCheck SCRF=Check GenChk RB3LYP/6-31G(2df,p) Fr
 eq
 ----------------------------------------------------------------------

 Structure from the checkpoint file:  "/scratch/puck/g09_1ed9c18b-00d9-424f-a71a-773eb69a77c3/Gau-61437.chk"
 -----
 titel
 -----
 Charge =  0 Multiplicity = 1

                         Standard orientation:
 ---------------------------------------------------------------------
 Center     Atomic      Atomic             Coordinates (Angstroms)
 Number     Number       Type             X           Y           Z
 ---------------------------------------------------------------------
      1          6           0        2.193630   -0.286593    0.290833
      2          6           0        1.268828    0.742041   -0.287463
      3          8           0        0.373670    1.311787    0.625626
      4          6           0       -0.923729    1.576992    0.130277
      5          8           0       -1.439571    0.593171   -0.717129
      6          6           0       -1.446183   -0.744447   -0.290108
      7          6           0       -0.891838   -1.219897    1.027887
      8          6           0       -0.126794   -1.485235   -0.260653
      9          6           0        1.094439   -0.711224   -0.665105
     10          1           0        3.224000   -0.314623   -0.045758
     11          1           0        2.048956   -0.513770    1.341304
     12          1           0        1.643988    1.430528   -1.044285
     13          1           0       -1.536117    1.711330    1.032311
     14          1           0       -0.939191    2.493741   -0.474753
     15          1           0       -2.325256   -1.245423   -0.682412
     16          1           0       -0.492409   -0.502810    1.730012
     17          1           0       -1.395640   -2.065039    1.485747
     18          1           0       -0.135198   -2.513270   -0.611085
     19          1           0        1.423953   -0.950153   -1.673058
 ---------------------------------------------------------------------

 SCF Done:  E(RB3LYP) =  -423.144557389     A.U. after    1 cycles

 The electronic state is 1-A.
 Alpha  occ. eigenvalues --  -19.14907 -19.14771 -10.27455 -10.23479 -10.23326
 Alpha  occ. eigenvalues --  -10.19187 -10.19011 -10.18322 -10.18256  -1.07310
 Alpha  occ. eigenvalues --   -1.01278  -0.86890  -0.82486  -0.70123  -0.64331
 Alpha  occ. eigenvalues --   -0.60820  -0.57400  -0.56368  -0.51818  -0.49804
 Alpha  occ. eigenvalues --   -0.47803  -0.46649  -0.45825  -0.43045  -0.38877
 Alpha  occ. eigenvalues --   -0.38276  -0.37466  -0.36212  -0.34356  -0.30174
 Alpha  occ. eigenvalues --   -0.28165  -0.27426  -0.26622  -0.23080
 Alpha virt. eigenvalues --    0.08603   0.09669   0.11637   0.12079   0.12757
 Alpha virt. eigenvalues --    0.12932   0.15467   0.16410   0.16850   0.17637
 Alpha virt. eigenvalues --    0.18550   0.18981   0.20246   0.20770   0.23723

 Mulliken charges:
               1
     1  C   -0.328002
     2  C    0.100042
     3  O   -0.254791
     4  C    0.004718
     5  O   -0.235702
     6  C    0.112424
     7  C   -0.357348
     8  C   -0.069937
     9  C   -0.027641
    10  H    0.111931
    11  H    0.124133
    12  H    0.087397
    13  H    0.102319
    14  H    0.104759
    15  H    0.098589
    16  H    0.144507
    17  H    0.108719
    18  H    0.084816
    19  H    0.089068
 Sum of Mulliken charges =   0.00000

 Dipole moment (field-independent basis, Debye):
    X=              0.1469    Y=             -0.6812    Z=             -0.1365  Tot=              0.7101
 Quadrupole moment (field-independent basis, Debye-Ang):
   XX=            -51.8944   YY=            -51.0401   ZZ=            -53.6029
   XY=              0.6248   XZ=             -3.0023   YZ=             -0.4933

  Exact polarizability:  80.843  -0.177  76.350  -2.454  -1.240  65.564
 Approx polarizability: 110.283  -1.525 108.084  -0.040   0.059 104.144

                      1                      2                      3
                      A                      A                      A
 Frequencies --    193.0149               225.6424               246.2083
 Red. masses --      2.7658                 3.0524                 3.3996
 Frc consts  --      0.0607                 0.0916                 0.1214
 IR Inten    --      4.7228                 4.9362                 7.1096

                      4                      5                      6
                      A                      A                      A
 Frequencies --    307.5701               329.6331               441.8194
 Red. masses --      4.1044                 3.6590                 3.7335
 Frc consts  --      0.2288                 0.2342                 0.4294
 IR Inten    --      2.3747                 2.7247                 1.7627

                      7                      8                      9
                      A                      A                      A
 Frequencies --    493.1932               499.9473               653.8223
 Red. masses --      2.7477                 2.8204                 4.2885
 Frc consts  --      0.3938                 0.4153                 1.0801
 IR Inten    --      1.4938                 0.1010                 7.1795

                     10                     11                     12
                      A                      A                      A
 Frequencies --    719.6614               742.6735               780.5267
 Red. masses --      2.3249                 2.4635                 3.0004
 Frc consts  --      0.7094                 0.8006                 1.0770
 IR Inten    --      2.7115                 5.9913                13.7013

                     13                     14                     15
                      A                      A                      A
 Frequencies --    791.9974               809.7546               836.1271
 Red. masses --      2.6599                 1.6331                 1.4565
 Frc consts  --      0.9830                 0.6309                 0.6000
 IR Inten    --      6.5784                 5.9649                 9.4683

                     16                     17                     18
                      A                      A                      A
 Frequencies --    936.3331               956.8630               985.2727
 Red. masses --      2.9623                 2.8114                 2.7610
 Frc consts  --      1.5302                 1.5166                 1.5792
 IR Inten    --      3.6248                 5.4261                29.3256

                     19                     20                     21
                      A                      A                      A
 Frequencies --   1021.6346              1052.6331              1061.5049
 Red. masses --      1.9022                 1.9771                 1.7632
 Frc consts  --      1.1698                 1.2907                 1.1706
 IR Inten    --     19.2702                55.6040                19.8192

                     22                     23                     24
                      A                      A                      A
 Frequencies --   1074.8136              1084.5962              1112.9261
 Red. masses --      2.1257                 1.5148                 1.7905
 Frc consts  --      1.4468                 1.0499                 1.3067
 IR Inten    --     32.2056                 3.8701                 8.2913

                     25                     26                     27
                      A                      A                      A
 Frequencies --   1125.4776              1128.3535              1131.6197
 Red. masses --      1.3060                 1.2358                 1.5428
 Frc consts  --      0.9747                 0.9270                 1.1641
 IR Inten    --      7.6115                 0.4858                19.6035

                     28                     29                     30
                      A                      A                      A
 Frequencies --   1158.4832              1173.6107              1201.2284
 Red. masses --      1.8032                 1.8458                 1.9608
 Frc consts  --      1.4259                 1.4979                 1.6670
 IR Inten    --     19.4383                34.9401                34.8946

                     31                     32                     33
                      A                      A                      A
 Frequencies --   1224.8875              1261.6655              1304.7690
 Red. masses --      2.1519                 1.5164                 1.2408
 Frc consts  --      1.9022                 1.4222                 1.2445
 IR Inten    --     49.3989                41.1899                40.5422

                     34                     35                     36
                      A                      A                      A
 Frequencies --   1357.2063              1391.0844              1399.3195
 Red. masses --      1.2359                 1.3318                 1.5932
 Frc consts  --      1.3413                 1.5184                 1.8381
 IR Inten    --      6.8406                29.5367                 1.5051

                     37                     38                     39
                      A                      A                      A
 Frequencies --   1407.2149              1454.1749              1474.6017
 Red. masses --      1.9396                 1.2403                 1.2996
 Frc consts  --      2.2630                 1.5453                 1.6650
 IR Inten    --     10.4100                 8.1762                16.5730

                     40                     41                     42
                      A                      A                      A
 Frequencies --   1485.8444              1518.9490              3001.8498
 Red. masses --      1.4909                 1.1073                 1.0528
 Frc consts  --      1.9393                 1.5053                 5.5895
 IR Inten    --      8.6591                 0.8093                97.2983

                     43                     44                     45
                      A                      A                      A
 Frequencies --   3046.1644              3100.2295              3132.5029
 Red. masses --      1.1125                 1.0872                 1.0809
 Frc consts  --      6.0821                 6.1568                 6.2494
 IR Inten    --     39.5914                33.4016                 8.9155

                     46                     47                     48
                      A                      A                      A
 Frequencies --   3136.3850              3140.8036              3146.2199
 Red. masses --      1.0600                 1.0646                 1.0857
 Frc consts  --      6.1438                 6.1875                 6.3319
 IR Inten    --     10.1488                21.2902                15.6879

                     49                     50                     51
                      A                      A                      A
 Frequencies --   3161.0518              3225.9713              3250.0153
 Red. masses --      1.0902                 1.1167                 1.1099
 Frc consts  --      6.4180                 6.8473                 6.9074
 IR Inten    --     36.7644                 8.9066                 1.6767

 - Thermochemistry -
 -------------------
 Temperature   298.150 Kelvin.  Pressure   1.00000 Atm.
 Atom     1 has atomic number  6 and mass  12.00000

 Molecular mass:   126.06808 amu.
 Principal axes and moments of inertia in atomic units:
                           1         2         3
     Eigenvalues --   721.90425 899.518031267.86576
           X            0.99967   0.00472  -0.02518
           Y           -0.00510   0.99987  -0.01514
           Z            0.02511   0.01526   0.99957
 This molecule is an asymmetric top.
 Rotational symmetry number  1.
 Warning -- assumption of classical behavior for rotation
           may cause significant error
 Rotational temperatures (Kelvin)      0.11998     0.09629     0.06831
 Rotational constants (GHZ):           2.49997     2.00634     1.42345
 Zero-point vibrational energy     424063.3 (Joules/Mol)
                                  101.35357 (Kcal/Mol)
 Warning -- explicit consideration of   8 degrees of freedom as
           vibrations may cause significant error
 Vibrational temperatures:    277.71   324.65   354.24   442.52   474.27
          (Kelvin)            635.68   709.59   719.31   940.70  1035.43
                             1068.54  1123.00  1139.51  1165.05  1203.00
                             1347.17  1376.71  1417.59  1469.90  1514.50
                             1527.27  1546.42  1560.49  1601.25  1619.31
                             1623.45  1628.15  1666.80  1688.56  1728.30
                             1762.34  1815.25  1877.27  1952.71  2001.46
                             2013.31  2024.67  2092.23  2121.62  2137.80
                             2185.43  4318.99  4382.75  4460.53  4506.97
                             4512.55  4518.91  4526.70  4548.04  4641.45
                             4676.04

 Zero-point correction=                           0.161517 (Hartree/Particle)
 Thermal correction to Energy=                    0.168612
 Thermal correction to Enthalpy=                  0.169556
 Thermal correction to Gibbs Free Energy=         0.130461
 Sum of electronic and zero-point Energies=           -422.983040
 Sum of electronic and thermal Energies=              -422.975946
 Sum of electronic and thermal Enthalpies=            -422.975002
 Sum of electronic and thermal Free Energies=         -423.014096

                     E (Thermal)             CV                S
                      KCal/Mol        Cal/Mol-Kelvin    Cal/Mol-Kelvin
 Total                  105.805             29.412             82.282
 Electronic               0.000              0.000              0.000
 Translational            0.889              2.981             40.409
 Rotational               0.889              2.981             28.200
 Vibrational            104.028             23.450             13.673
 Vibration     1          0.635              1.850              2.199
 Vibration     2          0.650              1.802              1.913
 Vibration     3          0.661              1.769              1.758
 Vibration     4          0.697              1.659              1.375
 Vibration     5          0.712              1.616              1.262
 Vibration     6          0.802              1.379              0.821
 Vibration     7          0.849              1.265              0.675
 Vibration     8          0.855              1.250              0.658

 Optimization completed.
    -- Stationary point found.
 Normal termination of Gaussian 09 at Mon Jan 27 13:51:32 2020.
