 Gaussian 09, Revision D.01,
 Gaussian 09:  ES64L-G09RevD.01 24-Apr-2013

 -----------------------------
 # b3lyp 6-31G(2df,p) opt Freq
 -----------------------------

 -----
 titel
 -----
 Symbolic Z-matrix:
 Charge =  0 Multiplicity = 1

 SCF Done:  E(RB3LYP) =  -423.207066005     A.U. after   14 cycles
 Optimization completed.
    -- Stationary point found.
 Normal termination of Gaussian 09 at Mon Jan 27 22:03:08 2020.

 ----------------------------------------------------------------------
 #N Geom=AllCheck Guess=TCheck SCRF=Check GenChk RB3LYP/6-31G(2df,p) Fr
 eq
 ----------------------------------------------------------------------

 Structure from the checkpoint file:  "/scratch/puck/g09_dfb06967-46c3-43a5-afc2-007fa9f4ade7/Gau-78535.chk"
 -----
 titel
 -----
 Charge =  0 Multiplicity = 1

                         Standard orientation:
 ---------------------------------------------------------------------
 Center     Atomic      Atomic             Coordinates (Angstroms)
 Number     Number       Type             X           Y           Z
 ---------------------------------------------------------------------
      1          6           0       -2.936020   -0.853898    0.237677
      2          6           0       -1.572363   -0.265675    0.079164
      3          6           0       -0.409942   -0.697610    0.563482
      4          6           0        0.714644    0.230420    0.163296
      5          6           0        1.488723    0.834181    1.334502
      6          8           0        0.068015    1.251884   -0.606126
      7          6           0       -1.333025    1.008840   -0.690235
      8          6           0        1.651117   -0.535729   -0.784359
      9          8           0        2.645828   -1.119631   -0.444608
     10          1           0       -3.615949   -0.146342    0.728300
     11          1           0       -3.379675   -1.088196   -0.738002
     12          1           0       -2.911947   -1.771326    0.830276
     13          1           0       -0.241904   -1.584648    1.161061
     14          1           0        2.172732    1.605974    0.970820
     15          1           0        0.799377    1.283082    2.053540
     16          1           0        2.079386    0.059304    1.828833
     17          1           0       -1.891028    1.858917   -0.265565
     18          1           0       -1.637115    0.921249   -1.745037
     19          1           0        1.296569   -0.519216   -1.839523
 ---------------------------------------------------------------------

 SCF Done:  E(RB3LYP) =  -423.207066005     A.U. after    1 cycles

 The electronic state is 1-A.
 Alpha  occ. eigenvalues --  -19.14490 -19.14090 -10.26534 -10.24723 -10.23864
 Alpha  occ. eigenvalues --  -10.20603 -10.19903 -10.19147 -10.17620  -1.05235
 Alpha  occ. eigenvalues --   -1.03962  -0.81710  -0.78619  -0.70949  -0.68489
 Alpha  occ. eigenvalues --   -0.63618  -0.56108  -0.54765  -0.49831  -0.48125
 Alpha  occ. eigenvalues --   -0.46738  -0.43848  -0.43560  -0.41903  -0.41528
 Alpha  occ. eigenvalues --   -0.39935  -0.38605  -0.38196  -0.37431  -0.35040
 Alpha  occ. eigenvalues --   -0.32393  -0.28144  -0.27130  -0.22922
 Alpha virt. eigenvalues --   -0.03042   0.02358   0.08869   0.10426   0.11303
 Alpha virt. eigenvalues --    0.13424   0.14174   0.15421   0.16051   0.16451
 Alpha virt. eigenvalues --    0.17335   0.18122   0.18590   0.20726   0.22335

 Mulliken charges:
               1
     1  C   -0.493782
     2  C    0.299991
     3  C   -0.250785
     4  C    0.258144
     5  C   -0.419122
     6  O   -0.308276
     7  C   -0.166910
     8  C    0.134452
     9  O   -0.252393
    10  H    0.135085
    11  H    0.135425
    12  H    0.134609
    13  H    0.113964
    14  H    0.130323
    15  H    0.115899
    16  H    0.136779
    17  H    0.106617
    18  H    0.107682
    19  H    0.082299
 Sum of Mulliken charges =   0.00000

 Dipole moment (field-independent basis, Debye):
    X=             -3.4544    Y=              0.0466    Z=              0.4953  Tot=              3.4900
 Quadrupole moment (field-independent basis, Debye-Ang):
   XX=            -55.9184   YY=            -55.3244   ZZ=            -51.8517
   XY=              3.6362   XZ=              1.5470   YZ=             -0.2153

  Exact polarizability: 103.368  -4.993  67.565   6.711  -2.742  68.438
 Approx polarizability: 146.833 -16.246 102.151  13.883  -8.641 101.074

                      1                      2                      3
                      A                      A                      A
 Frequencies --     65.0252                84.5307               151.4286
 Red. masses --      5.1520                 2.8136                 2.2421
 Frc consts  --      0.0128                 0.0118                 0.0303
 IR Inten    --      5.3059                 1.6947                 0.7588

                      4                      5                      6
                      A                      A                      A
 Frequencies --    166.7563               197.9064               254.0894
 Red. masses --      1.0523                 1.0608                 3.5983
 Frc consts  --      0.0172                 0.0245                 0.1369
 IR Inten    --      0.1028                 0.1620                 9.7954

                      7                      8                      9
                      A                      A                      A
 Frequencies --    259.0716               315.0658               366.6892
 Red. masses --      2.3754                 2.8757                 2.9102
 Frc consts  --      0.0939                 0.1682                 0.2305
 IR Inten    --      1.4372                 1.7233                 1.1643

                     10                     11                     12
                      A                      A                      A
 Frequencies --    392.2121               464.0879               510.6041
 Red. masses --      2.7311                 4.7429                 2.7404
 Frc consts  --      0.2475                 0.6019                 0.4209
 IR Inten    --     11.8710                 0.6516                 4.6309

                     13                     14                     15
                      A                      A                      A
 Frequencies --    602.4674               713.9647               830.1237
 Red. masses --      4.3538                 3.8596                 5.2972
 Frc consts  --      0.9311                 1.1592                 2.1507
 IR Inten    --      1.7441                12.7262                10.2815

                     16                     17                     18
                      A                      A                      A
 Frequencies --    845.4637               896.2840               908.5698
 Red. masses --      1.3490                 2.2353                 2.7883
 Frc consts  --      0.5681                 1.0580                 1.3561
 IR Inten    --     17.6866                 0.7340                 9.7202

                     19                     20                     21
                      A                      A                      A
 Frequencies --    943.3300               990.4604               999.7698
 Red. masses --      2.1754                 1.6855                 1.3262
 Frc consts  --      1.1405                 0.9742                 0.7810
 IR Inten    --      9.8161                 4.5734                10.8130

                     22                     23                     24
                      A                      A                      A
 Frequencies --   1013.6829              1077.5276              1093.5623
 Red. masses --      1.5950                 4.0302                 1.7193
 Frc consts  --      0.9656                 2.7570                 1.2114
 IR Inten    --     18.4443                27.2383                 0.5058

                     25                     26                     27
                      A                      A                      A
 Frequencies --   1108.7052              1179.2597              1186.6150
 Red. masses --      2.9747                 2.0285                 1.9015
 Frc consts  --      2.1544                 1.6621                 1.5775
 IR Inten    --     64.2577                 1.2383                13.1977

                     28                     29                     30
                      A                      A                      A
 Frequencies --   1211.3830              1242.0110              1306.2044
 Red. masses --      1.4564                 3.4690                 1.9794
 Frc consts  --      1.2592                 3.1528                 1.9898
 IR Inten    --      1.9390                16.8087                 4.2448

                     31                     32                     33
                      A                      A                      A
 Frequencies --   1380.6015              1386.5982              1400.8245
 Red. masses --      1.2788                 1.5340                 1.2595
 Frc consts  --      1.4361                 1.7377                 1.4562
 IR Inten    --      0.2535                 1.5972                10.8196

                     34                     35                     36
                      A                      A                      A
 Frequencies --   1414.1498              1478.5132              1481.0079
 Red. masses --      1.2822                 1.0435                 1.0530
 Frc consts  --      1.5107                 1.3440                 1.3609
 IR Inten    --      1.5171                 8.1276                 3.9597

                     37                     38                     39
                      A                      A                      A
 Frequencies --   1486.7876              1488.7725              1521.4275
 Red. masses --      1.0621                 1.0517                 1.0854
 Frc consts  --      1.3833                 1.3735                 1.4803
 IR Inten    --      6.7312                 1.9269                 1.2074

                     40                     41                     42
                      A                      A                      A
 Frequencies --   1722.3847              1830.3947              2885.5795
 Red. masses --      7.3636                10.9866                 1.0847
 Frc consts  --     12.8707                21.6872                 5.3215
 IR Inten    --     12.4884               184.8977                87.2074

                     43                     44                     45
                      A                      A                      A
 Frequencies --   2972.2870              2991.7257              3023.0036
 Red. masses --      1.0577                 1.1035                 1.0384
 Frc consts  --      5.5057                 5.8194                 5.5909
 IR Inten    --     80.1843                40.0666                31.9894

                     46                     47                     48
                      A                      A                      A
 Frequencies --   3049.7687              3070.0947              3121.1508
 Red. masses --      1.0338                 1.0986                 1.0991
 Frc consts  --      5.6653                 6.1007                 6.3082
 IR Inten    --     13.6123                15.3803                13.5891

                     49                     50                     51
                      A                      A                      A
 Frequencies --   3126.6045              3137.2638              3217.6764
 Red. masses --      1.1025                 1.1024                 1.0954
 Frc consts  --      6.3501                 6.3927                 6.6820
 IR Inten    --     15.2347                 9.5705                 3.6799

 - Thermochemistry -
 -------------------
 Temperature   298.150 Kelvin.  Pressure   1.00000 Atm.
 Atom     1 has atomic number  6 and mass  12.00000

 Molecular mass:   126.06808 amu.
 Principal axes and moments of inertia in atomic units:
                           1         2         3
     Eigenvalues --   597.097571611.952881734.29748
           X            0.99940   0.02978   0.01774
           Y           -0.03014   0.99934   0.02037
           Z           -0.01712  -0.02089   0.99964
 This molecule is an asymmetric top.
 Rotational symmetry number  1.
 Warning -- assumption of classical behavior for rotation
           may cause significant error
 Rotational temperatures (Kelvin)      0.14506     0.05373     0.04994
 Rotational constants (GHZ):           3.02252     1.11960     1.04062
 Zero-point vibrational energy     410100.6 (Joules/Mol)
                                   98.01640 (Kcal/Mol)
 Warning -- explicit consideration of  13 degrees of freedom as
           vibrations may cause significant error
 Vibrational temperatures:     93.56   121.62   217.87   239.92   284.74
          (Kelvin)            365.58   372.75   453.31   527.58   564.30
                              667.72   734.64   866.82  1027.23  1194.36
                             1216.43  1289.55  1307.23  1357.24  1425.05
                             1438.44  1458.46  1550.32  1573.39  1595.18
                             1696.69  1707.27  1742.91  1786.97  1879.33
                             1986.38  1995.00  2015.47  2034.64  2127.25
                             2130.84  2139.15  2142.01  2188.99  2478.12
                             2633.53  4151.70  4276.45  4304.42  4349.42
                             4387.93  4417.18  4490.63  4498.48  4513.82
                             4629.51

 Zero-point correction=                           0.156199 (Hartree/Particle)
 Thermal correction to Energy=                    0.165783
 Thermal correction to Enthalpy=                  0.166727
 Thermal correction to Gibbs Free Energy=         0.121523
 Sum of electronic and zero-point Energies=           -423.050867
 Sum of electronic and thermal Energies=              -423.041283
 Sum of electronic and thermal Enthalpies=            -423.040339
 Sum of electronic and thermal Free Energies=         -423.085543

                     E (Thermal)             CV                S
                      KCal/Mol        Cal/Mol-Kelvin    Cal/Mol-Kelvin
 Total                  104.030             34.514             95.139
 Electronic               0.000              0.000              0.000
 Translational            0.889              2.981             40.409
 Rotational               0.889              2.981             28.903
 Vibrational            102.253             28.552             25.828
 Vibration     1          0.597              1.971              4.299
 Vibration     2          0.601              1.960              3.783
 Vibration     3          0.619              1.901              2.654
 Vibration     4          0.624              1.883              2.472
 Vibration     5          0.637              1.843              2.152
 Vibration     6          0.665              1.756              1.702
 Vibration     7          0.668              1.747              1.668
 Vibration     8          0.702              1.645              1.336
 Vibration     9          0.740              1.541              1.094
 Vibration    10          0.760              1.487              0.992
 Vibration    11          0.822              1.330              0.754
 Vibration    12          0.866              1.227              0.632
 Vibration    13          0.961              1.027              0.445

 Optimization completed.
    -- Stationary point found.
 Normal termination of Gaussian 09 at Mon Jan 27 22:47:28 2020.
