 Gaussian 09, Revision D.01,
 Gaussian 09:  ES64L-G09RevD.01 24-Apr-2013

 -----------------------------
 # b3lyp 6-31G(2df,p) opt Freq
 -----------------------------

 -----
 titel
 -----
 Symbolic Z-matrix:
 Charge =  0 Multiplicity = 1

 SCF Done:  E(RB3LYP) =  -423.173004814     A.U. after   14 cycles
 Optimization completed.
    -- Stationary point found.
 Normal termination of Gaussian 09 at Mon Jan 27 16:25:09 2020.

 ----------------------------------------------------------------------
 #N Geom=AllCheck Guess=TCheck SCRF=Check GenChk RB3LYP/6-31G(2df,p) Fr
 eq
 ----------------------------------------------------------------------

 Structure from the checkpoint file:  "/scratch/puck/g09_56300722-f640-4f20-9e80-96560e885aa8/Gau-12141.chk"
 -----
 titel
 -----
 Charge =  0 Multiplicity = 1

                         Standard orientation:
 ---------------------------------------------------------------------
 Center     Atomic      Atomic             Coordinates (Angstroms)
 Number     Number       Type             X           Y           Z
 ---------------------------------------------------------------------
      1          6           0       -2.172343    0.060379   -1.095446
      2          6           0       -1.129487   -0.245326   -0.020106
      3          6           0       -1.778509   -0.535514    1.338106
      4          6           0       -0.005720   -1.269016   -0.423385
      5          6           0        1.060494   -0.210390   -0.103164
      6          6           0        2.335638   -0.323302    0.626626
      7          8           0        2.295165   -0.021660   -0.764711
      8          6           0       -0.023603    0.839406    0.090864
      9          8           0       -0.035928    2.027769    0.231043
     10          1           0       -1.704138    0.271249   -2.062014
     11          1           0       -2.852793   -0.788126   -1.225930
     12          1           0       -2.765882    0.935610   -0.813462
     13          1           0       -1.030019   -0.758040    2.105766
     14          1           0       -2.362038    0.326018    1.677173
     15          1           0       -2.451025   -1.397220    1.264625
     16          1           0        0.038596   -2.184880    0.169447
     17          1           0       -0.023996   -1.527074   -1.485123
     18          1           0        2.655221    0.491933    1.273671
     19          1           0        2.703360   -1.315765    0.884220
 ---------------------------------------------------------------------

 SCF Done:  E(RB3LYP) =  -423.173004814     A.U. after    1 cycles

 The electronic state is 1-A.
 Alpha  occ. eigenvalues --  -19.16956 -19.14347 -10.26729 -10.25100 -10.24959
 Alpha  occ. eigenvalues --  -10.20862 -10.19602 -10.18991 -10.18617  -1.09131
 Alpha  occ. eigenvalues --   -1.04931  -0.85734  -0.74698  -0.69886  -0.67396
 Alpha  occ. eigenvalues --   -0.64072  -0.58999  -0.51687  -0.50234  -0.47325
 Alpha  occ. eigenvalues --   -0.46887  -0.45340  -0.44448  -0.41772  -0.40874
 Alpha  occ. eigenvalues --   -0.39150  -0.38466  -0.37923  -0.35882  -0.35039
 Alpha  occ. eigenvalues --   -0.33053  -0.30991  -0.28989  -0.23793
 Alpha virt. eigenvalues --   -0.03741   0.07897   0.09564   0.10958   0.11946
 Alpha virt. eigenvalues --    0.13167   0.13730   0.14774   0.15538   0.15671
 Alpha virt. eigenvalues --    0.16766   0.17857   0.19157   0.19273   0.20248

 Mulliken charges:
               1
     1  C   -0.439301
     2  C    0.188512
     3  C   -0.435456
     4  C   -0.398730
     5  C    0.349686
     6  C   -0.248696
     7  O   -0.256326
     8  C    0.308709
     9  O   -0.311497
    10  H    0.122487
    11  H    0.119026
    12  H    0.134505
    13  H    0.117506
    14  H    0.134034
    15  H    0.121445
    16  H    0.111318
    17  H    0.122389
    18  H    0.135430
    19  H    0.124957
 Sum of Mulliken charges =   0.00000

 Dipole moment (field-independent basis, Debye):
    X=             -1.0180    Y=             -2.9103    Z=              1.1426  Tot=              3.2881
 Quadrupole moment (field-independent basis, Debye-Ang):
   XX=            -52.4325   YY=            -57.9736   ZZ=            -52.2520
   XY=             -0.8370   XZ=              4.4658   YZ=             -0.7577

  Exact polarizability:  90.254  -1.504  73.709   4.646   0.603  67.038
 Approx polarizability: 118.695  -2.309 117.486   2.997   1.711 100.580

                      1                      2                      3
                      A                      A                      A
 Frequencies --     47.7181               160.9305               203.9868
 Red. masses --      3.6086                 4.0571                 1.4154
 Frc consts  --      0.0048                 0.0619                 0.0347
 IR Inten    --      0.6443                 3.5347                 0.8644

                      4                      5                      6
                      A                      A                      A
 Frequencies --    209.5287               227.4619               234.0414
 Red. masses --      1.5962                 1.5268                 5.5890
 Frc consts  --      0.0413                 0.0465                 0.1804
 IR Inten    --      1.1848                 1.6763                 1.7820

                      7                      8                      9
                      A                      A                      A
 Frequencies --    278.0845               281.5640               320.2990
 Red. masses --      3.6058                 1.8499                 2.4693
 Frc consts  --      0.1643                 0.0864                 0.1493
 IR Inten    --      3.4259                 0.3702                 0.1839

                     10                     11                     12
                      A                      A                      A
 Frequencies --    390.6216               509.8286               568.0571
 Red. masses --      1.8425                 3.8016                 2.9497
 Frc consts  --      0.1656                 0.5822                 0.5608
 IR Inten    --      1.0507                 0.9187                 3.6530

                     13                     14                     15
                      A                      A                      A
 Frequencies --    709.5339               730.8546               769.3847
 Red. masses --      4.7041                 4.0214                 3.5347
 Frc consts  --      1.3953                 1.2656                 1.2328
 IR Inten    --      4.1694                 2.7911                 2.4902

                     16                     17                     18
                      A                      A                      A
 Frequencies --    842.3379               870.5743               907.9015
 Red. masses --      2.7200                 3.2759                 1.9296
 Frc consts  --      1.1371                 1.4628                 0.9371
 IR Inten    --     36.2290                12.6583                18.9770

                     19                     20                     21
                      A                      A                      A
 Frequencies --    931.3493               966.3773               970.3818
 Red. masses --      2.0270                 1.5390                 2.7175
 Frc consts  --      1.0359                 0.8468                 1.5077
 IR Inten    --      4.1592                 3.2178                20.0152

                     22                     23                     24
                      A                      A                      A
 Frequencies --   1005.1065              1025.1904              1114.5212
 Red. masses --      2.0328                 1.4617                 1.5221
 Frc consts  --      1.2100                 0.9052                 1.1139
 IR Inten    --     46.3344                 7.9904                 4.3677

                     25                     26                     27
                      A                      A                      A
 Frequencies --   1133.4208              1149.8786              1158.4300
 Red. masses --      1.4176                 2.1756                 1.3542
 Frc consts  --      1.0730                 1.6949                 1.0707
 IR Inten    --      5.7085                24.2285                 1.9729

                     28                     29                     30
                      A                      A                      A
 Frequencies --   1197.8065              1213.4500              1238.2559
 Red. masses --      1.8846                 2.0066                 2.6487
 Frc consts  --      1.5931                 1.7409                 2.3928
 IR Inten    --      3.2583                 3.0328                 2.1125

                     31                     32                     33
                      A                      A                      A
 Frequencies --   1289.4239              1396.5546              1408.2397
 Red. masses --      2.6967                 1.2225                 2.5957
 Frc consts  --      2.6417                 1.4049                 3.0329
 IR Inten    --      7.3306                 3.2492                 7.2541

                     34                     35                     36
                      A                      A                      A
 Frequencies --   1418.2860              1479.7993              1483.1585
 Red. masses --      1.3019                 1.0991                 1.0459
 Frc consts  --      1.5429                 1.4180                 1.3556
 IR Inten    --      2.3668                 4.3383                 0.3426

                     37                     38                     39
                      A                      A                      A
 Frequencies --   1485.2396              1501.9640              1505.6767
 Red. masses --      1.0552                 1.0596                 1.0537
 Frc consts  --      1.3714                 1.4083                 1.4075
 IR Inten    --      4.7909                 5.0856                 5.6090

                     40                     41                     42
                      A                      A                      A
 Frequencies --   1518.1185              1887.4210              3028.0394
 Red. masses --      1.3765                12.7551                 1.0343
 Frc consts  --      1.8691                26.7713                 5.5876
 IR Inten    --      4.1803               195.0615                23.2953

                     43                     44                     45
                      A                      A                      A
 Frequencies --   3031.4902              3068.9503              3083.4171
 Red. masses --      1.0351                 1.0586                 1.0490
 Frc consts  --      5.6044                 5.8743                 5.8761
 IR Inten    --     20.9885                14.2353                20.7096

                     46                     47                     48
                      A                      A                      A
 Frequencies --   3096.4569              3100.5448              3106.4833
 Red. masses --      1.1018                 1.1015                 1.1021
 Frc consts  --      6.2243                 6.2390                 6.2661
 IR Inten    --     16.4616                22.1169                 4.2946

                     49                     50                     51
                      A                      A                      A
 Frequencies --   3110.1202              3124.1628              3178.8604
 Red. masses --      1.1012                 1.1081                 1.1205
 Frc consts  --      6.2758                 6.3721                 6.6713
 IR Inten    --     30.1990                15.3011                13.4575

 - Thermochemistry -
 -------------------
 Temperature   298.150 Kelvin.  Pressure   1.00000 Atm.
 Atom     1 has atomic number  6 and mass  12.00000

 Molecular mass:   126.06808 amu.
 Principal axes and moments of inertia in atomic units:
                           1         2         3
     Eigenvalues --   663.312191399.357921541.28103
           X            0.99973   0.00465   0.02296
           Y           -0.00357   0.99890  -0.04684
           Z           -0.02315   0.04674   0.99864
 This molecule is an asymmetric top.
 Rotational symmetry number  1.
 Warning -- assumption of classical behavior for rotation
           may cause significant error
 Rotational temperatures (Kelvin)      0.13058     0.06190     0.05620
 Rotational constants (GHZ):           2.72080     1.28969     1.17094
 Zero-point vibrational energy     410733.5 (Joules/Mol)
                                   98.16767 (Kcal/Mol)
 Warning -- explicit consideration of  12 degrees of freedom as
           vibrations may cause significant error
 Vibrational temperatures:     68.66   231.54   293.49   301.46   327.27
          (Kelvin)            336.73   400.10   405.11   460.84   562.02
                              733.53   817.31  1020.86  1051.54  1106.97
                             1211.93  1252.56  1306.27  1340.00  1390.40
                             1396.16  1446.12  1475.02  1603.55  1630.74
                             1654.42  1666.72  1723.37  1745.88  1781.57
                             1855.19  2009.33  2026.14  2040.59  2129.10
                             2133.93  2136.93  2160.99  2166.33  2184.23
                             2715.57  4356.67  4361.63  4415.53  4436.34
                             4455.11  4460.99  4469.53  4474.76  4494.97
                             4573.67

 Zero-point correction=                           0.156440 (Hartree/Particle)
 Thermal correction to Energy=                    0.165742
 Thermal correction to Enthalpy=                  0.166686
 Thermal correction to Gibbs Free Energy=         0.122366
 Sum of electronic and zero-point Energies=           -423.016565
 Sum of electronic and thermal Energies=              -423.007263
 Sum of electronic and thermal Enthalpies=            -423.006319
 Sum of electronic and thermal Free Energies=         -423.050639

                     E (Thermal)             CV                S
                      KCal/Mol        Cal/Mol-Kelvin    Cal/Mol-Kelvin
 Total                  104.005             34.377             93.280
 Electronic               0.000              0.000              0.000
 Translational            0.889              2.981             40.409
 Rotational               0.889              2.981             28.749
 Vibrational            102.227             28.416             24.122
 Vibration     1          0.595              1.978              4.910
 Vibration     2          0.622              1.890              2.539
 Vibration     3          0.640              1.834              2.097
 Vibration     4          0.642              1.826              2.048
 Vibration     5          0.651              1.799              1.899
 Vibration     6          0.654              1.789              1.848
 Vibration     7          0.679              1.714              1.545
 Vibration     8          0.681              1.708              1.524
 Vibration     9          0.706              1.635              1.309
 Vibration    10          0.758              1.490              0.998
 Vibration    11          0.865              1.228              0.634
 Vibration    12          0.924              1.100              0.508

 Optimization completed.
    -- Stationary point found.
 Normal termination of Gaussian 09 at Mon Jan 27 18:15:09 2020.
