 Gaussian 09, Revision D.01,
 Gaussian 09:  ES64L-G09RevD.01 24-Apr-2013

 -----------------------------
 # b3lyp 6-31G(2df,p) opt Freq
 -----------------------------

 -----
 titel
 -----
 Symbolic Z-matrix:
 Charge =  0 Multiplicity = 1

 SCF Done:  E(RB3LYP) =  -423.167781861     A.U. after   13 cycles
 Optimization completed.
    -- Stationary point found.
 Normal termination of Gaussian 09 at Mon Jan 27 18:15:04 2020.

 ----------------------------------------------------------------------
 #N Geom=AllCheck Guess=TCheck SCRF=Check GenChk RB3LYP/6-31G(2df,p) Fr
 eq
 ----------------------------------------------------------------------

 Structure from the checkpoint file:  "/scratch/puck/g09_b8eb4b5d-b7b4-43bb-809a-0380c77290a2/Gau-88750.chk"
 -----
 titel
 -----
 Charge =  0 Multiplicity = 1

                         Standard orientation:
 ---------------------------------------------------------------------
 Center     Atomic      Atomic             Coordinates (Angstroms)
 Number     Number       Type             X           Y           Z
 ---------------------------------------------------------------------
      1          6           0        2.603910   -0.170945    0.083962
      2          6           0        1.119299    0.018433   -0.060606
      3          6           0        0.528957    1.349919   -0.583632
      4          6           0       -0.680402    1.179455    0.391584
      5          8           0       -1.878423    0.707622   -0.205098
      6          6           0       -1.910642   -0.720287   -0.209563
      7          6           0       -0.554832   -1.198342    0.291375
      8          8           0        0.479650   -1.112457   -0.719715
      9          6           0        0.043963   -0.016957    1.069282
     10          1           0        2.829640   -1.106928    0.603656
     11          1           0        3.074805   -0.210585   -0.904874
     12          1           0        3.052043    0.658086    0.640846
     13          1           0        1.148204    2.209889   -0.308706
     14          1           0        0.290967    1.388348   -1.648500
     15          1           0       -0.920946    2.053010    1.001034
     16          1           0       -2.716540   -1.072921    0.450793
     17          1           0       -2.105761   -1.082705   -1.225398
     18          1           0       -0.582724   -2.189974    0.753621
     19          1           0        0.218973   -0.055199    2.141615
 ---------------------------------------------------------------------

 SCF Done:  E(RB3LYP) =  -423.167781861     A.U. after    1 cycles

 The electronic state is 1-A.
 Alpha  occ. eigenvalues --  -19.13409 -19.13127 -10.23966 -10.23634 -10.23271
 Alpha  occ. eigenvalues --  -10.22402 -10.18952 -10.17914 -10.17598  -1.05316
 Alpha  occ. eigenvalues --   -1.01579  -0.81951  -0.75491  -0.72700  -0.67246
 Alpha  occ. eigenvalues --   -0.62234  -0.56785  -0.52652  -0.51203  -0.48923
 Alpha  occ. eigenvalues --   -0.45796  -0.45291  -0.43011  -0.42187  -0.41300
 Alpha  occ. eigenvalues --   -0.38400  -0.37389  -0.36859  -0.34848  -0.31909
 Alpha  occ. eigenvalues --   -0.29612  -0.28318  -0.24690  -0.24243
 Alpha virt. eigenvalues --    0.07411   0.08889   0.10030   0.12568   0.12958
 Alpha virt. eigenvalues --    0.13506   0.14117   0.15628   0.16692   0.16979
 Alpha virt. eigenvalues --    0.17496   0.17877   0.18151   0.20131   0.21741

 Mulliken charges:
               1
     1  C   -0.482813
     2  C    0.450886
     3  C   -0.288056
     4  C    0.111351
     5  O   -0.272789
     6  C   -0.090879
     7  C    0.096726
     8  O   -0.349660
     9  C   -0.198500
    10  H    0.123071
    11  H    0.131165
    12  H    0.116360
    13  H    0.096300
    14  H    0.109855
    15  H    0.082148
    16  H    0.094397
    17  H    0.114943
    18  H    0.079817
    19  H    0.075677
 Sum of Mulliken charges =   0.00000

 Dipole moment (field-independent basis, Debye):
    X=              0.9206    Y=              0.0038    Z=              1.7275  Tot=              1.9575
 Quadrupole moment (field-independent basis, Debye-Ang):
   XX=            -53.9715   YY=            -52.5350   ZZ=            -52.6545
   XY=              4.4824   XZ=             -0.1340   YZ=             -0.9408

  Exact polarizability:  83.290   5.492  74.295  -0.787  -1.025  65.032
 Approx polarizability: 109.524   5.688 109.026  -1.396   0.778 101.314

                      1                      2                      3
                      A                      A                      A
 Frequencies --    106.8756               207.4009               219.9963
 Red. masses --      3.2909                 1.1940                 2.3642
 Frc consts  --      0.0221                 0.0303                 0.0674
 IR Inten    --      3.8778                 0.2343                 0.5120

                      4                      5                      6
                      A                      A                      A
 Frequencies --    266.2940               364.8995               403.7754
 Red. masses --      2.2382                 2.9354                 2.0903
 Frc consts  --      0.0935                 0.2303                 0.2008
 IR Inten    --      1.3278                 0.9605                 1.8059

                      7                      8                      9
                      A                      A                      A
 Frequencies --    420.8864               575.8249               651.1599
 Red. masses --      3.0271                 3.6064                 4.6404
 Frc consts  --      0.3159                 0.7045                 1.1593
 IR Inten    --      2.6245                 3.1439                 7.1210

                     10                     11                     12
                      A                      A                      A
 Frequencies --    719.9604               768.6643               791.7137
 Red. masses --      3.5498                 4.9178                 2.3330
 Frc consts  --      1.0841                 1.7120                 0.8616
 IR Inten    --      1.1668                 3.6190                 6.6002

                     13                     14                     15
                      A                      A                      A
 Frequencies --    854.4998               858.3068               884.5947
 Red. masses --      2.2179                 2.2430                 2.7695
 Frc consts  --      0.9542                 0.9736                 1.2769
 IR Inten    --     10.8422                 9.9201                19.8220

                     16                     17                     18
                      A                      A                      A
 Frequencies --    905.4541               928.8531               960.6315
 Red. masses --      1.8332                 2.2335                 1.8762
 Frc consts  --      0.8855                 1.1354                 1.0201
 IR Inten    --     14.7783                 1.8089                16.8788

                     19                     20                     21
                      A                      A                      A
 Frequencies --    965.3238               974.2665               998.9032
 Red. masses --      3.2738                 3.0387                 1.7660
 Frc consts  --      1.7974                 1.6994                 1.0382
 IR Inten    --     27.3481                 3.8797                 4.4135

                     22                     23                     24
                      A                      A                      A
 Frequencies --   1060.9670              1078.5679              1143.9134
 Red. masses --      2.1047                 2.2868                 2.3225
 Frc consts  --      1.3958                 1.5673                 1.7906
 IR Inten    --      5.6782                73.6413                67.9593

                     25                     26                     27
                      A                      A                      A
 Frequencies --   1146.2866              1170.8462              1192.3027
 Red. masses --      2.3151                 2.1340                 1.9187
 Frc consts  --      1.7923                 1.7236                 1.6071
 IR Inten    --     18.6390                 1.6113                38.2226

                     28                     29                     30
                      A                      A                      A
 Frequencies --   1200.9270              1219.5718              1237.6041
 Red. masses --      1.8359                 1.2031                 2.0706
 Frc consts  --      1.5601                 1.0543                 1.8686
 IR Inten    --     11.2669                 2.4022                 9.1009

                     31                     32                     33
                      A                      A                      A
 Frequencies --   1254.1917              1300.9365              1326.1526
 Red. masses --      1.4329                 1.8251                 2.1120
 Frc consts  --      1.3280                 1.8199                 2.1884
 IR Inten    --      4.2449                 1.6571                41.0364

                     34                     35                     36
                      A                      A                      A
 Frequencies --   1333.6601              1348.0150              1393.3540
 Red. masses --      1.3544                 1.3940                 1.4032
 Frc consts  --      1.4194                 1.4925                 1.6051
 IR Inten    --      5.4899                 0.8785                 3.2336

                     37                     38                     39
                      A                      A                      A
 Frequencies --   1412.1816              1453.8615              1480.6591
 Red. masses --      1.4412                 1.1315                 1.0544
 Frc consts  --      1.6934                 1.4091                 1.3619
 IR Inten    --      9.0470                 2.9199                 2.6526

                     40                     41                     42
                      A                      A                      A
 Frequencies --   1489.3283              1506.0307              2997.4420
 Red. masses --      1.0501                 1.0909                 1.0656
 Frc consts  --      1.3724                 1.4578                 5.6408
 IR Inten    --      3.0177                 1.0982                61.4622

                     43                     44                     45
                      A                      A                      A
 Frequencies --   3032.0081              3052.1744              3060.4781
 Red. masses --      1.0355                 1.0612                 1.0874
 Frc consts  --      5.6087                 5.8247                 6.0008
 IR Inten    --     16.5035                28.3146                56.2327

                     46                     47                     48
                      A                      A                      A
 Frequencies --   3062.5786              3085.2304              3100.6102
 Red. masses --      1.0986                 1.0887                 1.1002
 Frc consts  --      6.0710                 6.1057                 6.2317
 IR Inten    --     28.0984                38.0472                13.6868

                     49                     50                     51
                      A                      A                      A
 Frequencies --   3111.6509              3124.5794              3144.4812
 Red. masses --      1.1018                 1.1055                 1.0921
 Frc consts  --      6.2857                 6.3588                 6.3624
 IR Inten    --     18.6416                17.8360                22.4103

 - Thermochemistry -
 -------------------
 Temperature   298.150 Kelvin.  Pressure   1.00000 Atm.
 Atom     1 has atomic number  6 and mass  12.00000

 Molecular mass:   126.06808 amu.
 Principal axes and moments of inertia in atomic units:
                           1         2         3
     Eigenvalues --   544.888561061.185241302.00217
           X            0.99921   0.03957   0.00189
           Y           -0.03950   0.99884  -0.02752
           Z           -0.00298   0.02742   0.99962
 This molecule is an asymmetric top.
 Rotational symmetry number  1.
 Warning -- assumption of classical behavior for rotation
           may cause significant error
 Rotational temperatures (Kelvin)      0.15896     0.08162     0.06652
 Rotational constants (GHZ):           3.31213     1.70068     1.38613
 Zero-point vibrational energy     420779.7 (Joules/Mol)
                                  100.56877 (Kcal/Mol)
 Warning -- explicit consideration of   8 degrees of freedom as
           vibrations may cause significant error
 Vibrational temperatures:    153.77   298.40   316.53   383.14   525.01
          (Kelvin)            580.94   605.56   828.48   936.87  1035.86
                             1105.94  1139.10  1229.43  1234.91  1272.73
                             1302.74  1336.41  1382.13  1388.88  1401.75
                             1437.20  1526.49  1551.82  1645.83  1649.25
                             1684.58  1715.46  1727.86  1754.69  1780.63
                             1804.50  1871.76  1908.04  1918.84  1939.49
                             2004.72  2031.81  2091.78  2130.34  2142.81
                             2166.84  4312.65  4362.38  4391.39  4403.34
                             4406.36  4438.95  4461.08  4476.97  4495.57
                             4524.20

 Zero-point correction=                           0.160267 (Hartree/Particle)
 Thermal correction to Energy=                    0.167604
 Thermal correction to Enthalpy=                  0.168548
 Thermal correction to Gibbs Free Energy=         0.128710
 Sum of electronic and zero-point Energies=           -423.007515
 Sum of electronic and thermal Energies=              -423.000178
 Sum of electronic and thermal Enthalpies=            -422.999233
 Sum of electronic and thermal Free Energies=         -423.039072

                     E (Thermal)             CV                S
                      KCal/Mol        Cal/Mol-Kelvin    Cal/Mol-Kelvin
 Total                  105.173             29.463             83.847
 Electronic               0.000              0.000              0.000
 Translational            0.889              2.981             40.409
 Rotational               0.889              2.981             28.112
 Vibrational            103.396             23.501             15.327
 Vibration     1          0.606              1.944              3.325
 Vibration     2          0.641              1.829              2.066
 Vibration     3          0.647              1.811              1.959
 Vibration     4          0.672              1.735              1.620
 Vibration     5          0.738              1.545              1.101
 Vibration     6          0.769              1.462              0.949
 Vibration     7          0.783              1.425              0.889
 Vibration     8          0.932              1.084              0.493

 Optimization completed.
    -- Stationary point found.
 Normal termination of Gaussian 09 at Mon Jan 27 18:58:55 2020.
