 Gaussian 09, Revision D.01,
 Gaussian 09:  ES64L-G09RevD.01 24-Apr-2013

 -----------------------------
 # b3lyp 6-31G(2df,p) opt Freq
 -----------------------------

 -----
 titel
 -----
 Symbolic Z-matrix:
 Charge =  0 Multiplicity = 1

 SCF Done:  E(RB3LYP) =  -423.147168195     A.U. after   14 cycles
 Optimization completed.
    -- Stationary point found.
 Normal termination of Gaussian 09 at Tue Jan 28 00:04:03 2020.

 ----------------------------------------------------------------------
 #N Geom=AllCheck Guess=TCheck SCRF=Check GenChk RB3LYP/6-31G(2df,p) Fr
 eq
 ----------------------------------------------------------------------

 Structure from the checkpoint file:  "/scratch/puck/g09_55b4635c-fa07-49dc-b729-c326210029b2/Gau-82506.chk"
 -----
 titel
 -----
 Charge =  0 Multiplicity = 1

                         Standard orientation:
 ---------------------------------------------------------------------
 Center     Atomic      Atomic             Coordinates (Angstroms)
 Number     Number       Type             X           Y           Z
 ---------------------------------------------------------------------
      1          6           0       -1.759743    1.715632   -0.512846
      2          6           0       -1.054518    0.883062    0.534328
      3          6           0       -1.429586   -0.533271    0.855532
      4          8           0       -1.886507   -1.227707   -0.306672
      5          6           0       -0.581581   -1.078789   -0.925426
      6          6           0       -0.066802   -0.246671    0.250525
      7          6           0        1.330065   -0.319260    0.809466
      8          6           0        2.308789    0.485198   -0.028070
      9          8           0        3.331359    0.053985   -0.492695
     10          1           0       -1.073216    2.414885   -1.001718
     11          1           0       -2.211565    1.079581   -1.277401
     12          1           0       -2.564585    2.300424   -0.055671
     13          1           0       -0.758629    1.431456    1.428262
     14          1           0       -1.741277   -0.911355    1.823339
     15          1           0       -0.085360   -2.052937   -1.006677
     16          1           0       -0.634486   -0.608886   -1.914225
     17          1           0        1.337249    0.108587    1.821903
     18          1           0        1.694917   -1.349641    0.874884
     19          1           0        1.998389    1.542251   -0.198810
 ---------------------------------------------------------------------

 SCF Done:  E(RB3LYP) =  -423.147168195     A.U. after    1 cycles

 The electronic state is 1-A.
 Alpha  occ. eigenvalues --  -19.14593 -19.14451 -10.27643 -10.24533 -10.24111
 Alpha  occ. eigenvalues --  -10.21398 -10.20645 -10.20546 -10.18275  -1.05933
 Alpha  occ. eigenvalues --   -1.05137  -0.85497  -0.77003  -0.71416  -0.70006
 Alpha  occ. eigenvalues --   -0.59202  -0.57398  -0.55351  -0.51444  -0.48373
 Alpha  occ. eigenvalues --   -0.47706  -0.45299  -0.43877  -0.42720  -0.41481
 Alpha  occ. eigenvalues --   -0.40950  -0.39501  -0.37932  -0.36432  -0.33432
 Alpha  occ. eigenvalues --   -0.32332  -0.28034  -0.25950  -0.23644
 Alpha virt. eigenvalues --   -0.02769   0.07001   0.08492   0.10378   0.11057
 Alpha virt. eigenvalues --    0.12105   0.12874   0.13931   0.14893   0.15895
 Alpha virt. eigenvalues --    0.17332   0.17693   0.18728   0.19346   0.20390

 Mulliken charges:
               1
     1  C   -0.424157
     2  C   -0.078721
     3  C    0.022580
     4  O   -0.280779
     5  C   -0.135795
     6  C    0.238736
     7  C   -0.395733
     8  C    0.165249
     9  O   -0.235087
    10  H    0.116893
    11  H    0.140701
    12  H    0.122408
    13  H    0.088164
    14  H    0.105887
    15  H    0.115454
    16  H    0.110117
    17  H    0.122876
    18  H    0.123595
    19  H    0.077611
 Sum of Mulliken charges =   0.00000

 Dipole moment (field-independent basis, Debye):
    X=             -1.0511    Y=              1.1515    Z=              1.5761  Tot=              2.2170
 Quadrupole moment (field-independent basis, Debye-Ang):
   XX=            -68.2160   YY=            -52.6116   ZZ=            -50.1358
   XY=             -1.8591   XZ=              1.9173   YZ=              0.1095

  Exact polarizability:  84.784  -4.666  75.685  -4.313   0.234  68.621
 Approx polarizability: 121.726  -5.033 110.298 -10.956   3.496 104.167

                      1                      2                      3
                      A                      A                      A
 Frequencies --     52.5299                63.2400               143.6441
 Red. masses --      5.7434                 3.6922                 2.2848
 Frc consts  --      0.0093                 0.0087                 0.0278
 IR Inten    --      5.5597                 3.4906                 0.6849

                      4                      5                      6
                      A                      A                      A
 Frequencies --    174.6860               248.8474               257.1444
 Red. masses --      1.1111                 2.9426                 2.5204
 Frc consts  --      0.0200                 0.1074                 0.0982
 IR Inten    --      0.1944                 3.4792                 3.2859

                      7                      8                      9
                      A                      A                      A
 Frequencies --    310.1882               315.0522               424.6609
 Red. masses --      2.7010                 3.5349                 2.6593
 Frc consts  --      0.1531                 0.2067                 0.2826
 IR Inten    --      1.2691                 1.7560                 1.1374

                     10                     11                     12
                      A                      A                      A
 Frequencies --    490.3719               593.3946               669.0117
 Red. masses --      2.4844                 3.1123                 2.5682
 Frc consts  --      0.3520                 0.6457                 0.6773
 IR Inten    --     15.5657                 0.8783                 0.1273

                     13                     14                     15
                      A                      A                      A
 Frequencies --    757.9854               778.5895               813.4021
 Red. masses --      3.0810                 3.1245                 1.8092
 Frc consts  --      1.0430                 1.1160                 0.7053
 IR Inten    --      4.3613                14.1614                 4.1412

                     16                     17                     18
                      A                      A                      A
 Frequencies --    927.4674               933.9475               955.2464
 Red. masses --      2.0045                 2.8577                 1.6529
 Frc consts  --      1.0159                 1.4686                 0.8886
 IR Inten    --     13.7617                20.5941                 5.5837

                     19                     20                     21
                      A                      A                      A
 Frequencies --    996.2736              1005.2569              1017.2421
 Red. masses --      2.8559                 1.6528                 1.9105
 Frc consts  --      1.6701                 0.9841                 1.1648
 IR Inten    --     18.7730                 4.2311                27.5557

                     22                     23                     24
                      A                      A                      A
 Frequencies --   1056.2693              1081.6901              1098.7500
 Red. masses --      1.9076                 1.9465                 2.2754
 Frc consts  --      1.2540                 1.3418                 1.6185
 IR Inten    --     20.7191                15.0267                 8.5572

                     25                     26                     27
                      A                      A                      A
 Frequencies --   1115.3619              1140.0159              1161.2682
 Red. masses --      2.2579                 2.3192                 1.1770
 Frc consts  --      1.6550                 1.7759                 0.9352
 IR Inten    --      0.2142                11.9338                 1.1167

                     28                     29                     30
                      A                      A                      A
 Frequencies --   1192.3750              1254.2486              1266.1291
 Red. masses --      1.5502                 1.5814                 1.3532
 Frc consts  --      1.2985                 1.4658                 1.2781
 IR Inten    --     10.1473                11.1980                 1.1303

                     31                     32                     33
                      A                      A                      A
 Frequencies --   1305.9352              1318.3517              1353.8469
 Red. masses --      1.5861                 2.1132                 1.4585
 Frc consts  --      1.5938                 2.1640                 1.5751
 IR Inten    --      0.1963                 5.2542                 2.9260

                     34                     35                     36
                      A                      A                      A
 Frequencies --   1414.4328              1424.4775              1453.2933
 Red. masses --      1.2475                 1.1894                 1.1250
 Frc consts  --      1.4705                 1.4220                 1.3999
 IR Inten    --      2.9268                 5.2758                 6.0755

                     37                     38                     39
                      A                      A                      A
 Frequencies --   1463.8765              1492.5555              1503.1355
 Red. masses --      2.3994                 1.0711                 1.1167
 Frc consts  --      3.0295                 1.4059                 1.4865
 IR Inten    --      0.9392                 2.0254                 5.2708

                     40                     41                     42
                      A                      A                      A
 Frequencies --   1519.5677              1835.9292              2864.1153
 Red. masses --      1.0982                10.1094                 1.0823
 Frc consts  --      1.4941                20.0765                 5.2310
 IR Inten    --      1.2029               190.5808                92.4069

                     43                     44                     45
                      A                      A                      A
 Frequencies --   3015.1226              3025.0519              3037.8798
 Red. masses --      1.0624                 1.0545                 1.0375
 Frc consts  --      5.6907                 5.6853                 5.6411
 IR Inten    --     11.9211                51.7701                28.2164

                     46                     47                     48
                      A                      A                      A
 Frequencies --   3073.6533              3084.0557              3096.6593
 Red. masses --      1.1110                 1.0985                 1.1012
 Frc consts  --      6.1840                 6.1561                 6.2217
 IR Inten    --     29.5610                19.6648                21.0123

                     49                     50                     51
                      A                      A                      A
 Frequencies --   3114.5324              3130.4270              3171.7050
 Red. masses --      1.0881                 1.0959                 1.0937
 Frc consts  --      6.2187                 6.3276                 6.4826
 IR Inten    --      2.3908                19.9372                22.4656

 - Thermochemistry -
 -------------------
 Temperature   298.150 Kelvin.  Pressure   1.00000 Atm.
 Atom     1 has atomic number  6 and mass  12.00000

 Molecular mass:   126.06808 amu.
 Principal axes and moments of inertia in atomic units:
                           1         2         3
     Eigenvalues --   611.717631717.436081925.73484
           X            0.99951  -0.02838   0.01307
           Y            0.02875   0.99917  -0.02882
           Z           -0.01224   0.02918   0.99950
 This molecule is an asymmetric top.
 Rotational symmetry number  1.
 Warning -- assumption of classical behavior for rotation
           may cause significant error
 Rotational temperatures (Kelvin)      0.14159     0.05043     0.04498
 Rotational constants (GHZ):           2.95028     1.05083     0.93717
 Zero-point vibrational energy     412669.1 (Joules/Mol)
                                   98.63029 (Kcal/Mol)
 Warning -- explicit consideration of  11 degrees of freedom as
           vibrations may cause significant error
 Vibrational temperatures:     75.58    90.99   206.67   251.33   358.04
          (Kelvin)            369.97   446.29   453.29   610.99   705.53
                              853.76   962.56  1090.57  1120.22  1170.30
                             1334.42  1343.74  1374.38  1433.41  1446.34
                             1463.58  1519.73  1556.31  1580.85  1604.76
                             1640.23  1670.80  1715.56  1804.58  1821.68
                             1878.95  1896.81  1947.88  2035.05  2049.50
                             2090.96  2106.19  2147.45  2162.67  2186.32
                             2641.49  4120.82  4338.08  4352.37  4370.83
                             4422.30  4437.26  4455.40  4481.11  4503.98
                             4563.37

 Zero-point correction=                           0.157177 (Hartree/Particle)
 Thermal correction to Energy=                    0.166243
 Thermal correction to Enthalpy=                  0.167187
 Thermal correction to Gibbs Free Energy=         0.122458
 Sum of electronic and zero-point Energies=           -422.989991
 Sum of electronic and thermal Energies=              -422.980925
 Sum of electronic and thermal Enthalpies=            -422.979981
 Sum of electronic and thermal Free Energies=         -423.024710

                     E (Thermal)             CV                S
                      KCal/Mol        Cal/Mol-Kelvin    Cal/Mol-Kelvin
 Total                  104.319             32.843             94.140
 Electronic               0.000              0.000              0.000
 Translational            0.889              2.981             40.409
 Rotational               0.889              2.981             29.094
 Vibrational            102.542             26.881             24.638
 Vibration     1          0.596              1.977              4.720
 Vibration     2          0.597              1.972              4.353
 Vibration     3          0.616              1.910              2.755
 Vibration     4          0.627              1.874              2.384
 Vibration     5          0.662              1.765              1.739
 Vibration     6          0.667              1.751              1.681
 Vibration     7          0.699              1.654              1.361
 Vibration     8          0.702              1.645              1.336
 Vibration     9          0.787              1.417              0.876
 Vibration    10          0.846              1.271              0.683
 Vibration    11          0.951              1.046              0.461

 Optimization completed.
    -- Stationary point found.
 Normal termination of Gaussian 09 at Tue Jan 28 00:42:26 2020.
