 Gaussian 09, Revision D.01,
 Gaussian 09:  ES64L-G09RevD.01 24-Apr-2013

 -----------------------------
 # b3lyp 6-31G(2df,p) opt Freq
 -----------------------------

 -----
 titel
 -----
 Symbolic Z-matrix:
 Charge =  0 Multiplicity = 1

 SCF Done:  E(RB3LYP) =  -423.179413784     A.U. after   14 cycles
 Optimization completed.
    -- Stationary point found.
 Normal termination of Gaussian 09 at Mon Jan 27 22:54:35 2020.

 ----------------------------------------------------------------------
 #N Geom=AllCheck Guess=TCheck SCRF=Check GenChk RB3LYP/6-31G(2df,p) Fr
 eq
 ----------------------------------------------------------------------

 Structure from the checkpoint file:  "/scratch/puck/g09_b3b9029d-db55-440a-9525-cea45541a67b/Gau-65031.chk"
 -----
 titel
 -----
 Charge =  0 Multiplicity = 1

                         Standard orientation:
 ---------------------------------------------------------------------
 Center     Atomic      Atomic             Coordinates (Angstroms)
 Number     Number       Type             X           Y           Z
 ---------------------------------------------------------------------
      1          6           0       -3.134946   -0.029682    0.314761
      2          6           0       -1.677754   -0.076615   -0.017713
      3          6           0       -1.016274   -1.069633   -0.628949
      4          6           0        0.439868   -0.792894   -0.747818
      5          6           0        1.177871   -0.647731    0.586494
      6          8           0        2.580427   -0.670344    0.576574
      7          6           0        0.629143    0.577384   -0.085842
      8          8           0        1.521439    1.539913   -0.532579
      9          6           0       -0.748689    1.076870    0.319143
     10          1           0       -3.298993    0.053544    1.396822
     11          1           0       -3.615827    0.846847   -0.138815
     12          1           0       -3.656248   -0.924250   -0.037256
     13          1           0       -1.474041   -1.991929   -0.972014
     14          1           0        1.019270   -1.097237   -1.613984
     15          1           0        0.711899   -1.052180    1.485839
     16          1           0        2.874943   -1.545732    0.305178
     17          1           0        2.405229    1.192545   -0.347811
     18          1           0       -0.792873    1.354148    1.380036
     19          1           0       -1.003600    1.981503   -0.250400
 ---------------------------------------------------------------------

 SCF Done:  E(RB3LYP) =  -423.179413784     A.U. after    1 cycles

 The electronic state is 1-A.
 Alpha  occ. eigenvalues --  -19.15946 -19.13248 -10.23352 -10.23268 -10.18444
 Alpha  occ. eigenvalues --  -10.18175 -10.18099 -10.18059 -10.17450  -1.04905
 Alpha  occ. eigenvalues --   -1.01356  -0.86905  -0.77784  -0.70400  -0.69025
 Alpha  occ. eigenvalues --   -0.60452  -0.56084  -0.53879  -0.52226  -0.49251
 Alpha  occ. eigenvalues --   -0.47310  -0.43172  -0.41981  -0.41060  -0.39055
 Alpha  occ. eigenvalues --   -0.37771  -0.37651  -0.35805  -0.35352  -0.33630
 Alpha  occ. eigenvalues --   -0.31108  -0.28801  -0.23622  -0.21124
 Alpha virt. eigenvalues --    0.02275   0.06548   0.10263   0.11663   0.13392
 Alpha virt. eigenvalues --    0.14115   0.14470   0.15552   0.17157   0.17927
 Alpha virt. eigenvalues --    0.17967   0.18323   0.21018   0.21902   0.22955

 Mulliken charges:
               1
     1  C   -0.487478
     2  C    0.307518
     3  C   -0.177481
     4  C   -0.227983
     5  C    0.005776
     6  O   -0.438373
     7  C    0.433041
     8  O   -0.481364
     9  C   -0.378049
    10  H    0.124502
    11  H    0.125352
    12  H    0.122079
    13  H    0.086161
    14  H    0.086412
    15  H    0.087380
    16  H    0.295096
    17  H    0.290523
    18  H    0.108839
    19  H    0.118049
 Sum of Mulliken charges =   0.00000

 Dipole moment (field-independent basis, Debye):
    X=             -0.2180    Y=             -2.1265    Z=              0.3265  Tot=              2.1624
 Quadrupole moment (field-independent basis, Debye-Ang):
   XX=            -48.6324   YY=            -52.3203   ZZ=            -54.0950
   XY=             -5.1157   XZ=             -1.7303   YZ=              1.8436

  Exact polarizability:  96.404  -5.328  76.180  -3.534   5.787  61.598
 Approx polarizability: 126.014 -11.240 122.484  -6.024  12.245  98.273

                      1                      2                      3
                      A                      A                      A
 Frequencies --    122.8059               182.7311               224.9261
 Red. masses --      3.3694                 1.1104                 2.4430
 Frc consts  --      0.0299                 0.0218                 0.0728
 IR Inten    --      0.5627                 1.5046                 5.6300

                      4                      5                      6
                      A                      A                      A
 Frequencies --    251.6940               278.3173               306.4748
 Red. masses --      3.3588                 2.5965                 1.5029
 Frc consts  --      0.1254                 0.1185                 0.0832
 IR Inten    --      5.7046                 3.4008                54.2062

                      7                      8                      9
                      A                      A                      A
 Frequencies --    330.5304               391.6266               426.0360
 Red. masses --      2.8749                 3.1425                 1.4817
 Frc consts  --      0.1851                 0.2840                 0.1585
 IR Inten    --      0.3273                 1.7630                44.6433

                     10                     11                     12
                      A                      A                      A
 Frequencies --    433.1096               460.7195               481.1471
 Red. masses --      2.0321                 2.0018                 3.3409
 Frc consts  --      0.2246                 0.2503                 0.4557
 IR Inten    --     48.7764                22.2032                20.6899

                     13                     14                     15
                      A                      A                      A
 Frequencies --    658.5737               688.9540               743.3489
 Red. masses --      4.1725                 4.6046                 3.2762
 Frc consts  --      1.0662                 1.2877                 1.0666
 IR Inten    --      9.4533                 0.2251                 1.3781

                     16                     17                     18
                      A                      A                      A
 Frequencies --    814.2913               851.2509               891.5237
 Red. masses --      2.8901                 1.8635                 2.9210
 Frc consts  --      1.1291                 0.7956                 1.3679
 IR Inten    --     14.5803                14.4847                 5.2600

                     19                     20                     21
                      A                      A                      A
 Frequencies --    939.6226               964.9640               992.4360
 Red. masses --      1.4369                 1.6861                 2.1244
 Frc consts  --      0.7474                 0.9250                 1.2328
 IR Inten    --      5.5759                 8.0082                 4.8940

                     22                     23                     24
                      A                      A                      A
 Frequencies --   1010.2619              1044.3889              1065.5608
 Red. masses --      2.0771                 1.3202                 1.5072
 Frc consts  --      1.2490                 0.8484                 1.0083
 IR Inten    --      3.5430                13.3643                 6.8197

                     25                     26                     27
                      A                      A                      A
 Frequencies --   1071.4412              1123.1231              1163.2337
 Red. masses --      1.5900                 4.8953                 1.3760
 Frc consts  --      1.0754                 3.6382                 1.0970
 IR Inten    --     15.1477                91.2614                33.8477

                     28                     29                     30
                      A                      A                      A
 Frequencies --   1187.1107              1197.3135              1244.6638
 Red. masses --      1.8800                 1.6558                 2.1359
 Frc consts  --      1.5609                 1.3985                 1.9495
 IR Inten    --     25.4514                 8.9169                 4.2807

                     31                     32                     33
                      A                      A                      A
 Frequencies --   1267.9376              1279.9620              1325.6733
 Red. masses --      1.2139                 1.6225                 1.8101
 Frc consts  --      1.1498                 1.5662                 1.8742
 IR Inten    --     93.9840                 6.2948                46.2215

                     34                     35                     36
                      A                      A                      A
 Frequencies --   1352.4502              1413.1869              1416.9537
 Red. masses --      2.0781                 1.5215                 1.5780
 Frc consts  --      2.2395                 1.7903                 1.8667
 IR Inten    --     42.2942                 2.7221                 4.4982

                     37                     38                     39
                      A                      A                      A
 Frequencies --   1445.4639              1476.0193              1478.8316
 Red. masses --      2.4000                 1.1294                 1.0565
 Frc consts  --      2.9545                 1.4497                 1.3613
 IR Inten    --     66.8620                 2.7434                 7.6346

                     40                     41                     42
                      A                      A                      A
 Frequencies --   1489.8953              1699.2669              3012.4906
 Red. masses --      1.0712                 6.7196                 1.0486
 Frc consts  --      1.4009                11.4318                 5.6066
 IR Inten    --      4.4101                 2.8252                13.4862

                     43                     44                     45
                      A                      A                      A
 Frequencies --   3017.1490              3046.9944              3059.0769
 Red. masses --      1.0500                 1.1003                 1.0984
 Frc consts  --      5.6315                 6.0188                 6.0559
 IR Inten    --     56.4132                14.6438                22.7114

                     46                     47                     48
                      A                      A                      A
 Frequencies --   3090.0252              3108.0585              3159.2599
 Red. masses --      1.0886                 1.0988                 1.0890
 Frc consts  --      6.1244                 6.2539                 6.4042
 IR Inten    --     28.0433                19.8252                18.9385

                     49                     50                     51
                      A                      A                      A
 Frequencies --   3180.3468              3746.5580              3811.0846
 Red. masses --      1.0941                 1.0647                 1.0665
 Frc consts  --      6.5200                 8.8052                 9.1270
 IR Inten    --     20.5103                63.3434                34.0785

 - Thermochemistry -
 -------------------
 Temperature   298.150 Kelvin.  Pressure   1.00000 Atm.
 Atom     1 has atomic number  6 and mass  12.00000

 Molecular mass:   126.06808 amu.
 Principal axes and moments of inertia in atomic units:
                           1         2         3
     Eigenvalues --   517.125881545.386901792.70894
           X            0.99987  -0.01106  -0.01142
           Y            0.01148   0.99922   0.03786
           Z            0.01100  -0.03799   0.99922
 This molecule is an asymmetric top.
 Rotational symmetry number  1.
 Warning -- assumption of classical behavior for rotation
           may cause significant error
 Rotational temperatures (Kelvin)      0.16749     0.05605     0.04831
 Rotational constants (GHZ):           3.48995     1.16782     1.00671
 Zero-point vibrational energy     415217.0 (Joules/Mol)
                                   99.23925 (Kcal/Mol)
 Warning -- explicit consideration of  12 degrees of freedom as
           vibrations may cause significant error
 Vibrational temperatures:    176.69   262.91   323.62   362.13   400.44
          (Kelvin)            440.95   475.56   563.46   612.97   623.15
                              662.87   692.26   947.54   991.25  1069.51
                             1171.58  1224.76  1282.70  1351.91  1388.37
                             1427.89  1453.54  1502.64  1533.10  1541.56
                             1615.92  1673.63  1707.99  1722.66  1790.79
                             1824.28  1841.58  1907.35  1945.87  2033.26
                             2038.68  2079.70  2123.66  2127.71  2143.62
                             2444.86  4334.30  4341.00  4383.94  4401.32
                             4445.85  4471.80  4545.46  4575.80  5390.45
                             5483.29

 Zero-point correction=                           0.158148 (Hartree/Particle)
 Thermal correction to Energy=                    0.166846
 Thermal correction to Enthalpy=                  0.167791
 Thermal correction to Gibbs Free Energy=         0.125492
 Sum of electronic and zero-point Energies=           -423.021266
 Sum of electronic and thermal Energies=              -423.012567
 Sum of electronic and thermal Enthalpies=            -423.011623
 Sum of electronic and thermal Free Energies=         -423.053922

                     E (Thermal)             CV                S
                      KCal/Mol        Cal/Mol-Kelvin    Cal/Mol-Kelvin
 Total                  104.698             34.260             89.025
 Electronic               0.000              0.000              0.000
 Translational            0.889              2.981             40.409
 Rotational               0.889              2.981             28.751
 Vibrational            102.920             28.298             19.866
 Vibration     1          0.610              1.930              3.056
 Vibration     2          0.630              1.863              2.300
 Vibration     3          0.650              1.803              1.919
 Vibration     4          0.664              1.760              1.719
 Vibration     5          0.679              1.714              1.544
 Vibration     6          0.697              1.661              1.381
 Vibration     7          0.713              1.615              1.257
 Vibration     8          0.759              1.488              0.994
 Vibration     9          0.788              1.414              0.872
 Vibration    10          0.794              1.398              0.849
 Vibration    11          0.819              1.337              0.764
 Vibration    12          0.837              1.292              0.707

 Normal termination of Gaussian 09 at Mon Jan 27 23:36:18 2020.
