 Gaussian 09, Revision D.01,
 Gaussian 09:  ES64L-G09RevD.01 24-Apr-2013

 -----------------------------
 # b3lyp 6-31G(2df,p) opt Freq
 -----------------------------

 -----
 titel
 -----
 Symbolic Z-matrix:
 Charge =  0 Multiplicity = 1

 SCF Done:  E(RB3LYP) =  -423.111669410     A.U. after   13 cycles
 Optimization completed.
    -- Stationary point found.
 Normal termination of Gaussian 09 at Mon Jan 27 22:02:42 2020.

 ----------------------------------------------------------------------
 #N Geom=AllCheck Guess=TCheck SCRF=Check GenChk RB3LYP/6-31G(2df,p) Fr
 eq
 ----------------------------------------------------------------------

 Structure from the checkpoint file:  "/scratch/puck/g09_b510136b-388b-4c25-8feb-7195a783daea/Gau-98648.chk"
 -----
 titel
 -----
 Charge =  0 Multiplicity = 1

                         Standard orientation:
 ---------------------------------------------------------------------
 Center     Atomic      Atomic             Coordinates (Angstroms)
 Number     Number       Type             X           Y           Z
 ---------------------------------------------------------------------
      1          6           0        2.708532    0.046486   -0.509005
      2          6           0        1.556507   -0.141813    0.464983
      3          6           0        0.530631   -1.286030    0.241372
      4          6           0       -0.607677   -0.534708    1.007085
      5          6           0       -1.602392   -0.718819   -0.160325
      6          8           0       -2.627000    0.221122   -0.341336
      7          6           0       -0.249011   -0.500925   -0.872533
      8          6           0        0.201640    0.547223    0.195119
      9          8           0       -0.106180    1.898856    0.068675
     10          1           0        3.490994   -0.701857   -0.343038
     11          1           0        2.377085   -0.040267   -1.548512
     12          1           0        3.166289    1.034340   -0.387979
     13          1           0        1.899845   -0.059656    1.505329
     14          1           0        0.699530   -2.360237    0.258797
     15          1           0       -0.772172   -0.546785    2.086283
     16          1           0       -2.057051   -1.708545   -0.264494
     17          1           0       -2.222639    1.097126   -0.295419
     18          1           0       -0.022357   -0.478160   -1.938368
     19          1           0        0.076531    2.335738    0.908499
 ---------------------------------------------------------------------

 SCF Done:  E(RB3LYP) =  -423.111669410     A.U. after    1 cycles

 The electronic state is 1-A.
 Alpha  occ. eigenvalues --  -19.16169 -19.12373 -10.24950 -10.22789 -10.20289
 Alpha  occ. eigenvalues --  -10.19328 -10.19234 -10.19092 -10.17576  -1.04616
 Alpha  occ. eigenvalues --   -1.01033  -0.93081  -0.76281  -0.68152  -0.64367
 Alpha  occ. eigenvalues --   -0.62853  -0.59049  -0.54457  -0.50947  -0.49916
 Alpha  occ. eigenvalues --   -0.45247  -0.44430  -0.42510  -0.41107  -0.39364
 Alpha  occ. eigenvalues --   -0.36971  -0.36600  -0.36216  -0.32655  -0.30578
 Alpha  occ. eigenvalues --   -0.30226  -0.28682  -0.25887  -0.24693
 Alpha virt. eigenvalues --    0.06469   0.09799   0.11620   0.11944   0.12450
 Alpha virt. eigenvalues --    0.13376   0.14257   0.15328   0.16320   0.16710
 Alpha virt. eigenvalues --    0.18142   0.18863   0.19186   0.20488   0.22247

 Mulliken charges:
               1
     1  C   -0.419299
     2  C   -0.070683
     3  C   -0.068665
     4  C   -0.166836
     5  C    0.141638
     6  O   -0.456423
     7  C   -0.139439
     8  C    0.372457
     9  O   -0.482951
    10  H    0.116144
    11  H    0.119606
    12  H    0.117549
    13  H    0.059240
    14  H    0.081902
    15  H    0.067010
    16  H    0.077767
    17  H    0.286133
    18  H    0.077707
    19  H    0.287145
 Sum of Mulliken charges =   0.00000

 Dipole moment (field-independent basis, Debye):
    X=              2.2084    Y=              0.2271    Z=              1.4546  Tot=              2.6542
 Quadrupole moment (field-independent basis, Debye-Ang):
   XX=            -60.1672   YY=            -49.7371   ZZ=            -51.3664
   XY=             -0.0617   XZ=             -0.7022   YZ=              3.4127

  Exact polarizability:  85.288   1.097  72.755   0.102   1.076  67.596
 Approx polarizability: 113.131  -0.539 113.121   1.696   0.906 107.219

                      1                      2                      3
                      A                      A                      A
 Frequencies --    166.9943               177.7949               195.2894
 Red. masses --      4.2111                 3.7371                 1.2351
 Frc consts  --      0.0692                 0.0696                 0.0278
 IR Inten    --      0.6599                 1.1675                 0.0513

                      4                      5                      6
                      A                      A                      A
 Frequencies --    211.4790               306.3996               343.6095
 Red. masses --      2.1113                 1.5839                 1.9142
 Frc consts  --      0.0556                 0.0876                 0.1332
 IR Inten    --      0.6654                34.4484                40.7141

                      7                      8                      9
                      A                      A                      A
 Frequencies --    387.8171               433.1094               510.1711
 Red. masses --      3.6199                 2.5472                 1.2996
 Frc consts  --      0.3208                 0.2815                 0.1993
 IR Inten    --     13.4143                 5.4978                79.9594

                     10                     11                     12
                      A                      A                      A
 Frequencies --    520.0250               566.4471               671.7011
 Red. masses --      3.4604                 3.1233                 4.4039
 Frc consts  --      0.5514                 0.5905                 1.1707
 IR Inten    --      5.1745                 5.3597                 5.9963

                     13                     14                     15
                      A                      A                      A
 Frequencies --    736.9672               759.1447               830.4417
 Red. masses --      3.7405                 2.8822                 2.2193
 Frc consts  --      1.1970                 0.9786                 0.9017
 IR Inten    --      1.4007                 2.4847                 0.9072

                     16                     17                     18
                      A                      A                      A
 Frequencies --    875.5465               887.7856               910.3780
 Red. masses --      1.7864                 1.8678                 2.0465
 Frc consts  --      0.8068                 0.8673                 0.9993
 IR Inten    --      0.2723                 6.4046                 9.0904

                     19                     20                     21
                      A                      A                      A
 Frequencies --    916.1840               962.5086              1031.6716
 Red. masses --      1.8751                 2.7767                 1.8082
 Frc consts  --      0.9274                 1.5156                 1.1339
 IR Inten    --      8.1279                19.7709                 8.4718

                     22                     23                     24
                      A                      A                      A
 Frequencies --   1044.4474              1070.5494              1076.9547
 Red. masses --      1.3218                 1.6358                 2.9511
 Frc consts  --      0.8495                 1.1046                 2.0166
 IR Inten    --     12.3942                20.7302                 9.7601

                     25                     26                     27
                      A                      A                      A
 Frequencies --   1091.4903              1111.2332              1117.6986
 Red. masses --      2.8492                 2.0555                 1.5991
 Frc consts  --      1.9999                 1.4954                 1.1770
 IR Inten    --     70.6234                19.9906                 1.9026

                     28                     29                     30
                      A                      A                      A
 Frequencies --   1146.0050              1172.3015              1205.0696
 Red. masses --      1.7451                 1.9584                 1.6177
 Frc consts  --      1.3503                 1.5857                 1.3841
 IR Inten    --      9.2853                23.0514                57.9082

                     31                     32                     33
                      A                      A                      A
 Frequencies --   1221.7185              1234.7461              1267.3448
 Red. masses --      1.6601                 2.0738                 1.9032
 Frc consts  --      1.4600                 1.8628                 1.8010
 IR Inten    --     41.7156                71.9733                38.8209

                     34                     35                     36
                      A                      A                      A
 Frequencies --   1300.5384              1325.3783              1355.1802
 Red. masses --      1.8414                 1.5827                 1.9891
 Frc consts  --      1.8350                 1.6381                 2.1523
 IR Inten    --     59.4324                15.4520                 1.9742

                     37                     38                     39
                      A                      A                      A
 Frequencies --   1408.5078              1419.7710              1462.9101
 Red. masses --      1.3286                 1.6628                 1.2830
 Frc consts  --      1.5529                 1.9749                 1.6178
 IR Inten    --      8.7207                17.2806               119.1919

                     40                     41                     42
                      A                      A                      A
 Frequencies --   1493.4379              1499.1640              3012.8948
 Red. masses --      1.0480                 1.0613                 1.0831
 Frc consts  --      1.3772                 1.4053                 5.7925
 IR Inten    --      5.1296                 5.2673                43.8050

                     43                     44                     45
                      A                      A                      A
 Frequencies --   3031.7257              3068.8807              3093.4249
 Red. masses --      1.0361                 1.0854                 1.1008
 Frc consts  --      5.6109                 6.0229                 6.2066
 IR Inten    --     27.1978                54.4452                21.2812

                     46                     47                     48
                      A                      A                      A
 Frequencies --   3097.7748              3104.2330              3117.4271
 Red. masses --      1.0909                 1.0999                 1.0913
 Frc consts  --      6.1678                 6.2448                 6.2488
 IR Inten    --     50.0987                22.7988                38.1896

                     49                     50                     51
                      A                      A                      A
 Frequencies --   3145.9367              3769.7092              3796.5449
 Red. masses --      1.0934                 1.0655                 1.0657
 Frc consts  --      6.3759                 8.9214                 9.0503
 IR Inten    --     28.2596                37.6746                28.3720

 - Thermochemistry -
 -------------------
 Temperature   298.150 Kelvin.  Pressure   1.00000 Atm.
 Atom     1 has atomic number  6 and mass  12.00000

 Molecular mass:   126.06808 amu.
 Principal axes and moments of inertia in atomic units:
                           1         2         3
     Eigenvalues --   559.725221263.580291505.11535
           X            0.99992   0.00320  -0.01255
           Y           -0.00297   0.99983   0.01805
           Z            0.01261  -0.01801   0.99976
 This molecule is an asymmetric top.
 Rotational symmetry number  1.
 Warning -- assumption of classical behavior for rotation
           may cause significant error
 Rotational temperatures (Kelvin)      0.15474     0.06855     0.05755
 Rotational constants (GHZ):           3.22433     1.42828     1.19907
 Zero-point vibrational energy     416686.0 (Joules/Mol)
                                   99.59035 (Kcal/Mol)
 Warning -- explicit consideration of  11 degrees of freedom as
           vibrations may cause significant error
 Vibrational temperatures:    240.27   255.81   280.98   304.27   440.84
          (Kelvin)            494.38   557.98   623.15   734.02   748.20
                              814.99   966.43  1060.33  1092.24  1194.82
                             1259.71  1277.32  1309.83  1318.18  1384.83
                             1484.34  1502.73  1540.28  1549.50  1570.41
                             1598.81  1608.12  1648.84  1686.68  1733.82
                             1757.78  1776.52  1823.42  1871.18  1906.92
                             1949.80  2026.53  2042.73  2104.80  2148.72
                             2156.96  4334.88  4361.97  4415.43  4450.74
                             4457.00  4466.29  4485.28  4526.30  5423.76
                             5462.37

 Zero-point correction=                           0.158707 (Hartree/Particle)
 Thermal correction to Energy=                    0.166844
 Thermal correction to Enthalpy=                  0.167788
 Thermal correction to Gibbs Free Energy=         0.126614
 Sum of electronic and zero-point Energies=           -422.952962
 Sum of electronic and thermal Energies=              -422.944826
 Sum of electronic and thermal Enthalpies=            -422.943882
 Sum of electronic and thermal Free Energies=         -422.985056

                     E (Thermal)             CV                S
                      KCal/Mol        Cal/Mol-Kelvin    Cal/Mol-Kelvin
 Total                  104.696             32.626             86.659
 Electronic               0.000              0.000              0.000
 Translational            0.889              2.981             40.409
 Rotational               0.889              2.981             28.456
 Vibrational            102.919             26.665             17.794
 Vibration     1          0.624              1.883              2.469
 Vibration     2          0.628              1.870              2.351
 Vibration     3          0.636              1.846              2.177
 Vibration     4          0.643              1.823              2.031
 Vibration     5          0.697              1.662              1.382
 Vibration     6          0.722              1.588              1.195
 Vibration     7          0.756              1.496              1.009
 Vibration     8          0.794              1.398              0.849
 Vibration     9          0.865              1.227              0.633
 Vibration    10          0.875              1.206              0.610
 Vibration    11          0.922              1.104              0.511

 Normal termination of Gaussian 09 at Mon Jan 27 22:53:27 2020.
