 Gaussian 09, Revision D.01,
 Gaussian 09:  ES64L-G09RevD.01 24-Apr-2013

 -----------------------------
 # b3lyp 6-31G(2df,p) opt Freq
 -----------------------------

 -----
 titel
 -----
 Symbolic Z-matrix:
 Charge =  0 Multiplicity = 1

 SCF Done:  E(RB3LYP) =  -423.163875091     A.U. after   15 cycles
 Optimization completed.
    -- Stationary point found.
 Normal termination of Gaussian 09 at Mon Jan 27 15:28:37 2020.

 ----------------------------------------------------------------------
 #N Geom=AllCheck Guess=TCheck SCRF=Check GenChk RB3LYP/6-31G(2df,p) Fr
 eq
 ----------------------------------------------------------------------

 Structure from the checkpoint file:  "/scratch/puck/g09_d60fbdf0-3c21-47f8-80e5-bea27e601d2a/Gau-44355.chk"
 -----
 titel
 -----
 Charge =  0 Multiplicity = 1

                         Standard orientation:
 ---------------------------------------------------------------------
 Center     Atomic      Atomic             Coordinates (Angstroms)
 Number     Number       Type             X           Y           Z
 ---------------------------------------------------------------------
      1          6           0       -1.806996   -1.541849   -0.226894
      2          6           0       -1.345283   -0.154789    0.220383
      3          8           0       -2.233377    0.854089   -0.245906
      4          6           0        0.036165    0.220706   -0.355757
      5          6           0        0.437202    1.579921    0.000336
      6          6           0        0.827752    2.669639    0.324304
      7          6           0        1.164274   -0.729468    0.124588
      8          6           0        2.437539   -0.701516   -0.693293
      9          8           0        1.024366   -1.435870    1.092833
     10          1           0       -2.814232   -1.739354    0.156690
     11          1           0       -1.848287   -1.598322   -1.319961
     12          1           0       -1.146795   -2.323040    0.154644
     13          1           0       -1.265789   -0.130927    1.315552
     14          1           0       -3.099748    0.681315    0.135286
     15          1           0       -0.024608    0.154014   -1.451600
     16          1           0        1.141792    3.646036    0.599520
     17          1           0        2.247306   -1.157419   -1.672678
     18          1           0        2.757850    0.328473   -0.872606
     19          1           0        3.220676   -1.262391   -0.182259
 ---------------------------------------------------------------------

 SCF Done:  E(RB3LYP) =  -423.163875091     A.U. after    1 cycles

 The electronic state is 1-A.
 Alpha  occ. eigenvalues --  -19.13942 -19.13615 -10.28200 -10.23996 -10.21944
 Alpha  occ. eigenvalues --  -10.19248 -10.18660 -10.17681 -10.17541  -1.05152
 Alpha  occ. eigenvalues --   -1.02040  -0.81721  -0.75156  -0.74051  -0.69801
 Alpha  occ. eigenvalues --   -0.61128  -0.55335  -0.53018  -0.50804  -0.48552
 Alpha  occ. eigenvalues --   -0.45889  -0.45521  -0.44018  -0.42526  -0.40502
 Alpha  occ. eigenvalues --   -0.39227  -0.38078  -0.37177  -0.35924  -0.33155
 Alpha  occ. eigenvalues --   -0.28444  -0.27232  -0.26730  -0.24350
 Alpha virt. eigenvalues --   -0.02293   0.04679   0.06149   0.07851   0.09858
 Alpha virt. eigenvalues --    0.12489   0.13073   0.14154   0.15625   0.16121
 Alpha virt. eigenvalues --    0.16284   0.17516   0.18400   0.20667   0.22916

 Mulliken charges:
               1
     1  C   -0.422097
     2  C    0.133364
     3  O   -0.435261
     4  C   -0.267190
     5  C    0.332756
     6  C   -0.451077
     7  C    0.380548
     8  C   -0.477164
     9  O   -0.294843
    10  H    0.105825
    11  H    0.116601
    12  H    0.143172
    13  H    0.093792
    14  H    0.283252
    15  H    0.116476
    16  H    0.198651
    17  H    0.143181
    18  H    0.155858
    19  H    0.144158
 Sum of Mulliken charges =   0.00000

 Dipole moment (field-independent basis, Debye):
    X=             -0.2291    Y=             -0.0290    Z=             -1.1823  Tot=              1.2046
 Quadrupole moment (field-independent basis, Debye-Ang):
   XX=            -45.9803   YY=            -53.6662   ZZ=            -54.7931
   XY=              3.7478   XZ=             -4.6275   YZ=              4.9407

  Exact polarizability:  80.886   6.122  91.281  -1.694   2.533  62.322
 Approx polarizability: 103.322  11.841 138.634   0.167   0.836 102.764

                      1                      2                      3
                      A                      A                      A
 Frequencies --     53.0763                73.3760               124.3770
 Red. masses --      4.0478                 3.4621                 1.1404
 Frc consts  --      0.0067                 0.0110                 0.0104
 IR Inten    --      1.9297                 3.0269                 0.0074

                      4                      5                      6
                      A                      A                      A
 Frequencies --    137.6440               163.2093               189.2223
 Red. masses --      3.3827                 3.4739                 3.7786
 Frc consts  --      0.0378                 0.0545                 0.0797
 IR Inten    --      0.3382                 0.9827                11.7959

                      7                      8                      9
                      A                      A                      A
 Frequencies --    235.1261               254.0560               319.9393
 Red. masses --      1.0262                 1.2272                 3.1112
 Frc consts  --      0.0334                 0.0467                 0.1876
 IR Inten    --     35.8576                60.1549                 1.0440

                     10                     11                     12
                      A                      A                      A
 Frequencies --    343.8572               400.3049               405.8701
 Red. masses --      6.3750                 2.9720                 5.3376
 Frc consts  --      0.4441                 0.2806                 0.5180
 IR Inten    --      1.8529                 1.7678                 2.1233

                     13                     14                     15
                      A                      A                      A
 Frequencies --    464.1575               527.6430               576.4614
 Red. masses --      2.9915                 4.2846                 3.3085
 Frc consts  --      0.3797                 0.7028                 0.6478
 IR Inten    --      4.7726                17.8502                 6.7912

                     16                     17                     18
                      A                      A                      A
 Frequencies --    609.6491               623.0890               646.3178
 Red. masses --      3.1705                 1.2426                 1.2302
 Frc consts  --      0.6943                 0.2842                 0.3028
 IR Inten    --     11.8890                43.0679                44.1465

                     19                     20                     21
                      A                      A                      A
 Frequencies --    826.7024               882.4345               930.7800
 Red. masses --      2.4466                 2.6956                 2.3359
 Frc consts  --      0.9852                 1.2367                 1.1923
 IR Inten    --      6.2356                15.1470                 2.3464

                     22                     23                     24
                      A                      A                      A
 Frequencies --    957.0385              1000.4732              1051.7752
 Red. masses --      1.6861                 2.6249                 2.0391
 Frc consts  --      0.9099                 1.5480                 1.3290
 IR Inten    --     11.6338                20.4786                 2.8685

                     25                     26                     27
                      A                      A                      A
 Frequencies --   1091.9484              1112.5827              1132.2887
 Red. masses --      1.9124                 2.1159                 2.4551
 Frc consts  --      1.3435                 1.5432                 1.8545
 IR Inten    --     12.9241                 4.2842                85.4090

                     28                     29                     30
                      A                      A                      A
 Frequencies --   1175.1959              1246.0138              1273.3739
 Red. masses --      2.0639                 1.4352                 1.5478
 Frc consts  --      1.6794                 1.3129                 1.4787
 IR Inten    --     26.6412                 5.7749                37.7796

                     31                     32                     33
                      A                      A                      A
 Frequencies --   1313.0512              1367.9238              1380.6229
 Red. masses --      1.3361                 1.2465                 1.3149
 Frc consts  --      1.3572                 1.3743                 1.4766
 IR Inten    --     59.6846                 3.9682                39.2188

                     34                     35                     36
                      A                      A                      A
 Frequencies --   1403.1162              1417.8055              1462.5233
 Red. masses --      1.2656                 1.4709                 1.0508
 Frc consts  --      1.4680                 1.7420                 1.3243
 IR Inten    --     12.2676                12.9133                 9.7054

                     37                     38                     39
                      A                      A                      A
 Frequencies --   1475.1326              1492.4374              1504.9962
 Red. masses --      1.0517                 1.0636                 1.0657
 Frc consts  --      1.3483                 1.3957                 1.4222
 IR Inten    --      8.6724                 6.2728                 3.6064

                     40                     41                     42
                      A                      A                      A
 Frequencies --   1817.8659              2231.6810              3005.4106
 Red. masses --     10.8976                 5.9398                 1.0797
 Frc consts  --     21.2179                17.4295                 5.7457
 IR Inten    --    154.0462                 1.0586                 2.4949

                     43                     44                     45
                      A                      A                      A
 Frequencies --   3021.9937              3034.3237              3038.9331
 Red. masses --      1.0836                 1.0382                 1.0401
 Frc consts  --      5.8304                 5.6321                 5.6591
 IR Inten    --     25.0587                23.9222                 3.6343

                     46                     47                     48
                      A                      A                      A
 Frequencies --   3097.1883              3108.9845              3138.8916
 Red. masses --      1.1009                 1.0933                 1.0992
 Frc consts  --      6.2218                 6.2260                 6.3810
 IR Inten    --     30.0513                 4.9589                10.8853

                     49                     50                     51
                      A                      A                      A
 Frequencies --   3157.6533              3503.8228              3823.5584
 Red. masses --      1.1037                 1.1615                 1.0662
 Frc consts  --      6.4835                 8.4017                 9.1835
 IR Inten    --      7.9977                69.6030                18.3747

 - Thermochemistry -
 -------------------
 Temperature   298.150 Kelvin.  Pressure   1.00000 Atm.
 Atom     1 has atomic number  6 and mass  12.00000

 Molecular mass:   126.06808 amu.
 Principal axes and moments of inertia in atomic units:
                           1         2         3
     Eigenvalues --   959.020641229.357541907.55480
           X            0.99532   0.09394  -0.02276
           Y           -0.09333   0.99527   0.02684
           Z            0.02518  -0.02459   0.99938
 This molecule is an asymmetric top.
 Rotational symmetry number  1.
 Warning -- assumption of classical behavior for rotation
           may cause significant error
 Rotational temperatures (Kelvin)      0.09031     0.07045     0.04541
 Rotational constants (GHZ):           1.88186     1.46804     0.94610
 Zero-point vibrational energy     404492.7 (Joules/Mol)
                                   96.67608 (Kcal/Mol)
 Warning -- explicit consideration of  16 degrees of freedom as
           vibrations may cause significant error
 Vibrational temperatures:     76.36   105.57   178.95   198.04   234.82
          (Kelvin)            272.25   338.29   365.53   460.32   494.73
                              575.95   583.96   667.82   759.16   829.40
                              877.15   896.49   929.91  1189.44  1269.62
                             1339.18  1376.96  1439.46  1513.27  1571.07
                             1600.76  1629.11  1690.84  1792.73  1832.10
                             1889.19  1968.13  1986.41  2018.77  2039.90
                             2104.24  2122.38  2147.28  2165.35  2615.50
                             3210.89  4324.11  4347.97  4365.71  4372.34
                             4456.16  4473.13  4516.16  4543.15  5041.21
                             5501.24

 Zero-point correction=                           0.154063 (Hartree/Particle)
 Thermal correction to Energy=                    0.164965
 Thermal correction to Enthalpy=                  0.165909
 Thermal correction to Gibbs Free Energy=         0.117837
 Sum of electronic and zero-point Energies=           -423.009812
 Sum of electronic and thermal Energies=              -422.998910
 Sum of electronic and thermal Enthalpies=            -422.997966
 Sum of electronic and thermal Free Energies=         -423.046038

                     E (Thermal)             CV                S
                      KCal/Mol        Cal/Mol-Kelvin    Cal/Mol-Kelvin
 Total                  103.517             38.728            101.176
 Electronic               0.000              0.000              0.000
 Translational            0.889              2.981             40.409
 Rotational               0.889              2.981             29.199
 Vibrational            101.739             32.766             31.568
 Vibration     1          0.596              1.976              4.699
 Vibration     2          0.599              1.967              4.061
 Vibration     3          0.610              1.929              3.031
 Vibration     4          0.614              1.916              2.836
 Vibration     5          0.623              1.888              2.512
 Vibration     6          0.633              1.855              2.235
 Vibration     7          0.655              1.787              1.839
 Vibration     8          0.665              1.756              1.702
 Vibration     9          0.706              1.635              1.310
 Vibration    10          0.723              1.588              1.194
 Vibration    11          0.766              1.469              0.962
 Vibration    12          0.771              1.457              0.941
 Vibration    13          0.822              1.330              0.754
 Vibration    14          0.883              1.189              0.592
 Vibration    15          0.933              1.082              0.492
 Vibration    16          0.969              1.011              0.433

 Normal termination of Gaussian 09 at Mon Jan 27 16:07:32 2020.
