 Gaussian 09, Revision D.01,
 Gaussian 09:  ES64L-G09RevD.01 24-Apr-2013

 -----------------------------
 # b3lyp 6-31G(2df,p) opt Freq
 -----------------------------

 -----
 titel
 -----
 Symbolic Z-matrix:
 Charge =  0 Multiplicity = 1

 SCF Done:  E(RB3LYP) =  -423.102731203     A.U. after   14 cycles
 Optimization completed.
    -- Stationary point found.
 Normal termination of Gaussian 09 at Mon Jan 27 23:07:39 2020.

 ----------------------------------------------------------------------
 #N Geom=AllCheck Guess=TCheck SCRF=Check GenChk RB3LYP/6-31G(2df,p) Fr
 eq
 ----------------------------------------------------------------------

 Structure from the checkpoint file:  "/scratch/puck/g09_d81ab3e1-b2ab-4410-80b5-5414119668f4/Gau-196139.chk"
 -----
 titel
 -----
 Charge =  0 Multiplicity = 1

                         Standard orientation:
 ---------------------------------------------------------------------
 Center     Atomic      Atomic             Coordinates (Angstroms)
 Number     Number       Type             X           Y           Z
 ---------------------------------------------------------------------
      1          6           0       -2.742810    0.561548    0.008875
      2          6           0       -1.506593   -0.086582   -0.581359
      3          6           0       -0.750423   -1.179378    0.274007
      4          8           0       -0.310689   -0.125454    1.190653
      5          6           0       -0.091020    0.427946   -0.186382
      6          6           0        1.026409    1.427812   -0.227484
      7          6           0        2.186725    0.470962    0.214333
      8          8           0        1.826026   -0.890288   -0.126154
      9          6           0        0.513618   -0.908677   -0.604391
     10          1           0       -2.592132    0.771874    1.069286
     11          1           0       -2.973582    1.500121   -0.506008
     12          1           0       -3.612288   -0.095280   -0.100075
     13          1           0       -1.622204   -0.321345   -1.645212
     14          1           0       -1.148928   -2.098244    0.706565
     15          1           0        1.174250    1.804476   -1.244165
     16          1           0        0.914465    2.271443    0.456422
     17          1           0        3.131483    0.710282   -0.284655
     18          1           0        2.329476    0.530696    1.297054
     19          1           0        0.461333   -1.229877   -1.650805
 ---------------------------------------------------------------------

 SCF Done:  E(RB3LYP) =  -423.102731203     A.U. after    1 cycles

 The electronic state is 1-A.
 Alpha  occ. eigenvalues --  -19.13835 -19.12927 -10.24602 -10.24522 -10.23108
 Alpha  occ. eigenvalues --  -10.22899 -10.20908 -10.19862 -10.17634  -1.07151
 Alpha  occ. eigenvalues --   -1.01425  -0.79859  -0.77617  -0.73317  -0.66237
 Alpha  occ. eigenvalues --   -0.61673  -0.58305  -0.53568  -0.49941  -0.48726
 Alpha  occ. eigenvalues --   -0.46951  -0.45860  -0.42858  -0.41195  -0.39754
 Alpha  occ. eigenvalues --   -0.38240  -0.37409  -0.36348  -0.34184  -0.31978
 Alpha  occ. eigenvalues --   -0.30906  -0.28988  -0.25280  -0.23516
 Alpha virt. eigenvalues --    0.07717   0.09503   0.10752   0.11165   0.12538
 Alpha virt. eigenvalues --    0.12955   0.14118   0.14445   0.15851   0.16361
 Alpha virt. eigenvalues --    0.17060   0.17568   0.18791   0.19450   0.20641

 Mulliken charges:
               1
     1  C   -0.423393
     2  C   -0.083903
     3  C   -0.021495
     4  O   -0.343548
     5  C    0.388209
     6  C   -0.386997
     7  C   -0.058601
     8  O   -0.282486
     9  C    0.129755
    10  H    0.139665
    11  H    0.117330
    12  H    0.116746
    13  H    0.076012
    14  H    0.094739
    15  H    0.116523
    16  H    0.123882
    17  H    0.103768
    18  H    0.122909
    19  H    0.070885
 Sum of Mulliken charges =   0.00000

 Dipole moment (field-independent basis, Debye):
    X=             -0.8755    Y=              1.1273    Z=             -1.6855  Tot=              2.2087
 Quadrupole moment (field-independent basis, Debye-Ang):
   XX=            -52.7071   YY=            -51.5329   ZZ=            -54.2232
   XY=              4.8347   XZ=              0.7649   YZ=             -0.0095

  Exact polarizability:  89.832   4.945  71.581   0.566   0.272  65.510
 Approx polarizability: 115.777   6.131 109.009   0.840   1.073 107.556

                      1                      2                      3
                      A                      A                      A
 Frequencies --    161.3032               204.4535               229.2613
 Red. masses --      2.1246                 2.6983                 3.2589
 Frc consts  --      0.0326                 0.0665                 0.1009
 IR Inten    --      3.0967                 0.5449                 1.6046

                      4                      5                      6
                      A                      A                      A
 Frequencies --    234.8982               322.9200               373.8561
 Red. masses --      1.1455                 2.2730                 5.8041
 Frc consts  --      0.0372                 0.1396                 0.4780
 IR Inten    --      0.1225                 3.6265                 4.0771

                      7                      8                      9
                      A                      A                      A
 Frequencies --    478.6370               499.8150               627.1760
 Red. masses --      2.8294                 4.4133                 4.5128
 Frc consts  --      0.3819                 0.6496                 1.0459
 IR Inten    --      3.9978                 3.2951                 0.4224

                     10                     11                     12
                      A                      A                      A
 Frequencies --    697.5097               723.0881               759.7366
 Red. masses --      2.9078                 3.4069                 2.8681
 Frc consts  --      0.8335                 1.0495                 0.9754
 IR Inten    --     11.3685                 4.9476                 2.0077

                     13                     14                     15
                      A                      A                      A
 Frequencies --    785.7144               840.4030               880.2486
 Red. masses --      4.2908                 1.6985                 2.9699
 Frc consts  --      1.5607                 0.7068                 1.3558
 IR Inten    --     16.9714                 6.2054                25.0279

                     16                     17                     18
                      A                      A                      A
 Frequencies --    898.7446               905.6531               945.9945
 Red. masses --      2.9602                 3.7164                 2.4061
 Frc consts  --      1.4088                 1.7960                 1.2686
 IR Inten    --      2.5238                 9.3097                19.0701

                     19                     20                     21
                      A                      A                      A
 Frequencies --    968.6237              1016.9857              1030.6859
 Red. masses --      3.2854                 2.9636                 1.3350
 Frc consts  --      1.8161                 1.8059                 0.8356
 IR Inten    --     18.3154                 9.7642                23.7673

                     22                     23                     24
                      A                      A                      A
 Frequencies --   1068.6689              1079.4956              1110.0950
 Red. masses --      2.0150                 2.0064                 2.1038
 Frc consts  --      1.3558                 1.3775                 1.5275
 IR Inten    --     34.4890                16.4147                 2.4018

                     25                     26                     27
                      A                      A                      A
 Frequencies --   1145.9649              1158.5170              1186.1095
 Red. masses --      1.8027                 2.7909                 1.7253
 Frc consts  --      1.3948                 2.2070                 1.4301
 IR Inten    --     27.9173                32.9440                 5.4371

                     28                     29                     30
                      A                      A                      A
 Frequencies --   1187.3763              1206.2774              1224.6642
 Red. masses --      1.5041                 1.3833                 1.3445
 Frc consts  --      1.2494                 1.1859                 1.1881
 IR Inten    --      7.5870                 1.0473                 5.6256

                     31                     32                     33
                      A                      A                      A
 Frequencies --   1240.3540              1273.1777              1319.3963
 Red. masses --      1.5540                 1.4485                 1.9611
 Frc consts  --      1.4086                 1.3834                 2.0115
 IR Inten    --      9.8930                 1.9325                16.8292

                     34                     35                     36
                      A                      A                      A
 Frequencies --   1361.2172              1394.0981              1399.4209
 Red. masses --      1.3474                 1.4200                 1.2889
 Frc consts  --      1.4710                 1.6260                 1.4872
 IR Inten    --      9.0792                 2.3522                10.8241

                     37                     38                     39
                      A                      A                      A
 Frequencies --   1423.5753              1475.7426              1494.5109
 Red. masses --      1.6996                 1.1156                 1.0583
 Frc consts  --      2.0294                 1.4315                 1.3926
 IR Inten    --      4.3844                 3.6555                 4.5571

                     40                     41                     42
                      A                      A                      A
 Frequencies --   1505.5970              1512.1732              3035.3197
 Red. masses --      1.0481                 1.0987                 1.0734
 Frc consts  --      1.3998                 1.4802                 5.8266
 IR Inten    --      3.4899                 0.3317                23.3807

                     43                     44                     45
                      A                      A                      A
 Frequencies --   3039.4810              3045.6274              3056.3612
 Red. masses --      1.0480                 1.0591                 1.0819
 Frc consts  --      5.7044                 5.7883                 5.9543
 IR Inten    --     28.1371                63.4964                61.7504

                     46                     47                     48
                      A                      A                      A
 Frequencies --   3064.0709              3090.7527              3096.2622
 Red. masses --      1.0635                 1.1071                 1.1008
 Frc consts  --      5.8826                 6.2313                 6.2177
 IR Inten    --     20.5171                26.0127                20.4732

                     49                     50                     51
                      A                      A                      A
 Frequencies --   3108.6701              3125.9685              3138.9066
 Red. masses --      1.0930                 1.1048                 1.0991
 Frc consts  --      6.2233                 6.3609                 6.3806
 IR Inten    --     52.1759                17.2943                12.1181

 - Thermochemistry -
 -------------------
 Temperature   298.150 Kelvin.  Pressure   1.00000 Atm.
 Atom     1 has atomic number  6 and mass  12.00000

 Molecular mass:   126.06808 amu.
 Principal axes and moments of inertia in atomic units:
                           1         2         3
     Eigenvalues --   483.994221241.914361406.17611
           X            0.99983   0.01761   0.00524
           Y           -0.01765   0.99981   0.00845
           Z           -0.00509  -0.00854   0.99995
 This molecule is an asymmetric top.
 Rotational symmetry number  1.
 Warning -- assumption of classical behavior for rotation
           may cause significant error
 Rotational temperatures (Kelvin)      0.17896     0.06974     0.06160
 Rotational constants (GHZ):           3.72885     1.45319     1.28344
 Zero-point vibrational energy     419611.5 (Joules/Mol)
                                  100.28955 (Kcal/Mol)
 Warning -- explicit consideration of   8 degrees of freedom as
           vibrations may cause significant error
 Vibrational temperatures:    232.08   294.16   329.86   337.97   464.61
          (Kelvin)            537.89   688.65   719.12   902.37  1003.56
                             1040.36  1093.09  1130.47  1209.15  1266.48
                             1293.09  1303.03  1361.07  1393.63  1463.21
                             1482.93  1537.57  1553.15  1597.18  1648.79
                             1666.85  1706.54  1708.37  1735.56  1762.02
                             1784.59  1831.82  1898.31  1958.49  2005.79
                             2013.45  2048.20  2123.26  2150.27  2166.22
                             2175.68  4367.14  4373.13  4381.97  4397.42
                             4408.51  4446.90  4454.83  4472.68  4497.57
                             4516.18

 Zero-point correction=                           0.159822 (Hartree/Particle)
 Thermal correction to Energy=                    0.167246
 Thermal correction to Enthalpy=                  0.168190
 Thermal correction to Gibbs Free Energy=         0.128351
 Sum of electronic and zero-point Energies=           -422.942910
 Sum of electronic and thermal Energies=              -422.935485
 Sum of electronic and thermal Enthalpies=            -422.934541
 Sum of electronic and thermal Free Energies=         -422.974380

                     E (Thermal)             CV                S
                      KCal/Mol        Cal/Mol-Kelvin    Cal/Mol-Kelvin
 Total                  104.949             30.014             83.849
 Electronic               0.000              0.000              0.000
 Translational            0.889              2.981             40.409
 Rotational               0.889              2.981             28.227
 Vibrational            103.171             24.052             15.214
 Vibration     1          0.622              1.890              2.534
 Vibration     2          0.640              1.834              2.093
 Vibration     3          0.652              1.796              1.885
 Vibration     4          0.655              1.787              1.841
 Vibration     5          0.708              1.630              1.295
 Vibration     6          0.745              1.526              1.064
 Vibration     7          0.835              1.297              0.714
 Vibration     8          0.855              1.250              0.659

 Optimization completed.
    -- Stationary point found.
 Normal termination of Gaussian 09 at Mon Jan 27 23:56:23 2020.
