 Gaussian 09, Revision D.01,
 Gaussian 09:  ES64L-G09RevD.01 24-Apr-2013

 -----------------------------
 # b3lyp 6-31G(2df,p) opt Freq
 -----------------------------

 -----
 titel
 -----
 Symbolic Z-matrix:
 Charge =  0 Multiplicity = 1

 SCF Done:  E(RB3LYP) =  -423.162985469     A.U. after   14 cycles
 Optimization completed.
    -- Stationary point found.
 Normal termination of Gaussian 09 at Mon Jan 27 22:03:49 2020.

 ----------------------------------------------------------------------
 #N Geom=AllCheck Guess=TCheck SCRF=Check GenChk RB3LYP/6-31G(2df,p) Fr
 eq
 ----------------------------------------------------------------------

 Structure from the checkpoint file:  "/scratch/puck/g09_97aee949-165f-4c1d-a32c-255f4791901a/Gau-189682.chk"
 -----
 titel
 -----
 Charge =  0 Multiplicity = 1

                         Standard orientation:
 ---------------------------------------------------------------------
 Center     Atomic      Atomic             Coordinates (Angstroms)
 Number     Number       Type             X           Y           Z
 ---------------------------------------------------------------------
      1          6           0        0.161615    2.586807   -0.058082
      2          6           0       -0.147036    1.188206   -0.541182
      3          6           0       -0.898241    0.201307    0.381383
      4          6           0       -1.946139   -0.657830   -0.208430
      5          8           0       -2.935897   -1.026165    0.378187
      6          6           0        0.554185   -0.002696   -0.025937
      7          6           0        1.760399   -0.162137    0.893041
      8          6           0        2.083320   -1.367689   -0.017973
      9          8           0        0.949372   -1.077359   -0.872892
     10          1           0       -0.720069    3.231641   -0.128976
     11          1           0        0.487948    2.583782    0.986620
     12          1           0        0.959568    3.039292   -0.656708
     13          1           0       -0.436230    1.106656   -1.587734
     14          1           0       -1.085870    0.513861    1.404686
     15          1           0       -1.757473   -0.954273   -1.263953
     16          1           0        2.481503    0.656637    0.848047
     17          1           0        1.538916   -0.396873    1.934965
     18          1           0        3.025905   -1.317596   -0.571995
     19          1           0        1.989391   -2.350744    0.455773
 ---------------------------------------------------------------------

 SCF Done:  E(RB3LYP) =  -423.162985469     A.U. after    1 cycles

 The electronic state is 1-A.
 Alpha  occ. eigenvalues --  -19.14903 -19.12321 -10.26069 -10.25924 -10.24491
 Alpha  occ. eigenvalues --  -10.20988 -10.20578 -10.19743 -10.19483  -1.05786
 Alpha  occ. eigenvalues --   -1.03058  -0.87381  -0.75746  -0.73161  -0.66894
 Alpha  occ. eigenvalues --   -0.62831  -0.57666  -0.53307  -0.50826  -0.49757
 Alpha  occ. eigenvalues --   -0.48363  -0.44167  -0.42963  -0.41794  -0.41404
 Alpha  occ. eigenvalues --   -0.39324  -0.38954  -0.37902  -0.37355  -0.34580
 Alpha  occ. eigenvalues --   -0.32444  -0.28731  -0.25221  -0.23222
 Alpha virt. eigenvalues --   -0.01252   0.06699   0.08689   0.09604   0.10306
 Alpha virt. eigenvalues --    0.11549   0.13689   0.14805   0.15455   0.16027
 Alpha virt. eigenvalues --    0.16313   0.17155   0.17859   0.20124   0.22024

 Mulliken charges:
               1
     1  C   -0.415170
     2  C   -0.116993
     3  C   -0.212579
     4  C    0.168434
     5  O   -0.277906
     6  C    0.442168
     7  C   -0.359361
     8  C   -0.074947
     9  O   -0.301949
    10  H    0.132248
    11  H    0.121924
    12  H    0.127244
    13  H    0.107552
    14  H    0.101482
    15  H    0.080618
    16  H    0.121536
    17  H    0.124991
    18  H    0.114375
    19  H    0.116334
 Sum of Mulliken charges =   0.00000

 Dipole moment (field-independent basis, Debye):
    X=              3.7348    Y=              2.0034    Z=              0.4240  Tot=              4.2594
 Quadrupole moment (field-independent basis, Debye-Ang):
   XX=            -60.1947   YY=            -52.4233   ZZ=            -52.8069
   XY=             -5.0302   XZ=              4.1441   YZ=             -0.9603

  Exact polarizability:  89.924   2.307  79.707  -1.672  -0.920  66.037
 Approx polarizability: 126.818   8.114 107.617  -8.443  -2.727 104.145

                      1                      2                      3
                      A                      A                      A
 Frequencies --     72.8603               103.5786               150.8476
 Red. masses --      3.7867                 2.9730                 3.4760
 Frc consts  --      0.0118                 0.0188                 0.0466
 IR Inten    --      1.5070                 3.0751                 2.0600

                      4                      5                      6
                      A                      A                      A
 Frequencies --    175.1099               192.2722               223.1371
 Red. masses --      2.9817                 1.0803                 2.6866
 Frc consts  --      0.0539                 0.0235                 0.0788
 IR Inten    --      1.2283                 0.4139                 1.7474

                      7                      8                      9
                      A                      A                      A
 Frequencies --    233.7395               355.6315               442.0648
 Red. masses --      2.2954                 3.1286                 3.6108
 Frc consts  --      0.0739                 0.2331                 0.4157
 IR Inten    --      3.7109                 2.2108                 2.3600

                     10                     11                     12
                      A                      A                      A
 Frequencies --    473.3234               544.3407               570.3289
 Red. masses --      4.6622                 3.1348                 4.3638
 Frc consts  --      0.6154                 0.5473                 0.8363
 IR Inten    --     17.7529                 1.7330                 7.1548

                     13                     14                     15
                      A                      A                      A
 Frequencies --    770.8527               804.1895               865.6298
 Red. masses --      1.9338                 1.3739                 3.9871
 Frc consts  --      0.6770                 0.5235                 1.7602
 IR Inten    --      6.7300                11.5406                13.8982

                     16                     17                     18
                      A                      A                      A
 Frequencies --    913.0595               934.0834               965.4448
 Red. masses --      1.8290                 1.7361                 2.6497
 Frc consts  --      0.8984                 0.8925                 1.4551
 IR Inten    --      1.2821                11.8912                 5.1822

                     19                     20                     21
                      A                      A                      A
 Frequencies --    999.8170              1019.5004              1041.3452
 Red. masses --      1.4177                 4.0187                 2.2307
 Frc consts  --      0.8350                 2.4610                 1.4252
 IR Inten    --     25.0847                69.9904                34.1624

                     22                     23                     24
                      A                      A                      A
 Frequencies --   1061.7562              1074.2136              1106.7355
 Red. masses --      2.1054                 3.0913                 1.9101
 Frc consts  --      1.3984                 2.1017                 1.3785
 IR Inten    --    103.2937                18.6539                30.6066

                     25                     26                     27
                      A                      A                      A
 Frequencies --   1121.5773              1163.3601              1171.0727
 Red. masses --      1.6758                 1.2476                 1.8920
 Frc consts  --      1.2420                 0.9949                 1.5288
 IR Inten    --     22.1546                 5.1889                22.3744

                     28                     29                     30
                      A                      A                      A
 Frequencies --   1193.9433              1212.6054              1246.3675
 Red. masses --      2.0494                 1.1986                 1.4931
 Frc consts  --      1.7212                 1.0384                 1.3666
 IR Inten    --     21.9193                 0.5780                 5.0223

                     31                     32                     33
                      A                      A                      A
 Frequencies --   1265.1513              1314.6676              1361.5097
 Red. masses --      1.5656                 1.4978                 1.5457
 Frc consts  --      1.4764                 1.5252                 1.6882
 IR Inten    --     18.2345                14.6400                 1.9844

                     34                     35                     36
                      A                      A                      A
 Frequencies --   1416.4578              1433.8536              1466.7623
 Red. masses --      1.2482                 1.3296                 1.9950
 Frc consts  --      1.4755                 1.6105                 2.5288
 IR Inten    --      1.9745                 8.7506                21.4177

                     37                     38                     39
                      A                      A                      A
 Frequencies --   1490.6986              1492.7337              1503.6509
 Red. masses --      1.1269                 1.0769                 1.1610
 Frc consts  --      1.4754                 1.4138                 1.5466
 IR Inten    --      2.1352                 7.0907                15.3607

                     40                     41                     42
                      A                      A                      A
 Frequencies --   1533.6482              1809.2141              2887.5285
 Red. masses --      1.2149                 9.7629                 1.0824
 Frc consts  --      1.6836                18.8283                 5.3171
 IR Inten    --      0.3998               282.5153                71.8691

                     43                     44                     45
                      A                      A                      A
 Frequencies --   3033.0805              3037.1414              3077.1930
 Red. masses --      1.0352                 1.0556                 1.0636
 Frc consts  --      5.6111                 5.7369                 5.9340
 IR Inten    --     29.4874                70.1736                17.8526

                     46                     47                     48
                      A                      A                      A
 Frequencies --   3084.8446              3098.5565              3103.5706
 Red. masses --      1.1075                 1.1010                 1.0997
 Frc consts  --      6.2097                 6.2280                 6.2408
 IR Inten    --     27.9302                15.8232                16.4310

                     49                     50                     51
                      A                      A                      A
 Frequencies --   3130.3527              3134.1200              3158.9292
 Red. masses --      1.0884                 1.1084                 1.0884
 Frc consts  --      6.2841                 6.4150                 6.3990
 IR Inten    --     10.4475                17.3861                 5.8127

 - Thermochemistry -
 -------------------
 Temperature   298.150 Kelvin.  Pressure   1.00000 Atm.
 Atom     1 has atomic number  6 and mass  12.00000

 Molecular mass:   126.06808 amu.
 Principal axes and moments of inertia in atomic units:
                           1         2         3
     Eigenvalues --   856.627721325.784611879.85841
           X            0.99914  -0.03649   0.01962
           Y            0.03653   0.99933  -0.00157
           Z           -0.01955   0.00228   0.99981
 This molecule is an asymmetric top.
 Rotational symmetry number  1.
 Warning -- assumption of classical behavior for rotation
           may cause significant error
 Rotational temperatures (Kelvin)      0.10111     0.06533     0.04607
 Rotational constants (GHZ):           2.10680     1.36126     0.96004
 Zero-point vibrational energy     412929.7 (Joules/Mol)
                                   98.69256 (Kcal/Mol)
 Warning -- explicit consideration of  12 degrees of freedom as
           vibrations may cause significant error
 Vibrational temperatures:    104.83   149.03   217.04   251.94   276.64
          (Kelvin)            321.04   336.30   511.67   636.03   681.01
                              783.18   820.58  1109.08  1157.05  1245.45
                             1313.69  1343.94  1389.06  1438.51  1466.83
                             1498.26  1527.63  1545.55  1592.34  1613.70
                             1673.81  1684.91  1717.82  1744.67  1793.24
                             1820.27  1891.51  1958.91  2037.96  2062.99
                             2110.34  2144.78  2147.71  2163.42  2206.57
                             2603.05  4154.50  4363.92  4369.76  4427.39
                             4438.40  4458.13  4465.34  4503.87  4509.29
                             4544.99

 Zero-point correction=                           0.157277 (Hartree/Particle)
 Thermal correction to Energy=                    0.166446
 Thermal correction to Enthalpy=                  0.167390
 Thermal correction to Gibbs Free Energy=         0.122891
 Sum of electronic and zero-point Energies=           -423.005709
 Sum of electronic and thermal Energies=              -422.996539
 Sum of electronic and thermal Enthalpies=            -422.995595
 Sum of electronic and thermal Free Energies=         -423.040095

                     E (Thermal)             CV                S
                      KCal/Mol        Cal/Mol-Kelvin    Cal/Mol-Kelvin
 Total                  104.447             33.126             93.658
 Electronic               0.000              0.000              0.000
 Translational            0.889              2.981             40.409
 Rotational               0.889              2.981             29.147
 Vibrational            102.669             27.164             24.102
 Vibration     1          0.599              1.967              4.075
 Vibration     2          0.605              1.946              3.386
 Vibration     3          0.618              1.902              2.662
 Vibration     4          0.627              1.873              2.380
 Vibration     5          0.634              1.851              2.206
 Vibration     6          0.649              1.806              1.933
 Vibration     7          0.654              1.789              1.850
 Vibration     8          0.731              1.564              1.141
 Vibration     9          0.802              1.378              0.820
 Vibration    10          0.830              1.309              0.728
 Vibration    11          0.899              1.152              0.556
 Vibration    12          0.926              1.095              0.504

 Optimization completed.
    -- Stationary point found.
 Normal termination of Gaussian 09 at Mon Jan 27 22:44:51 2020.
