 Gaussian 09, Revision D.01,
 Gaussian 09:  ES64L-G09RevD.01 24-Apr-2013

 -----------------------------
 # b3lyp 6-31G(2df,p) opt Freq
 -----------------------------

 -----
 titel
 -----
 Symbolic Z-matrix:
 Charge =  0 Multiplicity = 1

 SCF Done:  E(RB3LYP) =  -423.153551663     A.U. after   15 cycles
 SCF Done:  E(RB3LYP) =  -423.153551409     A.U. after    7 cycles
 SCF Done:  E(RB3LYP) =  -423.153551666     A.U. after    7 cycles
 SCF Done:  E(RB3LYP) =  -423.153551593     A.U. after    7 cycles
 Optimization completed.
    -- Stationary point found.
 Normal termination of Gaussian 09 at Tue Jan 28 08:56:20 2020.

 ----------------------------------------------------------------------
 #N Geom=AllCheck Guess=TCheck SCRF=Check GenChk RB3LYP/6-31G(2df,p) Fr
 eq
 ----------------------------------------------------------------------

 Structure from the checkpoint file:  "/scratch/puck/g09_ef61affb-910c-4489-8b6d-91f7f85b563a/Gau-60383.chk"
 -----
 titel
 -----
 Charge =  0 Multiplicity = 1

                         Standard orientation:
 ---------------------------------------------------------------------
 Center     Atomic      Atomic             Coordinates (Angstroms)
 Number     Number       Type             X           Y           Z
 ---------------------------------------------------------------------
      1          6           0        0.112295   -0.250201    1.886730
      2          6           0       -0.335360   -0.139528    0.414567
      3          6           0       -1.599714   -1.019749    0.197303
      4          8           0       -2.104203   -0.949609   -1.116678
      5          6           0        0.782191   -0.640355   -0.543242
      6          6           0        2.027636    0.215546   -0.543496
      7          8           0        3.140325   -0.203577   -0.346348
      8          6           0       -0.710008    1.243248    0.093629
      9          6           0       -1.080426    2.353526   -0.187244
     10          1           0        1.003284    0.353808    2.076463
     11          1           0       -0.678443    0.090912    2.560462
     12          1           0        0.351230   -1.291076    2.127724
     13          1           0       -1.334306   -2.067558    0.371703
     14          1           0       -2.357561   -0.730791    0.940751
     15          1           0       -2.356996   -0.031636   -1.275213
     16          1           0        1.065262   -1.662945   -0.276601
     17          1           0        0.367703   -0.650257   -1.559097
     18          1           0        1.849576    1.293595   -0.751349
     19          1           0       -1.378415    3.346519   -0.420108
 ---------------------------------------------------------------------

 SCF Done:  E(RB3LYP) =  -423.153551593     A.U. after    1 cycles

 The electronic state is 1-A.
 Alpha  occ. eigenvalues --  -19.14737 -19.13848 -10.27015 -10.24240 -10.23673
 Alpha  occ. eigenvalues --  -10.19892 -10.19836 -10.19461 -10.19214  -1.04485
 Alpha  occ. eigenvalues --   -1.03132  -0.84708  -0.75228  -0.73018  -0.68988
 Alpha  occ. eigenvalues --   -0.62810  -0.58432  -0.53415  -0.51793  -0.49149
 Alpha  occ. eigenvalues --   -0.48084  -0.45211  -0.43726  -0.41840  -0.41335
 Alpha  occ. eigenvalues --   -0.39760  -0.38887  -0.37818  -0.35775  -0.33583
 Alpha  occ. eigenvalues --   -0.29650  -0.28534  -0.27750  -0.24645
 Alpha virt. eigenvalues --   -0.02282   0.03401   0.03862   0.08260   0.09102
 Alpha virt. eigenvalues --    0.11008   0.11943   0.13242   0.14362   0.15343
 Alpha virt. eigenvalues --    0.17422   0.17759   0.19161   0.19295   0.20741

 Mulliken charges:
               1
     1  C   -0.420780
     2  C    0.015825
     3  C   -0.072875
     4  O   -0.417947
     5  C   -0.285082
     6  C    0.148266
     7  O   -0.248216
     8  C    0.330552
     9  C   -0.499824
    10  H    0.139388
    11  H    0.129168
    12  H    0.126121
    13  H    0.114416
    14  H    0.098284
    15  H    0.288245
    16  H    0.119241
    17  H    0.138926
    18  H    0.088958
    19  H    0.207334
 Sum of Mulliken charges =   0.00000

 Dipole moment (field-independent basis, Debye):
    X=             -2.4742    Y=              1.3275    Z=              0.7843  Tot=              2.9153
 Quadrupole moment (field-independent basis, Debye-Ang):
   XX=            -65.0688   YY=            -49.5302   ZZ=            -52.6567
   XY=             -2.6577   XZ=             -0.7790   YZ=             -3.9415

  Exact polarizability:  81.893  -6.980  86.993   2.103  -6.221  65.070
 Approx polarizability: 116.976 -16.918 137.600   6.794 -11.489  94.846

                      1                      2                      3
                      A                      A                      A
 Frequencies --     53.6868                83.1140               121.2266
 Red. masses --      4.4650                 3.5273                 4.4006
 Frc consts  --      0.0076                 0.0144                 0.0381
 IR Inten    --      7.0469                 1.8084                 3.2401

                      4                      5                      6
                      A                      A                      A
 Frequencies --    142.3592               182.9664               223.2470
 Red. masses --      3.2928                 3.2811                 1.3868
 Frc consts  --      0.0393                 0.0647                 0.0407
 IR Inten    --      0.3630                 0.8890                 0.1241

                      7                      8                      9
                      A                      A                      A
 Frequencies --    237.4009               253.2515               353.5754
 Red. masses --      1.6716                 2.9005                 2.3446
 Frc consts  --      0.0555                 0.1096                 0.1727
 IR Inten    --      0.3681                 2.6651                 0.6730

                     10                     11                     12
                      A                      A                      A
 Frequencies --    378.7955               421.9407               455.8167
 Red. masses --      2.8032                 1.6261                 2.3604
 Frc consts  --      0.2370                 0.1706                 0.2889
 IR Inten    --     15.5842                70.8936                59.6183

                     13                     14                     15
                      A                      A                      A
 Frequencies --    484.1330               566.7441               624.3488
 Red. masses --      3.3795                 3.4480                 4.7287
 Frc consts  --      0.4667                 0.6525                 1.0860
 IR Inten    --      3.7587                 3.7912                 4.2269

                     16                     17                     18
                      A                      A                      A
 Frequencies --    641.8586               654.1446               699.5647
 Red. masses --      1.2263                 1.2129                 3.0759
 Frc consts  --      0.2977                 0.3058                 0.8869
 IR Inten    --     47.2091                45.6526                 0.9739

                     19                     20                     21
                      A                      A                      A
 Frequencies --    811.8015               908.6825               925.4874
 Red. masses --      1.8380                 1.9117                 1.9496
 Frc consts  --      0.7137                 0.9300                 0.9839
 IR Inten    --      0.1916                 7.2644                 4.1827

                     22                     23                     24
                      A                      A                      A
 Frequencies --    967.3112              1006.4921              1060.3092
 Red. masses --      1.6271                 1.6236                 2.7233
 Frc consts  --      0.8970                 0.9691                 1.8039
 IR Inten    --      2.3174                 4.9846                50.5861

                     25                     26                     27
                      A                      A                      A
 Frequencies --   1095.2007              1145.8552              1168.1966
 Red. masses --      4.3584                 2.6110                 1.6502
 Frc consts  --      3.0801                 2.0198                 1.3268
 IR Inten    --     81.3681                10.7276                14.4976

                     28                     29                     30
                      A                      A                      A
 Frequencies --   1177.8166              1235.4212              1283.7809
 Red. masses --      2.2686                 1.3577                 1.6887
 Frc consts  --      1.8542                 1.2210                 1.6398
 IR Inten    --      2.7059                 3.1335                32.5527

                     31                     32                     33
                      A                      A                      A
 Frequencies --   1314.6625              1384.2836              1408.9277
 Red. masses --      1.6095                 1.2623                 1.2038
 Frc consts  --      1.6390                 1.4251                 1.4079
 IR Inten    --      6.8500                 2.2577                 3.3320

                     34                     35                     36
                      A                      A                      A
 Frequencies --   1424.7730              1430.0138              1461.2181
 Red. masses --      1.2063                 1.1997                 1.0913
 Frc consts  --      1.4428                 1.4455                 1.3729
 IR Inten    --     27.8192                38.7209                 2.9381

                     37                     38                     39
                      A                      A                      A
 Frequencies --   1489.6883              1496.6191              1500.6761
 Red. masses --      1.0577                 1.0568                 1.0749
 Frc consts  --      1.3829                 1.3947                 1.4262
 IR Inten    --      2.7757                 3.0644                 4.5623

                     40                     41                     42
                      A                      A                      A
 Frequencies --   1827.9364              2220.0382              2895.1334
 Red. masses --      9.8947                 5.9317                 1.0826
 Frc consts  --     19.4793                17.2246                 5.3464
 IR Inten    --    177.8473                 0.8106                72.3816

                     43                     44                     45
                      A                      A                      A
 Frequencies --   2993.1226              3036.9785              3041.7598
 Red. masses --      1.0666                 1.0582                 1.0362
 Frc consts  --      5.6299                 5.7506                 5.6487
 IR Inten    --     48.9480                 6.6295                14.1394

                     46                     47                     48
                      A                      A                      A
 Frequencies --   3079.8403              3101.8443              3115.3953
 Red. masses --      1.0968                 1.1018                 1.1013
 Frc consts  --      6.1297                 6.2458                 6.2979
 IR Inten    --     20.0244                10.3878                20.2785

                     49                     50                     51
                      A                      A                      A
 Frequencies --   3123.8192              3496.3103              3779.4422
 Red. masses --      1.1025                 1.1611                 1.0654
 Frc consts  --      6.3386                 8.3628                 8.9668
 IR Inten    --     16.2134                73.7676                24.7047

 - Thermochemistry -
 -------------------
 Temperature   298.150 Kelvin.  Pressure   1.00000 Atm.
 Atom     1 has atomic number  6 and mass  12.00000

 Molecular mass:   126.06808 amu.
 Principal axes and moments of inertia in atomic units:
                           1         2         3
     Eigenvalues --   849.726871622.522531788.71565
           X            1.00000   0.00080  -0.00154
           Y           -0.00093   0.99608  -0.08849
           Z            0.00146   0.08849   0.99608
 This molecule is an asymmetric top.
 Rotational symmetry number  1.
 Warning -- assumption of classical behavior for rotation
           may cause significant error
 Rotational temperatures (Kelvin)      0.10193     0.05338     0.04842
 Rotational constants (GHZ):           2.12391     1.11231     1.00896
 Zero-point vibrational energy     406652.6 (Joules/Mol)
                                   97.19231 (Kcal/Mol)
 Warning -- explicit consideration of  14 degrees of freedom as
           vibrations may cause significant error
 Vibrational temperatures:     77.24   119.58   174.42   204.82   263.25
          (Kelvin)            321.20   341.57   364.37   508.72   545.00
                              607.08   655.82   696.56   815.42   898.30
                              923.49   941.17  1006.52  1168.00  1307.39
                             1331.57  1391.74  1448.12  1525.55  1575.75
                             1648.63  1680.77  1694.61  1777.49  1847.07
                             1891.50  1991.67  2027.13  2049.93  2057.47
                             2102.36  2143.33  2153.30  2159.14  2629.99
                             3194.14  4165.45  4306.43  4369.53  4376.41
                             4431.20  4462.86  4482.35  4494.47  5030.40
                             5437.77

 Zero-point correction=                           0.154886 (Hartree/Particle)
 Thermal correction to Energy=                    0.165400
 Thermal correction to Enthalpy=                  0.166344
 Thermal correction to Gibbs Free Energy=         0.119074
 Sum of electronic and zero-point Energies=           -422.998666
 Sum of electronic and thermal Energies=              -422.988152
 Sum of electronic and thermal Enthalpies=            -422.987208
 Sum of electronic and thermal Free Energies=         -423.034477

                     E (Thermal)             CV                S
                      KCal/Mol        Cal/Mol-Kelvin    Cal/Mol-Kelvin
 Total                  103.790             37.757             99.487
 Electronic               0.000              0.000              0.000
 Translational            0.889              2.981             40.409
 Rotational               0.889              2.981             29.290
 Vibrational            102.013             31.796             29.788
 Vibration     1          0.596              1.976              4.677
 Vibration     2          0.600              1.961              3.816
 Vibration     3          0.609              1.931              3.081
 Vibration     4          0.616              1.911              2.772
 Vibration     5          0.630              1.863              2.298
 Vibration     6          0.649              1.806              1.933
 Vibration     7          0.656              1.783              1.822
 Vibration     8          0.664              1.757              1.708
 Vibration     9          0.730              1.568              1.150
 Vibration    10          0.749              1.515              1.044
 Vibration    11          0.784              1.423              0.885
 Vibration    12          0.814              1.348              0.778
 Vibration    13          0.840              1.285              0.699
 Vibration    14          0.923              1.103              0.511

 Optimization completed.
    -- Stationary point found.
 Normal termination of Gaussian 09 at Tue Jan 28 10:47:20 2020.
