 Gaussian 09, Revision D.01,
 Gaussian 09:  ES64L-G09RevD.01 24-Apr-2013

 -----------------------------
 # b3lyp 6-31G(2df,p) opt Freq
 -----------------------------

 -----
 titel
 -----
 Symbolic Z-matrix:
 Charge =  0 Multiplicity = 1

 SCF Done:  E(RB3LYP) =  -423.202738746     A.U. after   14 cycles
 Optimization completed.
    -- Stationary point found.
 Normal termination of Gaussian 09 at Tue Jan 28 08:14:20 2020.

 ----------------------------------------------------------------------
 #N Geom=AllCheck Guess=TCheck SCRF=Check GenChk RB3LYP/6-31G(2df,p) Fr
 eq
 ----------------------------------------------------------------------

 Structure from the checkpoint file:  "/scratch/puck/g09_ab1a5652-439a-4e51-9b1e-82263381e892/Gau-17687.chk"
 -----
 titel
 -----
 Charge =  0 Multiplicity = 1

                         Standard orientation:
 ---------------------------------------------------------------------
 Center     Atomic      Atomic             Coordinates (Angstroms)
 Number     Number       Type             X           Y           Z
 ---------------------------------------------------------------------
      1          6           0        2.379417   -0.968877   -0.449027
      2          6           0        1.068780   -0.728057    0.307812
      3          6           0        1.075390    0.610938    1.074890
      4          8           0        0.679181    1.607472    0.133409
      5          6           0       -0.283330    1.041936   -0.734561
      6          6           0       -1.734697    0.943406   -0.164730
      7          6           0       -1.521553   -0.571378   -0.005974
      8          8           0       -2.173963   -1.462744    0.454766
      9          6           0       -0.120737   -0.513527   -0.650228
     10          1           0        2.321693   -1.871756   -1.064757
     11          1           0        2.610385   -0.123235   -1.105022
     12          1           0        3.214580   -1.090579    0.248577
     13          1           0        0.870267   -1.562521    0.987462
     14          1           0        0.376229    0.576840    1.924965
     15          1           0        2.061047    0.891212    1.455824
     16          1           0       -0.193119    1.530313   -1.705248
     17          1           0       -1.929108    1.502205    0.755100
     18          1           0       -2.519049    1.181850   -0.890436
     19          1           0       -0.034286   -1.078803   -1.580965
 ---------------------------------------------------------------------

 SCF Done:  E(RB3LYP) =  -423.202738746     A.U. after    1 cycles

 The electronic state is 1-A.
 Alpha  occ. eigenvalues --  -19.14617 -19.14022 -10.27127 -10.24088 -10.23272
 Alpha  occ. eigenvalues --  -10.20348 -10.19587 -10.19111 -10.18335  -1.05078
 Alpha  occ. eigenvalues --   -1.04257  -0.83995  -0.79457  -0.69609  -0.68359
 Alpha  occ. eigenvalues --   -0.60924  -0.57612  -0.53262  -0.50758  -0.49106
 Alpha  occ. eigenvalues --   -0.46527  -0.43809  -0.43200  -0.42520  -0.40745
 Alpha  occ. eigenvalues --   -0.40250  -0.38927  -0.36428  -0.34860  -0.34377
 Alpha  occ. eigenvalues --   -0.33231  -0.31365  -0.25981  -0.23954
 Alpha virt. eigenvalues --   -0.02765   0.08141   0.10815   0.11226   0.11453
 Alpha virt. eigenvalues --    0.12894   0.14118   0.14968   0.15848   0.16333
 Alpha virt. eigenvalues --    0.17288   0.18603   0.18844   0.19855   0.21021

 Mulliken charges:
               1
     1  C   -0.407591
     2  C    0.004150
     3  C   -0.110455
     4  O   -0.258249
     5  C    0.102670
     6  C   -0.377915
     7  C    0.388788
     8  O   -0.298840
     9  C   -0.174815
    10  H    0.118333
    11  H    0.130560
    12  H    0.117374
    13  H    0.097224
    14  H    0.098825
    15  H    0.112752
    16  H    0.088849
    17  H    0.137751
    18  H    0.133760
    19  H    0.096828
 Sum of Mulliken charges =   0.00000

 Dipole moment (field-independent basis, Debye):
    X=              1.3760    Y=              0.5339    Z=             -0.8823  Tot=              1.7195
 Quadrupole moment (field-independent basis, Debye-Ang):
   XX=            -55.9382   YY=            -58.8624   ZZ=            -50.0989
   XY=             -7.1489   XZ=              3.3769   YZ=              1.0232

  Exact polarizability:  84.880  -3.002  72.468   0.347  -1.113  67.085
 Approx polarizability: 113.267   3.758 112.184  -1.372  -5.207 102.699

                      1                      2                      3
                      A                      A                      A
 Frequencies --     64.3990               134.6930               173.7656
 Red. masses --      3.8402                 3.7772                 2.7566
 Frc consts  --      0.0094                 0.0404                 0.0490
 IR Inten    --      5.5083                 1.9604                 3.0263

                      4                      5                      6
                      A                      A                      A
 Frequencies --    236.9942               292.5386               365.0916
 Red. masses --      1.0971                 2.9315                 2.3666
 Frc consts  --      0.0363                 0.1478                 0.1859
 IR Inten    --      0.1403                 1.3089                 1.6449

                      7                      8                      9
                      A                      A                      A
 Frequencies --    401.3861               441.9200               516.8461
 Red. masses --      2.1183                 3.5804                 2.7150
 Frc consts  --      0.2011                 0.4120                 0.4273
 IR Inten    --      3.6669                 1.1191                 2.0963

                     10                     11                     12
                      A                      A                      A
 Frequencies --    603.1509               696.3836               727.1089
 Red. masses --      4.9154                 3.9187                 2.6001
 Frc consts  --      1.0536                 1.1197                 0.8099
 IR Inten    --      2.1625                 2.2891                 2.0023

                     13                     14                     15
                      A                      A                      A
 Frequencies --    768.2940               832.6533               854.0286
 Red. masses --      2.6085                 2.9377                 2.1271
 Frc consts  --      0.9072                 1.2000                 0.9141
 IR Inten    --      0.1764                 0.6689                 0.1908

                     16                     17                     18
                      A                      A                      A
 Frequencies --    899.4892               948.5469               955.3333
 Red. masses --      2.6238                 2.5474                 2.3531
 Frc consts  --      1.2508                 1.3504                 1.2653
 IR Inten    --      9.1080                27.4927                 4.2639

                     19                     20                     21
                      A                      A                      A
 Frequencies --    976.3843               989.9598              1021.1593
 Red. masses --      2.1919                 2.1601                 1.8297
 Frc consts  --      1.2312                 1.2473                 1.1241
 IR Inten    --      5.5578                 8.0279                 7.1647

                     22                     23                     24
                      A                      A                      A
 Frequencies --   1032.5749              1082.2503              1125.0847
 Red. masses --      1.5148                 2.6111                 1.9602
 Frc consts  --      0.9516                 1.8019                 1.4619
 IR Inten    --      6.3531                69.5036                29.1690

                     25                     26                     27
                      A                      A                      A
 Frequencies --   1137.8588              1147.7216              1182.2491
 Red. masses --      2.1244                 2.2213                 1.7619
 Frc consts  --      1.6205                 1.7240                 1.4510
 IR Inten    --     10.9020                23.3462                33.1142

                     28                     29                     30
                      A                      A                      A
 Frequencies --   1209.0683              1231.8695              1253.8479
 Red. masses --      1.6422                 1.5694                 1.7007
 Frc consts  --      1.4144                 1.4031                 1.5753
 IR Inten    --      1.5582                 8.0190                36.6280

                     31                     32                     33
                      A                      A                      A
 Frequencies --   1262.0126              1290.7278              1347.9183
 Red. masses --      1.2156                 1.6217                 1.2284
 Frc consts  --      1.1407                 1.5918                 1.3150
 IR Inten    --      1.4652                 1.0837                 5.6937

                     34                     35                     36
                      A                      A                      A
 Frequencies --   1364.2231              1386.0077              1412.5981
 Red. masses --      1.4723                 1.3412                 1.2496
 Frc consts  --      1.6144                 1.5180                 1.4692
 IR Inten    --     10.3451                 9.3804                 2.2506

                     37                     38                     39
                      A                      A                      A
 Frequencies --   1419.0587              1496.6268              1500.0560
 Red. masses --      1.1057                 1.0447                 1.0494
 Frc consts  --      1.3118                 1.3787                 1.3913
 IR Inten    --     13.0116                 4.9266                 3.2546

                     40                     41                     42
                      A                      A                      A
 Frequencies --   1518.1665              1887.9416              2981.1247
 Red. masses --      1.0890                12.8655                 1.0709
 Frc consts  --      1.4788                27.0181                 5.6076
 IR Inten    --      1.3293               244.7516                51.5304

                     43                     44                     45
                      A                      A                      A
 Frequencies --   3033.4586              3055.8130              3065.0569
 Red. masses --      1.0348                 1.0598                 1.0853
 Frc consts  --      5.6103                 5.8305                 6.0074
 IR Inten    --     21.9286                 5.1190                11.5326

                     46                     47                     48
                      A                      A                      A
 Frequencies --   3089.1446              3092.1759              3103.4796
 Red. masses --      1.0877                 1.0926                 1.1009
 Frc consts  --      6.1156                 6.1553                 6.2474
 IR Inten    --     10.9995                19.6721                33.7314

                     49                     50                     51
                      A                      A                      A
 Frequencies --   3107.3114              3109.9535              3115.5120
 Red. masses --      1.0947                 1.1016                 1.0997
 Frc consts  --      6.2273                 6.2772                 6.2889
 IR Inten    --     12.8929                26.1061                19.9089

 - Thermochemistry -
 -------------------
 Temperature   298.150 Kelvin.  Pressure   1.00000 Atm.
 Atom     1 has atomic number  6 and mass  12.00000

 Molecular mass:   126.06808 amu.
 Principal axes and moments of inertia in atomic units:
                           1         2         3
     Eigenvalues --   684.491071183.903921518.77052
           X            0.99527  -0.09703   0.00375
           Y            0.09694   0.99510   0.01929
           Z           -0.00560  -0.01883   0.99981
 This molecule is an asymmetric top.
 Rotational symmetry number  1.
 Warning -- assumption of classical behavior for rotation
           may cause significant error
 Rotational temperatures (Kelvin)      0.12654     0.07316     0.05703
 Rotational constants (GHZ):           2.63662     1.52440     1.18829
 Zero-point vibrational energy     418340.2 (Joules/Mol)
                                   99.98571 (Kcal/Mol)
 Warning -- explicit consideration of  10 degrees of freedom as
           vibrations may cause significant error
 Vibrational temperatures:     92.66   193.79   250.01   340.98   420.90
          (Kelvin)            525.28   577.50   635.82   743.63   867.80
                             1001.94  1046.15  1105.40  1198.00  1228.76
                             1294.16  1364.75  1374.51  1404.80  1424.33
                             1469.22  1485.64  1557.11  1618.74  1637.12
                             1651.31  1700.99  1739.58  1772.38  1804.01
                             1815.75  1857.07  1939.35  1962.81  1994.15
                             2032.41  2041.71  2153.31  2158.24  2184.30
                             2716.32  4289.17  4364.46  4396.63  4409.93
                             4444.58  4448.95  4465.21  4470.72  4474.52
                             4482.52

 Zero-point correction=                           0.159337 (Hartree/Particle)
 Thermal correction to Energy=                    0.167436
 Thermal correction to Enthalpy=                  0.168380
 Thermal correction to Gibbs Free Energy=         0.126425
 Sum of electronic and zero-point Energies=           -423.043401
 Sum of electronic and thermal Energies=              -423.035303
 Sum of electronic and thermal Enthalpies=            -423.034358
 Sum of electronic and thermal Free Energies=         -423.076314

                     E (Thermal)             CV                S
                      KCal/Mol        Cal/Mol-Kelvin    Cal/Mol-Kelvin
 Total                  105.068             31.102             88.304
 Electronic               0.000              0.000              0.000
 Translational            0.889              2.981             40.409
 Rotational               0.889              2.981             28.600
 Vibrational            103.290             25.140             19.295
 Vibration     1          0.597              1.971              4.318
 Vibration     2          0.613              1.919              2.878
 Vibration     3          0.627              1.875              2.394
 Vibration     4          0.656              1.784              1.825
 Vibration     5          0.688              1.688              1.459
 Vibration     6          0.738              1.544              1.100
 Vibration     7          0.767              1.467              0.958
 Vibration     8          0.802              1.379              0.821
 Vibration     9          0.872              1.213              0.617
 Vibration    10          0.962              1.025              0.444

 Optimization completed.
    -- Stationary point found.
 Normal termination of Gaussian 09 at Tue Jan 28 08:59:49 2020.
