 Gaussian 09, Revision D.01,
 Gaussian 09:  ES64L-G09RevD.01 24-Apr-2013

 -----------------------------
 # b3lyp 6-31G(2df,p) opt Freq
 -----------------------------

 -----
 titel
 -----
 Symbolic Z-matrix:
 Charge =  0 Multiplicity = 1

 SCF Done:  E(RB3LYP) =  -423.127690539     A.U. after   14 cycles
 SCF Done:  E(RB3LYP) =  -423.127690542     A.U. after    7 cycles
 SCF Done:  E(RB3LYP) =  -423.127690534     A.U. after    7 cycles
 SCF Done:  E(RB3LYP) =  -423.127690497     A.U. after    7 cycles
 Optimization completed.
    -- Stationary point found.
 Normal termination of Gaussian 09 at Mon Jan 27 15:44:08 2020.

 ----------------------------------------------------------------------
 #N Geom=AllCheck Guess=TCheck SCRF=Check GenChk RB3LYP/6-31G(2df,p) Fr
 eq
 ----------------------------------------------------------------------

 Structure from the checkpoint file:  "/scratch/puck/g09_c0ab301d-c4ed-4c39-95aa-839b57545964/Gau-108024.chk"
 -----
 titel
 -----
 Charge =  0 Multiplicity = 1

                         Standard orientation:
 ---------------------------------------------------------------------
 Center     Atomic      Atomic             Coordinates (Angstroms)
 Number     Number       Type             X           Y           Z
 ---------------------------------------------------------------------
      1          6           0        3.366314   -0.651056    0.025242
      2          6           0        2.021293   -0.046841   -0.359528
      3          8           0        2.022172    1.296045    0.097118
      4          6           0        0.839635   -0.829972    0.246108
      5          6           0       -0.487272   -0.376521   -0.316365
      6          8           0       -0.832803    1.005290   -0.119952
      7          6           0       -1.630572    0.002498    0.542027
      8          6           0       -2.993058   -0.137856    0.107441
      9          6           0       -4.138653   -0.266246   -0.232073
     10          1           0        3.467648   -0.696057    1.114437
     11          1           0        3.475322   -1.661247   -0.381130
     12          1           0        4.176146   -0.028863   -0.364751
     13          1           0        1.925775   -0.074770   -1.460336
     14          1           0        1.114296    1.622046    0.057846
     15          1           0        0.953634   -1.901244    0.041766
     16          1           0        0.862356   -0.691693    1.333012
     17          1           0       -0.727600   -0.730836   -1.319057
     18          1           0       -1.478218   -0.036323    1.619966
     19          1           0       -5.150443   -0.375727   -0.536191
 ---------------------------------------------------------------------

 SCF Done:  E(RB3LYP) =  -423.127690497     A.U. after    1 cycles

 The electronic state is 1-A.
 Alpha  occ. eigenvalues --  -19.17339 -19.11956 -10.27226 -10.25661 -10.23352
 Alpha  occ. eigenvalues --  -10.19675 -10.19482 -10.19244 -10.17203  -1.09020
 Alpha  occ. eigenvalues --   -1.00584  -0.78675  -0.77647  -0.72418  -0.69108
 Alpha  occ. eigenvalues --   -0.62336  -0.58701  -0.55880  -0.51754  -0.50951
 Alpha  occ. eigenvalues --   -0.48555  -0.46545  -0.43275  -0.41359  -0.38709
 Alpha  occ. eigenvalues --   -0.37986  -0.37278  -0.36741  -0.35054  -0.31837
 Alpha  occ. eigenvalues --   -0.29368  -0.28764  -0.26919  -0.25672
 Alpha virt. eigenvalues --    0.01051   0.03057   0.08773   0.10592   0.11048
 Alpha virt. eigenvalues --    0.11907   0.12817   0.13296   0.15232   0.16000
 Alpha virt. eigenvalues --    0.16285   0.17575   0.18878   0.19280   0.22914

 Mulliken charges:
               1
     1  C   -0.384111
     2  C    0.159447
     3  O   -0.446466
     4  C   -0.258090
     5  C    0.056552
     6  O   -0.246964
     7  C   -0.165146
     8  C    0.313629
     9  C   -0.403289
    10  H    0.119673
    11  H    0.107305
    12  H    0.127571
    13  H    0.062926
    14  H    0.296788
    15  H    0.106266
    16  H    0.108943
    17  H    0.112682
    18  H    0.125527
    19  H    0.206756
 Sum of Mulliken charges =   0.00000

 Dipole moment (field-independent basis, Debye):
    X=             -1.3718    Y=             -2.4684    Z=             -0.0439  Tot=              2.8243
 Quadrupole moment (field-independent basis, Debye-Ang):
   XX=            -50.1945   YY=            -56.1881   ZZ=            -51.7907
   XY=             -2.2907   XZ=             -0.0664   YZ=              0.6001

  Exact polarizability: 119.414  -0.170  61.048   2.924   1.962  61.665
 Approx polarizability: 154.118   4.560  96.619   7.133   4.088  95.244

                      1                      2                      3
                      A                      A                      A
 Frequencies --     58.1767                94.2251               100.3008
 Red. masses --      5.6551                 3.1305                 4.3402
 Frc consts  --      0.0113                 0.0164                 0.0257
 IR Inten    --      0.1063                 0.4610                 0.2433

                      4                      5                      6
                      A                      A                      A
 Frequencies --    167.2723               224.1703               239.5356
 Red. masses --      4.0715                 1.5120                 1.8720
 Frc consts  --      0.0671                 0.0448                 0.0633
 IR Inten    --      1.6299                 1.0531                 3.9426

                      7                      8                      9
                      A                      A                      A
 Frequencies --    300.9099               335.3717               406.3306
 Red. masses --      3.4978                 4.4463                 2.8909
 Frc consts  --      0.1866                 0.2946                 0.2812
 IR Inten    --      2.9317                 0.9382                 3.1199

                     10                     11                     12
                      A                      A                      A
 Frequencies --    446.6692               468.9768               476.4189
 Red. masses --      2.0368                 1.6282                 1.7767
 Frc consts  --      0.2394                 0.2110                 0.2376
 IR Inten    --     31.6786                61.4530                14.4442

                     13                     14                     15
                      A                      A                      A
 Frequencies --    547.7818               598.3145               628.1010
 Red. masses --      6.0512                 3.7511                 1.2225
 Frc consts  --      1.0698                 0.7912                 0.2842
 IR Inten    --      5.6486                 9.0914                43.4198

                     16                     17                     18
                      A                      A                      A
 Frequencies --    675.7225               773.1851               846.1067
 Red. masses --      1.2564                 5.1953                 2.7275
 Frc consts  --      0.3380                 1.8299                 1.1505
 IR Inten    --     34.0846                14.0440                13.4342

                     19                     20                     21
                      A                      A                      A
 Frequencies --    906.6352               912.0500               947.8576
 Red. masses --      4.3852                 2.1863                 2.0104
 Frc consts  --      2.1237                 1.0715                 1.0642
 IR Inten    --     37.6065                 8.0990                20.1654

                     22                     23                     24
                      A                      A                      A
 Frequencies --    979.1321              1040.6223              1066.3036
 Red. masses --      2.2748                 2.8258                 2.1624
 Frc consts  --      1.2849                 1.8030                 1.4486
 IR Inten    --      3.6944                22.4497                36.1091

                     25                     26                     27
                      A                      A                      A
 Frequencies --   1082.5600              1128.0528              1156.6829
 Red. masses --      1.4363                 1.4424                 2.1320
 Frc consts  --      0.9917                 1.0814                 1.6806
 IR Inten    --      7.8143                 2.7584                 8.4056

                     28                     29                     30
                      A                      A                      A
 Frequencies --   1167.1016              1247.1841              1270.1158
 Red. masses --      2.1000                 1.3029                 1.5188
 Frc consts  --      1.6853                 1.1941                 1.4435
 IR Inten    --     27.8764                10.1095                 3.3321

                     31                     32                     33
                      A                      A                      A
 Frequencies --   1301.9210              1323.5507              1363.1702
 Red. masses --      1.2694                 1.1701                 1.2369
 Frc consts  --      1.2677                 1.2077                 1.3542
 IR Inten    --      1.7687                63.8610                12.2341

                     34                     35                     36
                      A                      A                      A
 Frequencies --   1382.7117              1402.7395              1451.4466
 Red. masses --      1.2313                 1.2441                 1.4921
 Frc consts  --      1.3870                 1.4423                 1.8520
 IR Inten    --      9.9859                10.7902                54.9496

                     37                     38                     39
                      A                      A                      A
 Frequencies --   1459.4453              1468.2664              1485.3861
 Red. masses --      1.5876                 1.5163                 1.0774
 Frc consts  --      1.9923                 1.9259                 1.4006
 IR Inten    --     18.6471                11.3791                 7.3785

                     40                     41                     42
                      A                      A                      A
 Frequencies --   1499.7904              2243.5847              2932.0657
 Red. masses --      1.0538                 5.9466                 1.0817
 Frc consts  --      1.3966                17.6363                 5.4792
 IR Inten    --      1.5966                 0.9177                57.2887

                     43                     44                     45
                      A                      A                      A
 Frequencies --   3033.1295              3040.2470              3080.6294
 Red. masses --      1.0558                 1.0380                 1.1023
 Frc consts  --      5.7230                 5.6527                 6.1634
 IR Inten    --      7.9923                27.1783                 7.7658

                     46                     47                     48
                      A                      A                      A
 Frequencies --   3111.9036              3115.1094              3122.0753
 Red. masses --      1.1009                 1.0906                 1.1013
 Frc consts  --      6.2810                 6.2353                 6.3245
 IR Inten    --     19.1078                14.6882                20.6668

                     49                     50                     51
                      A                      A                      A
 Frequencies --   3122.6293              3503.0153              3771.7361
 Red. masses --      1.0862                 1.1626                 1.0659
 Frc consts  --      6.2405                 8.4054                 8.9337
 IR Inten    --     30.5818                77.6607               117.9571

 - Thermochemistry -
 -------------------
 Temperature   298.150 Kelvin.  Pressure   1.00000 Atm.
 Atom     1 has atomic number  6 and mass  12.00000

 Molecular mass:   126.06808 amu.
 Principal axes and moments of inertia in atomic units:
                           1         2         3
     Eigenvalues --   314.368062548.300572731.66803
           X            0.99994  -0.01084   0.00113
           Y            0.01084   0.99994   0.00318
           Z           -0.00117  -0.00317   0.99999
 This molecule is an asymmetric top.
 Rotational symmetry number  1.
 Rotational temperatures (Kelvin)      0.27552     0.03399     0.03171
 Rotational constants (GHZ):           5.74085     0.70821     0.66067
 Zero-point vibrational energy     409759.4 (Joules/Mol)
                                   97.93484 (Kcal/Mol)
 Warning -- explicit consideration of  14 degrees of freedom as
           vibrations may cause significant error
 Vibrational temperatures:     83.70   135.57   144.31   240.67   322.53
          (Kelvin)            344.64   432.94   482.52   584.62   642.66
                              674.75   685.46   788.13   860.84   903.70
                              972.21  1112.44  1217.36  1304.44  1312.23
                             1363.75  1408.75  1497.22  1534.17  1557.56
                             1623.01  1664.21  1679.20  1794.42  1827.41
                             1873.17  1904.29  1961.30  1989.41  2018.23
                             2088.31  2099.81  2112.51  2137.14  2157.86
                             3228.01  4218.58  4363.99  4374.23  4432.33
                             4477.33  4481.94  4491.96  4492.76  5040.05
                             5426.68

 Zero-point correction=                           0.156069 (Hartree/Particle)
 Thermal correction to Energy=                    0.165904
 Thermal correction to Enthalpy=                  0.166849
 Thermal correction to Gibbs Free Energy=         0.121042
 Sum of electronic and zero-point Energies=           -422.971621
 Sum of electronic and thermal Energies=              -422.961786
 Sum of electronic and thermal Enthalpies=            -422.960842
 Sum of electronic and thermal Free Energies=         -423.006649

                     E (Thermal)             CV                S
                      KCal/Mol        Cal/Mol-Kelvin    Cal/Mol-Kelvin
 Total                  104.107             36.182             96.409
 Electronic               0.000              0.000              0.000
 Translational            0.889              2.981             40.409
 Rotational               0.889              2.981             29.172
 Vibrational            102.329             30.220             26.829
 Vibration     1          0.596              1.974              4.518
 Vibration     2          0.603              1.953              3.570
 Vibration     3          0.604              1.949              3.448
 Vibration     4          0.624              1.883              2.466
 Vibration     5          0.649              1.804              1.925
 Vibration     6          0.657              1.780              1.806
 Vibration     7          0.693              1.672              1.412
 Vibration     8          0.716              1.605              1.234
 Vibration     9          0.771              1.456              0.940
 Vibration    10          0.806              1.368              0.806
 Vibration    11          0.826              1.319              0.740
 Vibration    12          0.833              1.302              0.720
 Vibration    13          0.903              1.145              0.549
 Vibration    14          0.956              1.035              0.453

 Optimization completed.
    -- Stationary point found.
 Normal termination of Gaussian 09 at Mon Jan 27 16:17:48 2020.
