 Gaussian 09, Revision D.01,
 Gaussian 09:  ES64L-G09RevD.01 24-Apr-2013

 -----------------------------
 # b3lyp 6-31G(2df,p) opt Freq
 -----------------------------

 -----
 titel
 -----
 Symbolic Z-matrix:
 Charge =  0 Multiplicity = 1

 SCF Done:  E(RB3LYP) =  -423.136008531     A.U. after   14 cycles
 Optimization completed.
    -- Stationary point found.
 Normal termination of Gaussian 09 at Tue Jan 28 09:08:22 2020.

 ----------------------------------------------------------------------
 #N Geom=AllCheck Guess=TCheck SCRF=Check GenChk RB3LYP/6-31G(2df,p) Fr
 eq
 ----------------------------------------------------------------------

 Structure from the checkpoint file:  "/scratch/puck/g09_b3a30969-f5df-4f72-8342-7dd4cdc0d7e5/Gau-20207.chk"
 -----
 titel
 -----
 Charge =  0 Multiplicity = 1

                         Standard orientation:
 ---------------------------------------------------------------------
 Center     Atomic      Atomic             Coordinates (Angstroms)
 Number     Number       Type             X           Y           Z
 ---------------------------------------------------------------------
      1          6           0       -1.908382   -1.615014    0.141700
      2          8           0       -0.828585   -1.118562   -0.624748
      3          6           0       -0.187125    0.048223   -0.117340
      4          6           0        0.633298   -0.244737    1.184412
      5          6           0        2.077779    0.093013    0.779778
      6          8           0        2.131898   -0.142202   -0.617372
      7          6           0        0.936712    0.399470   -1.138083
      8          6           0       -1.135846    1.155649    0.040812
      9          6           0       -1.908011    2.069630    0.160651
     10          1           0       -2.716028   -0.877431    0.231512
     11          1           0       -2.281121   -2.494984   -0.387184
     12          1           0       -1.598056   -1.918561    1.152027
     13          1           0        0.284532    0.325801    2.046190
     14          1           0        0.542653   -1.310609    1.405314
     15          1           0        2.310539    1.146885    1.005888
     16          1           0        2.828287   -0.538449    1.260792
     17          1           0        1.011852    1.491732   -1.244313
     18          1           0        0.729113   -0.054234   -2.108054
     19          1           0       -2.588823    2.878555    0.263209
 ---------------------------------------------------------------------

 SCF Done:  E(RB3LYP) =  -423.136008531     A.U. after    1 cycles

 The electronic state is 1-A.
 Alpha  occ. eigenvalues --  -19.14638 -19.14060 -10.26432 -10.23087 -10.22757
 Alpha  occ. eigenvalues --  -10.22310 -10.19033 -10.18648 -10.18203  -1.04993
 Alpha  occ. eigenvalues --   -1.03019  -0.80071  -0.75167  -0.73286  -0.67632
 Alpha  occ. eigenvalues --   -0.61181  -0.60902  -0.53737  -0.51292  -0.50361
 Alpha  occ. eigenvalues --   -0.47450  -0.46063  -0.44009  -0.43705  -0.40177
 Alpha  occ. eigenvalues --   -0.39268  -0.36846  -0.35669  -0.33378  -0.32421
 Alpha  occ. eigenvalues --   -0.27954  -0.27010  -0.26741  -0.25187
 Alpha virt. eigenvalues --    0.03283   0.04673   0.09128   0.10415   0.12070
 Alpha virt. eigenvalues --    0.12469   0.13755   0.14399   0.15208   0.16094
 Alpha virt. eigenvalues --    0.16676   0.17870   0.18347   0.19372   0.21313

 Mulliken charges:
               1
     1  C   -0.251626
     2  O   -0.267331
     3  C    0.218973
     4  C   -0.294545
     5  C   -0.076311
     6  O   -0.238601
     7  C   -0.134728
     8  C    0.319044
     9  C   -0.507020
    10  H    0.121620
    11  H    0.130164
    12  H    0.104656
    13  H    0.114332
    14  H    0.124220
    15  H    0.094219
    16  H    0.114158
    17  H    0.098914
    18  H    0.129583
    19  H    0.200279
 Sum of Mulliken charges =   0.00000

 Dipole moment (field-independent basis, Debye):
    X=             -1.1238    Y=              0.6318    Z=              1.7213  Tot=              2.1506
 Quadrupole moment (field-independent basis, Debye-Ang):
   XX=            -52.8876   YY=            -50.1568   ZZ=            -52.8868
   XY=             -0.1833   XZ=              1.8672   YZ=             -1.5157

  Exact polarizability:  85.037  -7.515  81.453   1.480  -0.234  64.888
 Approx polarizability: 116.762 -20.520 122.853  -1.396   3.840  96.154

                      1                      2                      3
                      A                      A                      A
 Frequencies --     33.8604               121.9686               162.2689
 Red. masses --      2.7353                 2.0183                 2.9130
 Frc consts  --      0.0018                 0.0177                 0.0452
 IR Inten    --      0.3587                 1.8543                 0.4338

                      4                      5                      6
                      A                      A                      A
 Frequencies --    166.8082               201.6652               249.9981
 Red. masses --      3.3238                 1.4564                 2.6803
 Frc consts  --      0.0545                 0.0349                 0.0987
 IR Inten    --      0.1484                 2.2903                 1.3607

                      7                      8                      9
                      A                      A                      A
 Frequencies --    302.8803               392.8601               429.1961
 Red. masses --      2.2719                 2.9821                 3.4112
 Frc consts  --      0.1228                 0.2712                 0.3702
 IR Inten    --      9.8263                 4.5614                 1.0572

                     10                     11                     12
                      A                      A                      A
 Frequencies --    487.2906               544.5585               626.0035
 Red. masses --      5.6891                 5.3206                 2.1741
 Frc consts  --      0.7959                 0.9296                 0.5020
 IR Inten    --      3.3423                 7.0337                11.6502

                     13                     14                     15
                      A                      A                      A
 Frequencies --    627.3278               637.8631               670.8525
 Red. masses --      2.0155                 2.3802                 1.2606
 Frc consts  --      0.4673                 0.5706                 0.3343
 IR Inten    --     25.1791                11.6711                34.3005

                     16                     17                     18
                      A                      A                      A
 Frequencies --    756.8306               854.3170               896.6366
 Red. masses --      3.5886                 2.3566                 2.0106
 Frc consts  --      1.2111                 1.0134                 0.9524
 IR Inten    --      8.4667                17.5975                12.6075

                     19                     20                     21
                      A                      A                      A
 Frequencies --    961.8223               974.2284              1005.0292
 Red. masses --      2.7341                 2.9479                 1.8981
 Frc consts  --      1.4902                 1.6485                 1.1296
 IR Inten    --     10.9953                29.4688                 7.2321

                     22                     23                     24
                      A                      A                      A
 Frequencies --   1055.2832              1104.0340              1117.6094
 Red. masses --      4.8032                 2.8906                 8.2982
 Frc consts  --      3.1515                 2.0759                 6.1068
 IR Inten    --     26.2728                32.1171                93.7060

                     25                     26                     27
                      A                      A                      A
 Frequencies --   1143.8400              1157.9750              1184.7429
 Red. masses --      6.6714                 2.0684                 1.2961
 Frc consts  --      5.1428                 1.6341                 1.0718
 IR Inten    --     71.8330                33.7863                 4.1346

                     28                     29                     30
                      A                      A                      A
 Frequencies --   1221.5606              1233.9484              1257.9994
 Red. masses --      1.4318                 1.2158                 1.5899
 Frc consts  --      1.2588                 1.0907                 1.4824
 IR Inten    --      7.9024                25.3627                 9.6134

                     31                     32                     33
                      A                      A                      A
 Frequencies --   1284.1740              1318.3647              1357.8690
 Red. masses --      1.3903                 1.2616                 1.2649
 Frc consts  --      1.3509                 1.2919                 1.3741
 IR Inten    --     11.3207                13.2545                 2.2974

                     34                     35                     36
                      A                      A                      A
 Frequencies --   1399.6380              1472.0936              1476.0243
 Red. masses --      1.3359                 1.0997                 1.1260
 Frc consts  --      1.5419                 1.4041                 1.4453
 IR Inten    --      4.7644                 2.4703                 0.7795

                     37                     38                     39
                      A                      A                      A
 Frequencies --   1487.9506              1493.1015              1510.6741
 Red. masses --      1.0531                 1.0850                 1.0531
 Frc consts  --      1.3737                 1.4251                 1.4160
 IR Inten    --      2.2780                 2.7747                 7.3663

                     40                     41                     42
                      A                      A                      A
 Frequencies --   1517.7420              2227.3673              2968.9423
 Red. masses --      1.1029                 5.9187                 1.0714
 Frc consts  --      1.4969                17.3007                 5.5645
 IR Inten    --      2.0883                 1.0930                61.8331

                     43                     44                     45
                      A                      A                      A
 Frequencies --   2993.8978              2997.5003              3054.8904
 Red. masses --      1.0397                 1.0684                 1.0981
 Frc consts  --      5.4906                 5.6560                 6.0379
 IR Inten    --     58.1982                36.5599                38.6557

                     46                     47                     48
                      A                      A                      A
 Frequencies --   3077.2275              3102.1491              3121.9542
 Red. masses --      1.0610                 1.0907                 1.0989
 Frc consts  --      5.9194                 6.1842                 6.3105
 IR Inten    --     12.0830                31.0344                23.0751

                     49                     50                     51
                      A                      A                      A
 Frequencies --   3127.3638              3135.9347              3498.8904
 Red. masses --      1.0956                 1.1064                 1.1619
 Frc consts  --      6.3134                 6.4106                 8.3805
 IR Inten    --     12.3136                15.1099                66.6240

 - Thermochemistry -
 -------------------
 Temperature   298.150 Kelvin.  Pressure   1.00000 Atm.
 Atom     1 has atomic number  6 and mass  12.00000

 Molecular mass:   126.06808 amu.
 Principal axes and moments of inertia in atomic units:
                           1         2         3
     Eigenvalues --   769.610141288.167781565.06583
           X            0.99919   0.03943   0.00846
           Y           -0.03906   0.99844  -0.03982
           Z           -0.01001   0.03946   0.99917
 This molecule is an asymmetric top.
 Rotational symmetry number  1.
 Warning -- assumption of classical behavior for rotation
           may cause significant error
 Rotational temperatures (Kelvin)      0.11254     0.06724     0.05534
 Rotational constants (GHZ):           2.34501     1.40101     1.15314
 Zero-point vibrational energy     413937.9 (Joules/Mol)
                                   98.93353 (Kcal/Mol)
 Warning -- explicit consideration of  11 degrees of freedom as
           vibrations may cause significant error
 Vibrational temperatures:     48.72   175.49   233.47   240.00   290.15
          (Kelvin)            359.69   435.78   565.24   617.52   701.10
                              783.50   900.68   902.58   917.74   965.21
                             1088.91  1229.17  1290.06  1383.85  1401.70
                             1446.01  1518.32  1588.46  1607.99  1645.73
                             1666.07  1704.58  1757.55  1775.37  1809.98
                             1847.64  1896.83  1953.67  2013.76  2118.01
                             2123.67  2140.83  2148.24  2173.52  2183.69
                             3204.68  4271.64  4307.55  4312.73  4395.30
                             4427.44  4463.30  4491.79  4499.57  4511.90
                             5034.12

 Zero-point correction=                           0.157661 (Hartree/Particle)
 Thermal correction to Energy=                    0.166915
 Thermal correction to Enthalpy=                  0.167859
 Thermal correction to Gibbs Free Energy=         0.123076
 Sum of electronic and zero-point Energies=           -422.978348
 Sum of electronic and thermal Energies=              -422.969094
 Sum of electronic and thermal Enthalpies=            -422.968150
 Sum of electronic and thermal Free Energies=         -423.012932

                     E (Thermal)             CV                S
                      KCal/Mol        Cal/Mol-Kelvin    Cal/Mol-Kelvin
 Total                  104.741             34.113             94.253
 Electronic               0.000              0.000              0.000
 Translational            0.889              2.981             40.409
 Rotational               0.889              2.981             28.830
 Vibrational            102.963             28.152             25.014
 Vibration     1          0.594              1.983              5.589
 Vibration     2          0.609              1.931              3.069
 Vibration     3          0.622              1.889              2.523
 Vibration     4          0.624              1.883              2.471
 Vibration     5          0.639              1.838              2.118
 Vibration     6          0.663              1.763              1.731
 Vibration     7          0.694              1.668              1.401
 Vibration     8          0.760              1.485              0.989
 Vibration     9          0.791              1.407              0.861
 Vibration    10          0.843              1.278              0.691
 Vibration    11          0.900              1.152              0.556

 Normal termination of Gaussian 09 at Tue Jan 28 09:50:43 2020.
