 Gaussian 09, Revision D.01,
 Gaussian 09:  ES64L-G09RevD.01 24-Apr-2013

 -----------------------------
 # b3lyp 6-31G(2df,p) opt Freq
 -----------------------------

 -----
 titel
 -----
 Symbolic Z-matrix:
 Charge =  0 Multiplicity = 1

 SCF Done:  E(RB3LYP) =  -423.099855816     A.U. after   12 cycles
 Optimization completed.
    -- Stationary point found.
 Normal termination of Gaussian 09 at Tue Jan 28 08:23:43 2020.

 ----------------------------------------------------------------------
 #N Geom=AllCheck Guess=TCheck SCRF=Check GenChk RB3LYP/6-31G(2df,p) Fr
 eq
 ----------------------------------------------------------------------

 Structure from the checkpoint file:  "/scratch/puck/g09_8edab95e-dbdc-4670-9249-33e537dc3f36/Gau-81359.chk"
 -----
 titel
 -----
 Charge =  0 Multiplicity = 1

                         Standard orientation:
 ---------------------------------------------------------------------
 Center     Atomic      Atomic             Coordinates (Angstroms)
 Number     Number       Type             X           Y           Z
 ---------------------------------------------------------------------
      1          6           0       -2.592826   -0.598297    0.148612
      2          8           0       -1.492569   -0.295174   -0.681087
      3          6           0       -0.389819    0.330720   -0.046301
      4          6           0       -0.681145    1.761440    0.373437
      5          6           0        0.351701   -0.606592    0.921840
      6          6           0        1.843965   -0.345110    0.642184
      7          8           0        1.944903    0.707396   -0.321907
      8          6           0        0.826180    0.068692   -0.992124
      9          6           0        1.091809   -1.280487   -0.231053
     10          1           0       -3.048673    0.300690    0.586447
     11          1           0       -3.336871   -1.090119   -0.483035
     12          1           0       -2.319905   -1.282999    0.964559
     13          1           0       -1.180226    2.300626   -0.438222
     14          1           0       -1.324526    1.801748    1.258245
     15          1           0        0.257331    2.266291    0.611719
     16          1           0        0.009797   -1.043791    1.851508
     17          1           0        2.639828   -0.480361    1.362572
     18          1           0        0.765460    0.258638   -2.061305
     19          1           0        1.219919   -2.310713   -0.528115
 ---------------------------------------------------------------------

 SCF Done:  E(RB3LYP) =  -423.099855816     A.U. after    1 cycles

 The electronic state is 1-A.
 Alpha  occ. eigenvalues --  -19.13877 -19.13859 -10.24259 -10.23993 -10.23950
 Alpha  occ. eigenvalues --  -10.22300 -10.19589 -10.19452 -10.16748  -1.06657
 Alpha  occ. eigenvalues --   -1.02893  -0.85558  -0.75627  -0.69640  -0.66973
 Alpha  occ. eigenvalues --   -0.62197  -0.55655  -0.53927  -0.53509  -0.48014
 Alpha  occ. eigenvalues --   -0.46592  -0.45776  -0.43393  -0.41692  -0.40140
 Alpha  occ. eigenvalues --   -0.38916  -0.38489  -0.37177  -0.33213  -0.30943
 Alpha  occ. eigenvalues --   -0.30335  -0.26696  -0.25515  -0.23104
 Alpha virt. eigenvalues --    0.07827   0.09608   0.10262   0.10866   0.12570
 Alpha virt. eigenvalues --    0.13712   0.14540   0.15405   0.16112   0.16653
 Alpha virt. eigenvalues --    0.17907   0.18371   0.19036   0.20352   0.21075

 Mulliken charges:
               1
     1  C   -0.248797
     2  O   -0.291978
     3  C    0.445560
     4  C   -0.473820
     5  C   -0.193314
     6  C    0.083234
     7  O   -0.293255
     8  C    0.006581
     9  C   -0.140069
    10  H    0.109026
    11  H    0.126858
    12  H    0.104788
    13  H    0.119310
    14  H    0.112520
    15  H    0.140093
    16  H    0.088995
    17  H    0.112347
    18  H    0.089672
    19  H    0.102250
 Sum of Mulliken charges =   0.00000

 Dipole moment (field-independent basis, Debye):
    X=             -0.9150    Y=             -1.1867    Z=              1.3124  Tot=              1.9919
 Quadrupole moment (field-independent basis, Debye-Ang):
   XX=            -53.1839   YY=            -52.8015   ZZ=            -51.3605
   XY=             -2.6802   XZ=              0.0651   YZ=             -0.8590

  Exact polarizability:  83.016  -1.631  70.859   0.539  -0.760  67.787
 Approx polarizability: 112.636   1.976 103.107   0.396  -0.888 108.110

                      1                      2                      3
                      A                      A                      A
 Frequencies --     71.3375               173.4875               195.3583
 Red. masses --      1.9664                 1.2326                 3.4188
 Frc consts  --      0.0059                 0.0219                 0.0769
 IR Inten    --      1.1921                 0.2782                 0.8095

                      4                      5                      6
                      A                      A                      A
 Frequencies --    205.4649               243.1694               302.9837
 Red. masses --      1.2116                 2.4706                 2.4730
 Frc consts  --      0.0301                 0.0861                 0.1338
 IR Inten    --      0.0299                 4.1850                 2.1142

                      7                      8                      9
                      A                      A                      A
 Frequencies --    383.2978               422.3216               565.9471
 Red. masses --      3.8691                 4.1349                 4.0686
 Frc consts  --      0.3349                 0.4345                 0.7678
 IR Inten    --      4.3495                 2.3287                 2.2549

                     10                     11                     12
                      A                      A                      A
 Frequencies --    578.0181               635.7683               779.1841
 Red. masses --      3.9729                 3.8510                 1.4624
 Frc consts  --      0.7821                 0.9171                 0.5231
 IR Inten    --      6.8012                 2.7063                 7.8541

                     13                     14                     15
                      A                      A                      A
 Frequencies --    783.7705               806.2730               822.0607
 Red. masses --      2.2627                 3.1407                 1.7592
 Frc consts  --      0.8190                 1.2029                 0.7004
 IR Inten    --     15.6819                 6.6218                 0.7176

                     16                     17                     18
                      A                      A                      A
 Frequencies --    867.5487               893.3717               923.1092
 Red. masses --      3.1314                 1.8498                 1.8705
 Frc consts  --      1.3886                 0.8698                 0.9391
 IR Inten    --      5.0788                13.9709                14.5521

                     19                     20                     21
                      A                      A                      A
 Frequencies --    940.2683               979.1078              1028.5232
 Red. masses --      2.5274                 3.1519                 1.5148
 Frc consts  --      1.3165                 1.7803                 0.9441
 IR Inten    --     36.6528                38.2464                 5.4779

                     22                     23                     24
                      A                      A                      A
 Frequencies --   1034.4401              1051.8725              1071.0853
 Red. masses --      2.7702                 1.6894                 2.9401
 Frc consts  --      1.7465                 1.1013                 1.9873
 IR Inten    --      5.9721                 3.3360                 0.2005

                     25                     26                     27
                      A                      A                      A
 Frequencies --   1098.4163              1144.5719              1153.4199
 Red. masses --      3.9674                 2.1434                 1.4292
 Frc consts  --      2.8203                 1.6544                 1.1203
 IR Inten    --     33.9677                52.6034                 2.5427

                     28                     29                     30
                      A                      A                      A
 Frequencies --   1181.5559              1184.7148              1194.8714
 Red. masses --      1.3480                 2.2614                 1.3625
 Frc consts  --      1.1088                 1.8700                 1.1462
 IR Inten    --      3.8095                39.2817                 0.8860

                     31                     32                     33
                      A                      A                      A
 Frequencies --   1208.7290              1229.4866              1250.8191
 Red. masses --      3.1354                 1.9395                 2.1543
 Frc consts  --      2.6990                 1.7274                 1.9858
 IR Inten    --    105.3236                19.4755                 6.7697

                     34                     35                     36
                      A                      A                      A
 Frequencies --   1331.0130              1368.9154              1395.6511
 Red. masses --      2.2219                 2.6542                 1.3185
 Frc consts  --      2.3192                 2.9304                 1.5132
 IR Inten    --     21.9540                14.4024                20.1090

                     37                     38                     39
                      A                      A                      A
 Frequencies --   1475.3086              1487.7887              1489.8231
 Red. masses --      1.1092                 1.0622                 1.0574
 Frc consts  --      1.4224                 1.3853                 1.3828
 IR Inten    --      0.7505                 2.1786                 2.8041

                     40                     41                     42
                      A                      A                      A
 Frequencies --   1501.5592              1508.7660              2990.3216
 Red. masses --      1.0658                 1.0519                 1.0355
 Frc consts  --      1.4158                 1.4108                 5.4557
 IR Inten    --      4.6471                 8.5224                49.7204

                     43                     44                     45
                      A                      A                      A
 Frequencies --   3037.1021              3043.8249              3104.1318
 Red. masses --      1.0621                 1.0755                 1.1007
 Frc consts  --      5.7719                 5.8706                 6.2489
 IR Inten    --      4.9601                66.8930                16.4040

                     46                     47                     48
                      A                      A                      A
 Frequencies --   3111.8517              3135.5951              3153.6935
 Red. masses --      1.0976                 1.0994                 1.0926
 Frc consts  --      6.2624                 6.3686                 6.4026
 IR Inten    --     30.3650                 7.6327                23.0258

                     49                     50                     51
                      A                      A                      A
 Frequencies --   3193.7766              3206.9769              3228.4276
 Red. masses --      1.0912                 1.0912                 1.1041
 Frc consts  --      6.5577                 6.6119                 6.7804
 IR Inten    --      9.4154                16.0101                 9.5907

 - Thermochemistry -
 -------------------
 Temperature   298.150 Kelvin.  Pressure   1.00000 Atm.
 Atom     1 has atomic number  6 and mass  12.00000

 Molecular mass:   126.06808 amu.
 Principal axes and moments of inertia in atomic units:
                           1         2         3
     Eigenvalues --   547.798811211.354771386.91938
           X            0.99985  -0.01461  -0.00921
           Y            0.01466   0.99988   0.00511
           Z            0.00913  -0.00525   0.99994
 This molecule is an asymmetric top.
 Rotational symmetry number  1.
 Warning -- assumption of classical behavior for rotation
           may cause significant error
 Rotational temperatures (Kelvin)      0.15811     0.07150     0.06245
 Rotational constants (GHZ):           3.29453     1.48985     1.30126
 Zero-point vibrational energy     413721.8 (Joules/Mol)
                                   98.88188 (Kcal/Mol)
 Warning -- explicit consideration of  10 degrees of freedom as
           vibrations may cause significant error
 Vibrational temperatures:    102.64   249.61   281.08   295.62   349.87
          (Kelvin)            435.93   551.48   607.63   814.27   831.64
                              914.73  1121.07  1127.67  1160.05  1182.76
                             1248.21  1285.36  1328.15  1352.83  1408.72
                             1479.81  1488.33  1513.41  1541.05  1580.37
                             1646.78  1659.51  1699.99  1704.54  1719.15
                             1739.09  1768.95  1799.65  1915.03  1969.56
                             2008.03  2122.64  2140.59  2143.52  2160.41
                             2170.77  4302.40  4369.71  4379.38  4466.15
                             4477.25  4511.42  4537.46  4595.13  4614.12
                             4644.98

 Zero-point correction=                           0.157578 (Hartree/Particle)
 Thermal correction to Energy=                    0.165853
 Thermal correction to Enthalpy=                  0.166797
 Thermal correction to Gibbs Free Energy=         0.124841
 Sum of electronic and zero-point Energies=           -422.942278
 Sum of electronic and thermal Energies=              -422.934003
 Sum of electronic and thermal Enthalpies=            -422.933059
 Sum of electronic and thermal Free Energies=         -422.975015

                     E (Thermal)             CV                S
                      KCal/Mol        Cal/Mol-Kelvin    Cal/Mol-Kelvin
 Total                  104.074             32.009             88.305
 Electronic               0.000              0.000              0.000
 Translational            0.889              2.981             40.409
 Rotational               0.889              2.981             28.311
 Vibrational            102.297             26.048             19.585
 Vibration     1          0.598              1.968              4.116
 Vibration     2          0.627              1.875              2.397
 Vibration     3          0.636              1.846              2.176
 Vibration     4          0.640              1.832              2.084
 Vibration     5          0.659              1.774              1.780
 Vibration     6          0.694              1.668              1.400
 Vibration     7          0.752              1.506              1.026
 Vibration     8          0.785              1.422              0.884
 Vibration     9          0.922              1.105              0.512
 Vibration    10          0.935              1.079              0.489

 Optimization completed.
    -- Stationary point found.
 Normal termination of Gaussian 09 at Tue Jan 28 09:14:08 2020.
