 Gaussian 09, Revision D.01,
 Gaussian 09:  ES64L-G09RevD.01 24-Apr-2013

 -----------------------------
 # b3lyp 6-31G(2df,p) opt Freq
 -----------------------------

 -----
 titel
 -----
 Symbolic Z-matrix:
 Charge =  0 Multiplicity = 1

 SCF Done:  E(RB3LYP) =  -423.116985508     A.U. after   13 cycles
 Optimization completed.
    -- Stationary point found.
 Normal termination of Gaussian 09 at Mon Jan 27 11:14:37 2020.

 ----------------------------------------------------------------------
 #N Geom=AllCheck Guess=TCheck SCRF=Check GenChk RB3LYP/6-31G(2df,p) Fr
 eq
 ----------------------------------------------------------------------

 Structure from the checkpoint file:  "/scratch/puck/g09_6450b46a-a3ff-4857-8afa-437cc9525ad7/Gau-68666.chk"
 -----
 titel
 -----
 Charge =  0 Multiplicity = 1

                         Standard orientation:
 ---------------------------------------------------------------------
 Center     Atomic      Atomic             Coordinates (Angstroms)
 Number     Number       Type             X           Y           Z
 ---------------------------------------------------------------------
      1          6           0        1.238439    1.462179   -0.194597
      2          6           0        1.333083    0.436940    0.922862
      3          6           0        2.264988   -0.685614    0.482890
      4          8           0        1.532772   -0.864984   -0.763795
      5          6           0        0.583029    0.129011   -0.354869
      6          6           0       -0.849962   -0.118208   -0.693005
      7          6           0       -1.630551   -1.174602    0.124721
      8          6           0       -2.534845    0.010201    0.515220
      9          8           0       -1.699879    0.945673   -0.207068
     10          1           0        0.554595    2.278526    0.010070
     11          1           0        2.109894    1.708478   -0.795939
     12          1           0        0.979698    0.622006    1.928123
     13          1           0        3.318582   -0.435578    0.309814
     14          1           0        2.195768   -1.589360    1.098605
     15          1           0       -0.941982   -0.243288   -1.782091
     16          1           0       -2.103192   -1.969040   -0.453067
     17          1           0       -1.059361   -1.610411    0.945431
     18          1           0       -3.551370   -0.021549    0.104660
     19          1           0       -2.590871    0.255262    1.581965
 ---------------------------------------------------------------------

 SCF Done:  E(RB3LYP) =  -423.116985508     A.U. after    1 cycles

 The electronic state is 1-A.
 Alpha  occ. eigenvalues --  -19.13690 -19.13639 -10.23950 -10.23875 -10.23480
 Alpha  occ. eigenvalues --  -10.23353 -10.19420 -10.19004 -10.18428  -1.05189
 Alpha  occ. eigenvalues --   -1.03782  -0.83040  -0.75000  -0.72433  -0.67739
 Alpha  occ. eigenvalues --   -0.59952  -0.57598  -0.52468  -0.52030  -0.49379
 Alpha  occ. eigenvalues --   -0.47836  -0.45928  -0.44588  -0.43303  -0.40449
 Alpha  occ. eigenvalues --   -0.38499  -0.37517  -0.35492  -0.32799  -0.32073
 Alpha  occ. eigenvalues --   -0.30754  -0.27827  -0.24864  -0.23192
 Alpha virt. eigenvalues --    0.06716   0.09155   0.09328   0.10835   0.11956
 Alpha virt. eigenvalues --    0.12717   0.14068   0.14194   0.14624   0.16780
 Alpha virt. eigenvalues --    0.17409   0.17739   0.20004   0.20598   0.21942

 Mulliken charges:
               1
     1  C   -0.335220
     2  C   -0.193045
     3  C   -0.086927
     4  O   -0.333283
     5  C    0.469858
     6  C    0.036842
     7  C   -0.291403
     8  C   -0.059088
     9  O   -0.292360
    10  H    0.135601
    11  H    0.109987
    12  H    0.101643
    13  H    0.105448
    14  H    0.107427
    15  H    0.085971
    16  H    0.114461
    17  H    0.113538
    18  H    0.104685
    19  H    0.105864
 Sum of Mulliken charges =   0.00000

 Dipole moment (field-independent basis, Debye):
    X=             -0.4474    Y=             -0.7454    Z=              1.5827  Tot=              1.8058
 Quadrupole moment (field-independent basis, Debye-Ang):
   XX=            -50.1779   YY=            -54.9333   ZZ=            -52.3848
   XY=              3.5430   XZ=              1.4005   YZ=             -1.2187

  Exact polarizability:  87.045   0.495  70.997   0.485  -1.455  66.391
 Approx polarizability: 109.791  -0.890 106.528   1.638  -0.076 104.914

                      1                      2                      3
                      A                      A                      A
 Frequencies --     52.6882                85.3346               146.5059
 Red. masses --      2.6507                 3.0877                 2.8518
 Frc consts  --      0.0043                 0.0132                 0.0361
 IR Inten    --      0.4377                 2.2210                 1.0656

                      4                      5                      6
                      A                      A                      A
 Frequencies --    187.4018               301.4524               373.4836
 Red. masses --      4.0119                 2.8277                 2.9510
 Frc consts  --      0.0830                 0.1514                 0.2425
 IR Inten    --      6.3779                 4.3154                 0.6159

                      7                      8                      9
                      A                      A                      A
 Frequencies --    441.4125               510.9836               617.7190
 Red. masses --      3.0698                 3.0223                 2.6098
 Frc consts  --      0.3524                 0.4649                 0.5867
 IR Inten    --      0.6677                 1.6168                 3.2996

                     10                     11                     12
                      A                      A                      A
 Frequencies --    752.7324               778.4389               825.6897
 Red. masses --      2.7230                 1.3926                 2.3057
 Frc consts  --      0.9090                 0.4972                 0.9261
 IR Inten    --      1.6735                 0.6355                 3.6639

                     13                     14                     15
                      A                      A                      A
 Frequencies --    853.7789               872.6283               930.6314
 Red. masses --      2.0975                 2.3264                 1.8483
 Frc consts  --      0.9008                 1.0438                 0.9432
 IR Inten    --      1.0684                26.4979                19.8033

                     16                     17                     18
                      A                      A                      A
 Frequencies --    950.9490               959.4216               978.2087
 Red. masses --      2.9403                 2.2965                 2.4679
 Frc consts  --      1.5666                 1.2455                 1.3914
 IR Inten    --     13.3894                10.5743                46.0163

                     19                     20                     21
                      A                      A                      A
 Frequencies --    993.0033               997.7589              1018.4381
 Red. masses --      3.3010                 1.6023                 2.3265
 Frc consts  --      1.9178                 0.9398                 1.4218
 IR Inten    --     10.1326                 8.9267                37.6645

                     22                     23                     24
                      A                      A                      A
 Frequencies --   1035.5435              1064.8493              1071.8211
 Red. masses --      7.3866                 2.1912                 1.5699
 Frc consts  --      4.6669                 1.4639                 1.0626
 IR Inten    --     87.9593                17.0104                 6.8150

                     25                     26                     27
                      A                      A                      A
 Frequencies --   1105.1307              1131.7168              1152.1820
 Red. masses --      2.1835                 1.8166                 1.8251
 Frc consts  --      1.5712                 1.3709                 1.4275
 IR Inten    --      1.6405                 7.2140                27.9256

                     28                     29                     30
                      A                      A                      A
 Frequencies --   1167.1099              1177.5007              1215.6470
 Red. masses --      1.1742                 1.4322                 1.2325
 Frc consts  --      0.9424                 1.1700                 1.0731
 IR Inten    --      0.5229                10.1403                 0.2227

                     31                     32                     33
                      A                      A                      A
 Frequencies --   1253.8964              1266.7048              1278.6271
 Red. masses --      1.4970                 1.2688                 1.8371
 Frc consts  --      1.3867                 1.1995                 1.7696
 IR Inten    --      6.2382                 0.2562                 1.0743

                     34                     35                     36
                      A                      A                      A
 Frequencies --   1325.0166              1356.3806              1373.4231
 Red. masses --      1.4390                 1.4112                 1.4369
 Frc consts  --      1.4885                 1.5297                 1.5969
 IR Inten    --     13.8502                 1.5798                 7.0160

                     37                     38                     39
                      A                      A                      A
 Frequencies --   1418.9587              1484.9851              1488.8116
 Red. masses --      1.8237                 1.6148                 1.2394
 Frc consts  --      2.1634                 2.0981                 1.6187
 IR Inten    --      6.2466                 1.4814                 9.0318

                     40                     41                     42
                      A                      A                      A
 Frequencies --   1517.6041              1530.7159              2993.9313
 Red. masses --      1.1665                 1.1122                 1.0830
 Frc consts  --      1.5829                 1.5354                 5.7198
 IR Inten    --      0.5796                 0.7634                56.1310

                     43                     44                     45
                      A                      A                      A
 Frequencies --   3021.1409              3022.6466              3062.1707
 Red. masses --      1.0563                 1.0550                 1.1108
 Frc consts  --      5.6802                 5.6793                 6.1367
 IR Inten    --    118.9704                37.3491                33.0033

                     46                     47                     48
                      A                      A                      A
 Frequencies --   3071.2241              3087.6146              3114.7504
 Red. masses --      1.1114                 1.0594                 1.0562
 Frc consts  --      6.1766                 5.9505                 6.0375
 IR Inten    --     35.8197                21.7742                13.4803

                     49                     50                     51
                      A                      A                      A
 Frequencies --   3144.7762              3202.7180              3221.8802
 Red. masses --      1.1092                 1.0952                 1.1125
 Frc consts  --      6.4630                 6.6187                 6.8040
 IR Inten    --     22.5286                 7.1480                 5.1338

 - Thermochemistry -
 -------------------
 Temperature   298.150 Kelvin.  Pressure   1.00000 Atm.
 Atom     1 has atomic number  6 and mass  12.00000

 Molecular mass:   126.06808 amu.
 Principal axes and moments of inertia in atomic units:
                           1         2         3
     Eigenvalues --   504.208181432.703361604.52596
           X            0.99973   0.02310   0.00180
           Y           -0.02302   0.99903  -0.03753
           Z           -0.00267   0.03748   0.99929
 This molecule is an asymmetric top.
 Rotational symmetry number  1.
 Warning -- assumption of classical behavior for rotation
           may cause significant error
 Rotational temperatures (Kelvin)      0.17178     0.06045     0.05398
 Rotational constants (GHZ):           3.57936     1.25968     1.12478
 Zero-point vibrational energy     418622.0 (Joules/Mol)
                                  100.05307 (Kcal/Mol)
 Warning -- explicit consideration of   9 degrees of freedom as
           vibrations may cause significant error
 Vibrational temperatures:     75.81   122.78   210.79   269.63   433.72
          (Kelvin)            537.36   635.09   735.19   888.76  1083.01
                             1120.00  1187.98  1228.40  1255.52  1338.97
                             1368.20  1380.39  1407.42  1428.71  1435.55
                             1465.30  1489.91  1532.08  1542.11  1590.03
                             1628.29  1657.73  1679.21  1694.16  1749.04
                             1804.07  1822.50  1839.66  1906.40  1951.53
                             1976.05  2041.56  2136.56  2142.07  2183.49
                             2202.36  4307.59  4346.74  4348.91  4405.78
                             4418.80  4442.38  4481.43  4524.63  4607.99
                             4635.56

 Zero-point correction=                           0.159445 (Hartree/Particle)
 Thermal correction to Energy=                    0.167451
 Thermal correction to Enthalpy=                  0.168395
 Thermal correction to Gibbs Free Energy=         0.126012
 Sum of electronic and zero-point Energies=           -422.957541
 Sum of electronic and thermal Energies=              -422.949535
 Sum of electronic and thermal Enthalpies=            -422.948590
 Sum of electronic and thermal Free Energies=         -422.990973

                     E (Thermal)             CV                S
                      KCal/Mol        Cal/Mol-Kelvin    Cal/Mol-Kelvin
 Total                  105.077             30.065             89.202
 Electronic               0.000              0.000              0.000
 Translational            0.889              2.981             40.409
 Rotational               0.889              2.981             28.540
 Vibrational            103.300             24.103             20.253
 Vibration     1          0.596              1.977              4.714
 Vibration     2          0.601              1.959              3.764
 Vibration     3          0.617              1.906              2.717
 Vibration     4          0.632              1.857              2.253
 Vibration     5          0.693              1.671              1.409
 Vibration     6          0.745              1.527              1.065
 Vibration     7          0.801              1.380              0.822
 Vibration     8          0.866              1.226              0.631
 Vibration     9          0.977              0.994              0.420

 Optimization completed.
    -- Stationary point found.
 Normal termination of Gaussian 09 at Mon Jan 27 11:57:59 2020.
