 Gaussian 09, Revision D.01,
 Gaussian 09:  ES64L-G09RevD.01 24-Apr-2013

 -----------------------------
 # b3lyp 6-31G(2df,p) opt Freq
 -----------------------------

 -----
 titel
 -----
 Symbolic Z-matrix:
 Charge =  0 Multiplicity = 1

 SCF Done:  E(RB3LYP) =  -423.215774280     A.U. after   14 cycles
 Optimization completed.
    -- Stationary point found.
 Normal termination of Gaussian 09 at Tue Jan 28 08:11:43 2020.

 ----------------------------------------------------------------------
 #N Geom=AllCheck Guess=TCheck SCRF=Check GenChk RB3LYP/6-31G(2df,p) Fr
 eq
 ----------------------------------------------------------------------

 Structure from the checkpoint file:  "/scratch/puck/g09_355aac8f-bde5-4e84-94bd-71c52a6a815d/Gau-14487.chk"
 -----
 titel
 -----
 Charge =  0 Multiplicity = 1

                         Standard orientation:
 ---------------------------------------------------------------------
 Center     Atomic      Atomic             Coordinates (Angstroms)
 Number     Number       Type             X           Y           Z
 ---------------------------------------------------------------------
      1          6           0        2.403466   -1.532793    0.000825
      2          6           0        1.335776   -0.502500    0.330072
      3          6           0       -0.069572   -0.920292   -0.117091
      4          6           0       -1.015470    0.248468   -0.023512
      5          6           0       -2.467171    0.004327    0.011142
      6          8           0       -2.977173   -1.092834   -0.022881
      7          6           0       -0.554386    1.503530    0.057343
      8          6           0        0.910738    1.814627    0.026559
      9          8           0        1.714106    0.711977   -0.322518
     10          1           0        2.171873   -2.489918    0.477438
     11          1           0        2.459218   -1.687569   -1.081083
     12          1           0        3.382651   -1.195280    0.350190
     13          1           0        1.316979   -0.327662    1.419873
     14          1           0       -0.036952   -1.297107   -1.147594
     15          1           0       -0.446144   -1.744764    0.497670
     16          1           0       -3.086856    0.927687    0.075474
     17          1           0       -1.241025    2.341334    0.163954
     18          1           0        1.116486    2.598048   -0.713891
     19          1           0        1.208025    2.229875    1.009136
 ---------------------------------------------------------------------

 SCF Done:  E(RB3LYP) =  -423.215774280     A.U. after    1 cycles

 The electronic state is 1-A.
 Alpha  occ. eigenvalues --  -19.14612 -19.13350 -10.26555 -10.24661 -10.23963
 Alpha  occ. eigenvalues --  -10.21249 -10.20210 -10.18905 -10.17844  -1.04329
 Alpha  occ. eigenvalues --   -1.03892  -0.82661  -0.79412  -0.70851  -0.68408
 Alpha  occ. eigenvalues --   -0.62780  -0.58189  -0.53442  -0.50808  -0.49106
 Alpha  occ. eigenvalues --   -0.46726  -0.45270  -0.43411  -0.41905  -0.41680
 Alpha  occ. eigenvalues --   -0.39653  -0.38598  -0.37978  -0.35884  -0.35650
 Alpha  occ. eigenvalues --   -0.31616  -0.27007  -0.26233  -0.25101
 Alpha virt. eigenvalues --   -0.05481   0.05988   0.08680   0.10859   0.11493
 Alpha virt. eigenvalues --    0.12654   0.13625   0.15259   0.15408   0.16192
 Alpha virt. eigenvalues --    0.17471   0.17914   0.19120   0.21009   0.22507

 Mulliken charges:
               1
     1  C   -0.401361
     2  C    0.119440
     3  C   -0.305291
     4  C    0.205380
     5  C    0.090150
     6  O   -0.273770
     7  C   -0.145022
     8  C   -0.124042
     9  O   -0.260115
    10  H    0.119288
    11  H    0.126961
    12  H    0.123463
    13  H    0.068071
    14  H    0.121589
    15  H    0.125961
    16  H    0.066301
    17  H    0.106462
    18  H    0.128705
    19  H    0.107829
 Sum of Mulliken charges =   0.00000

 Dipole moment (field-independent basis, Debye):
    X=              1.4748    Y=              2.0739    Z=              0.7227  Tot=              2.6455
 Quadrupole moment (field-independent basis, Debye-Ang):
   XX=            -62.5868   YY=            -50.1223   ZZ=            -52.8812
   XY=             -7.4057   XZ=              1.1342   YZ=              0.2501

  Exact polarizability:  93.896   6.258  94.360   0.718   1.809  54.926
 Approx polarizability: 126.289  27.168 154.507   0.239   3.450  87.432

                      1                      2                      3
                      A                      A                      A
 Frequencies --     93.9409               135.5047               176.3154
 Red. masses --      3.7056                 2.6549                 4.8849
 Frc consts  --      0.0193                 0.0287                 0.0895
 IR Inten    --      3.6022                 3.3012                 8.1943

                      4                      5                      6
                      A                      A                      A
 Frequencies --    197.0732               225.4228               310.9649
 Red. masses --      1.9127                 1.3165                 1.9874
 Frc consts  --      0.0438                 0.0394                 0.1132
 IR Inten    --      0.5889                 0.5149                 6.6651

                      7                      8                      9
                      A                      A                      A
 Frequencies --    316.7990               403.2343               441.0651
 Red. masses --      2.9736                 4.3944                 2.4095
 Frc consts  --      0.1758                 0.4210                 0.2762
 IR Inten    --      1.9202                 3.3672                 2.4000

                     10                     11                     12
                      A                      A                      A
 Frequencies --    472.7935               502.9828               614.5927
 Red. masses --      2.4752                 3.7442                 6.2167
 Frc consts  --      0.3260                 0.5581                 1.3835
 IR Inten    --      2.1399                 3.7020                 8.5970

                     13                     14                     15
                      A                      A                      A
 Frequencies --    732.9647               812.3172               835.1573
 Red. masses --      3.7148                 1.3986                 2.3506
 Frc consts  --      1.1759                 0.5438                 0.9660
 IR Inten    --      8.5774                 8.4962                 3.0294

                     16                     17                     18
                      A                      A                      A
 Frequencies --    876.5796               922.4113               933.7089
 Red. masses --      2.6453                 1.6397                 1.8876
 Frc consts  --      1.1976                 0.8220                 0.9696
 IR Inten    --      9.7235                 6.1527                 3.0486

                     19                     20                     21
                      A                      A                      A
 Frequencies --    986.9710              1027.4976              1039.4182
 Red. masses --      2.4035                 1.8639                 1.6791
 Frc consts  --      1.3794                 1.1594                 1.0688
 IR Inten    --      3.0835                 8.0055                 1.5149

                     22                     23                     24
                      A                      A                      A
 Frequencies --   1067.1378              1122.3848              1155.2028
 Red. masses --      2.2528                 2.2200                 2.3972
 Frc consts  --      1.5115                 1.6478                 1.8848
 IR Inten    --     13.8289                17.4852                27.3139

                     25                     26                     27
                      A                      A                      A
 Frequencies --   1161.1477              1194.2823              1234.3684
 Red. masses --      2.9916                 2.0541                 1.3250
 Frc consts  --      2.3765                 1.7262                 1.1895
 IR Inten    --     68.9358                75.6018                10.6560

                     28                     29                     30
                      A                      A                      A
 Frequencies --   1268.4769              1293.7356              1364.1741
 Red. masses --      1.1869                 1.3415                 1.5342
 Frc consts  --      1.1252                 1.3229                 1.6822
 IR Inten    --     10.8353                 1.7018                22.7412

                     31                     32                     33
                      A                      A                      A
 Frequencies --   1378.1233              1394.2792              1407.1861
 Red. masses --      1.3804                 1.4433                 1.5883
 Frc consts  --      1.5446                 1.6532                 1.8531
 IR Inten    --     10.7757                 5.0376                 1.5476

                     34                     35                     36
                      A                      A                      A
 Frequencies --   1413.0906              1425.7405              1467.0093
 Red. masses --      1.4721                 1.2658                 1.0895
 Frc consts  --      1.7319                 1.5159                 1.3814
 IR Inten    --     12.4023                 6.4675                 2.6941

                     37                     38                     39
                      A                      A                      A
 Frequencies --   1474.9026              1483.2968              1499.5163
 Red. masses --      1.0915                 1.0493                 1.0560
 Frc consts  --      1.3989                 1.3602                 1.3990
 IR Inten    --      7.2884                 3.8169                 2.1167

                     40                     41                     42
                      A                      A                      A
 Frequencies --   1707.3691              1789.8395              2871.5417
 Red. masses --      6.9647                10.5593                 1.0828
 Frc consts  --     11.9621                19.9302                 5.2603
 IR Inten    --     35.5980               234.5880               120.5832

                     43                     44                     45
                      A                      A                      A
 Frequencies --   2921.4579              2952.0378              3030.1335
 Red. masses --      1.0729                 1.0823                 1.0647
 Frc consts  --      5.3950                 5.5570                 5.7597
 IR Inten    --     46.8206                46.5162                12.3144

                     46                     47                     48
                      A                      A                      A
 Frequencies --   3042.8872              3043.9690              3079.5691
 Red. masses --      1.0826                 1.0380                 1.0956
 Frc consts  --      5.9061                 5.6666                 6.1220
 IR Inten    --     24.9327                14.8705                 8.2166

                     49                     50                     51
                      A                      A                      A
 Frequencies --   3117.7612              3123.7925              3151.3908
 Red. masses --      1.1016                 1.1022                 1.0895
 Frc consts  --      6.3091                 6.3366                 6.3750
 IR Inten    --     23.0714                17.8469                11.8591

 - Thermochemistry -
 -------------------
 Temperature   298.150 Kelvin.  Pressure   1.00000 Atm.
 Atom     1 has atomic number  6 and mass  12.00000

 Molecular mass:   126.06808 amu.
 Principal axes and moments of inertia in atomic units:
                           1         2         3
     Eigenvalues --   638.504021525.106632092.96333
           X            0.99856  -0.05364   0.00292
           Y            0.05361   0.99854   0.00731
           Z           -0.00330  -0.00714   0.99997
 This molecule is an asymmetric top.
 Rotational symmetry number  1.
 Warning -- assumption of classical behavior for rotation
           may cause significant error
 Rotational temperatures (Kelvin)      0.13565     0.05679     0.04138
 Rotational constants (GHZ):           2.82652     1.18335     0.86229
 Zero-point vibrational energy     416859.8 (Joules/Mol)
                                   99.63189 (Kcal/Mol)
 Warning -- explicit consideration of  12 degrees of freedom as
           vibrations may cause significant error
 Vibrational temperatures:    135.16   194.96   253.68   283.54   324.33
          (Kelvin)            447.41   455.80   580.16   634.59   680.24
                              723.68   884.26  1054.57  1168.74  1201.60
                             1261.20  1327.14  1343.40  1420.03  1478.34
                             1495.49  1535.37  1614.86  1662.08  1670.63
                             1718.30  1775.98  1825.05  1861.39  1962.74
                             1982.81  2006.05  2024.62  2033.12  2051.32
                             2110.70  2122.05  2134.13  2157.47  2456.52
                             2575.18  4131.50  4203.32  4247.32  4359.68
                             4378.03  4379.59  4430.81  4485.76  4494.44
                             4534.14

 Zero-point correction=                           0.158774 (Hartree/Particle)
 Thermal correction to Energy=                    0.167431
 Thermal correction to Enthalpy=                  0.168375
 Thermal correction to Gibbs Free Energy=         0.125374
 Sum of electronic and zero-point Energies=           -423.057001
 Sum of electronic and thermal Energies=              -423.048344
 Sum of electronic and thermal Enthalpies=            -423.047399
 Sum of electronic and thermal Free Energies=         -423.090401

                     E (Thermal)             CV                S
                      KCal/Mol        Cal/Mol-Kelvin    Cal/Mol-Kelvin
 Total                  105.064             32.343             90.504
 Electronic               0.000              0.000              0.000
 Translational            0.889              2.981             40.409
 Rotational               0.889              2.981             29.101
 Vibrational            103.287             26.382             20.994
 Vibration     1          0.603              1.954              3.576
 Vibration     2          0.613              1.918              2.866
 Vibration     3          0.628              1.872              2.367
 Vibration     4          0.636              1.844              2.160
 Vibration     5          0.650              1.802              1.915
 Vibration     6          0.700              1.653              1.357
 Vibration     7          0.704              1.642              1.327
 Vibration     8          0.769              1.463              0.951
 Vibration     9          0.801              1.381              0.823
 Vibration    10          0.830              1.310              0.730
 Vibration    11          0.858              1.243              0.651
 Vibration    12          0.974              1.001              0.425

 Normal termination of Gaussian 09 at Tue Jan 28 08:56:16 2020.
