 Gaussian 09, Revision D.01,
 Gaussian 09:  ES64L-G09RevD.01 24-Apr-2013

 -----------------------------
 # b3lyp 6-31G(2df,p) opt Freq
 -----------------------------

 -----
 titel
 -----
 Symbolic Z-matrix:
 Charge =  0 Multiplicity = 1

 SCF Done:  E(RB3LYP) =  -423.171678626     A.U. after   14 cycles
 Optimization completed.
    -- Stationary point found.
 Normal termination of Gaussian 09 at Tue Jan 28 12:40:23 2020.

 ----------------------------------------------------------------------
 #N Geom=AllCheck Guess=TCheck SCRF=Check GenChk RB3LYP/6-31G(2df,p) Fr
 eq
 ----------------------------------------------------------------------

 Structure from the checkpoint file:  "/scratch/puck/g09_67d37c42-4d0a-4164-b605-0fe8a32a3b59/Gau-106690.chk"
 -----
 titel
 -----
 Charge =  0 Multiplicity = 1

                         Standard orientation:
 ---------------------------------------------------------------------
 Center     Atomic      Atomic             Coordinates (Angstroms)
 Number     Number       Type             X           Y           Z
 ---------------------------------------------------------------------
      1          8           0        2.477601   -1.239338   -0.109735
      2          6           0        1.114448   -1.324495    0.248351
      3          6           0        0.293940   -0.268503   -0.500746
      4          6           0        0.655230    1.161828   -0.080414
      5          8           0        1.713029    1.696883    0.119416
      6          6           0       -0.810422    1.552011    0.158352
      7          6           0       -1.155999    0.066398   -0.082408
      8          6           0       -2.424694   -0.485444   -0.655032
      9          6           0       -2.051492   -0.775477    0.781829
     10          1           0        2.750183   -0.324390    0.042691
     11          1           0        0.778781   -2.334379   -0.012185
     12          1           0        0.966129   -1.200083    1.333316
     13          1           0        0.414264   -0.417749   -1.580505
     14          1           0       -1.025367    1.975980    1.144034
     15          1           0       -1.192887    2.236314   -0.607566
     16          1           0       -3.242038    0.203905   -0.841512
     17          1           0       -2.352705   -1.295295   -1.374274
     18          1           0       -2.614001   -0.280348    1.566925
     19          1           0       -1.733465   -1.782222    1.032048
 ---------------------------------------------------------------------

 SCF Done:  E(RB3LYP) =  -423.171678626     A.U. after    1 cycles

 The electronic state is 1-A.
 Alpha  occ. eigenvalues --  -19.15041 -19.12917 -10.27910 -10.23408 -10.21409
 Alpha  occ. eigenvalues --  -10.20132 -10.19802 -10.19792 -10.19670  -1.05747
 Alpha  occ. eigenvalues --   -1.01270  -0.88864  -0.80891  -0.72528  -0.64119
 Alpha  occ. eigenvalues --   -0.61363  -0.56377  -0.53082  -0.51038  -0.49648
 Alpha  occ. eigenvalues --   -0.48784  -0.45753  -0.44524  -0.42264  -0.40286
 Alpha  occ. eigenvalues --   -0.40216  -0.37640  -0.37318  -0.36253  -0.32054
 Alpha  occ. eigenvalues --   -0.30162  -0.29301  -0.26369  -0.24899
 Alpha virt. eigenvalues --   -0.03146   0.07732   0.09396   0.10455   0.10673
 Alpha virt. eigenvalues --    0.11583   0.13337   0.14105   0.14586   0.16050
 Alpha virt. eigenvalues --    0.18255   0.18584   0.21424   0.22313   0.23076

 Mulliken charges:
               1
     1  O   -0.421985
     2  C   -0.073114
     3  C   -0.213045
     4  C    0.409444
     5  O   -0.316676
     6  C   -0.427206
     7  C    0.335529
     8  C   -0.323703
     9  C   -0.317800
    10  H    0.297344
    11  H    0.108692
    12  H    0.089414
    13  H    0.108993
    14  H    0.133336
    15  H    0.135123
    16  H    0.117122
    17  H    0.118810
    18  H    0.117805
    19  H    0.121917
 Sum of Mulliken charges =   0.00000

 Dipole moment (field-independent basis, Debye):
    X=             -3.3573    Y=              0.0336    Z=              0.0224  Tot=              3.3575
 Quadrupole moment (field-independent basis, Debye-Ang):
   XX=            -59.3971   YY=            -55.7610   ZZ=            -51.5160
   XY=             -0.7387   XZ=              0.4301   YZ=             -0.6107

  Exact polarizability:  87.457   1.565  77.036   0.012   1.123  63.677
 Approx polarizability: 121.491   5.621 110.865   0.434   2.721  98.694

                      1                      2                      3
                      A                      A                      A
 Frequencies --     53.6258               124.0921               143.5737
 Red. masses --      3.5891                 4.2925                 3.7320
 Frc consts  --      0.0061                 0.0389                 0.0453
 IR Inten    --      1.4022                 5.4706                 0.4792

                      4                      5                      6
                      A                      A                      A
 Frequencies --    204.4225               242.0672               308.6177
 Red. masses --      2.5229                 3.0734                 2.0498
 Frc consts  --      0.0621                 0.1061                 0.1150
 IR Inten    --      2.2355                 3.0368                 0.4456

                      7                      8                      9
                      A                      A                      A
 Frequencies --    372.2323               418.2353               469.5819
 Red. masses --      3.7603                 4.4898                 2.3789
 Frc consts  --      0.3070                 0.4627                 0.3091
 IR Inten    --      2.6205                 2.3687                 8.2616

                     10                     11                     12
                      A                      A                      A
 Frequencies --    496.5281               514.3891               580.0677
 Red. masses --      1.5826                 2.0751                 2.4426
 Frc consts  --      0.2299                 0.3235                 0.4842
 IR Inten    --     69.4956                43.9680                 3.8797

                     13                     14                     15
                      A                      A                      A
 Frequencies --    743.6637               782.4630               814.1004
 Red. masses --      2.5958                 1.1008                 2.1393
 Frc consts  --      0.8458                 0.3971                 0.8354
 IR Inten    --      0.4900                 0.2326                 1.1743

                     16                     17                     18
                      A                      A                      A
 Frequencies --    829.5065               890.3359               923.3830
 Red. masses --      2.7320                 1.9192                 1.3228
 Frc consts  --      1.1076                 0.8964                 0.6645
 IR Inten    --      1.1733                 5.9337                 2.9796

                     19                     20                     21
                      A                      A                      A
 Frequencies --    943.0564               986.4811              1026.8439
 Red. masses --      1.9374                 2.5678                 2.6457
 Frc consts  --      1.0152                 1.4723                 1.6436
 IR Inten    --      2.6794                 3.2783                42.5357

                     22                     23                     24
                      A                      A                      A
 Frequencies --   1056.9836              1076.8645              1081.3372
 Red. masses --      1.5147                 3.5761                 1.7036
 Frc consts  --      0.9970                 2.4433                 1.1736
 IR Inten    --      5.4056                65.6496                22.9708

                     25                     26                     27
                      A                      A                      A
 Frequencies --   1089.2710              1109.6840              1119.1264
 Red. masses --      2.2113                 1.5643                 2.7971
 Frc consts  --      1.5459                 1.1349                 2.0640
 IR Inten    --     50.2549                 2.8574                14.0130

                     28                     29                     30
                      A                      A                      A
 Frequencies --   1186.5590              1189.0921              1204.1929
 Red. masses --      1.3087                 1.3458                 1.3774
 Frc consts  --      1.0856                 1.1212                 1.1768
 IR Inten    --      2.1384                 2.6950                 5.8888

                     31                     32                     33
                      A                      A                      A
 Frequencies --   1226.7536              1247.2259              1313.6488
 Red. masses --      1.4197                 2.0967                 1.6889
 Frc consts  --      1.2588                 1.9216                 1.7171
 IR Inten    --      4.0712                 6.1003                28.4378

                     34                     35                     36
                      A                      A                      A
 Frequencies --   1368.7225              1383.2914              1438.8674
 Red. masses --      1.9031                 1.5265                 1.1327
 Frc consts  --      2.1006                 1.7210                 1.3817
 IR Inten    --      3.0569                 0.8998                 8.0740

                     37                     38                     39
                      A                      A                      A
 Frequencies --   1448.4487              1466.9507              1505.3695
 Red. masses --      1.2051                 1.0880                 1.4723
 Frc consts  --      1.4897                 1.3795                 1.9657
 IR Inten    --     89.7205                 2.2463                 1.6520

                     40                     41                     42
                      A                      A                      A
 Frequencies --   1514.7394              1866.3909              2972.0556
 Red. masses --      1.0879                12.4761                 1.0694
 Frc consts  --      1.4707                25.6055                 5.5655
 IR Inten    --      0.5414               249.1619                45.1226

                     43                     44                     45
                      A                      A                      A
 Frequencies --   3041.1434              3045.0691              3063.0961
 Red. masses --      1.0700                 1.0713                 1.0938
 Frc consts  --      5.8303                 5.8528                 6.0468
 IR Inten    --      5.7433                21.0212                28.6248

                     46                     47                     48
                      A                      A                      A
 Frequencies --   3097.0174              3123.8235              3128.7719
 Red. masses --      1.1042                 1.0513                 1.0574
 Frc consts  --      6.2398                 6.0444                 6.0986
 IR Inten    --      7.2185                17.0426                 9.8293

                     49                     50                     51
                      A                      A                      A
 Frequencies --   3202.1044              3216.9070              3755.8928
 Red. masses --      1.1178                 1.1156                 1.0662
 Frc consts  --      6.7530                 6.8020                 8.8617
 IR Inten    --      0.1269                13.5689                48.0059

 - Thermochemistry -
 -------------------
 Temperature   298.150 Kelvin.  Pressure   1.00000 Atm.
 Atom     1 has atomic number  8 and mass  15.99491

 Molecular mass:   126.06808 amu.
 Principal axes and moments of inertia in atomic units:
                           1         2         3
     Eigenvalues --   707.499191349.891001848.31732
           X            0.99992  -0.01293   0.00106
           Y            0.01293   0.99990  -0.00506
           Z           -0.00099   0.00507   0.99999
 This molecule is an asymmetric top.
 Rotational symmetry number  1.
 Warning -- assumption of classical behavior for rotation
           may cause significant error
 Rotational temperatures (Kelvin)      0.12242     0.06416     0.04686
 Rotational constants (GHZ):           2.55087     1.33695     0.97642
 Zero-point vibrational energy     415144.1 (Joules/Mol)
                                   99.22181 (Kcal/Mol)
 Warning -- explicit consideration of  12 degrees of freedom as
           vibrations may cause significant error
 Vibrational temperatures:     77.16   178.54   206.57   294.12   348.28
          (Kelvin)            444.03   535.56   601.75   675.62   714.39
                              740.09   834.59  1069.96  1125.79  1171.31
                             1193.47  1280.99  1328.54  1356.85  1419.32
                             1477.40  1520.76  1549.37  1555.80  1567.22
                             1596.59  1610.17  1707.19  1710.84  1732.56
                             1765.02  1794.48  1890.05  1969.28  1990.25
                             2070.21  2083.99  2110.61  2165.89  2179.37
                             2685.32  4276.12  4375.52  4381.17  4407.11
                             4455.91  4494.48  4501.60  4607.11  4628.41
                             5403.89

 Zero-point correction=                           0.158120 (Hartree/Particle)
 Thermal correction to Energy=                    0.166915
 Thermal correction to Enthalpy=                  0.167859
 Thermal correction to Gibbs Free Energy=         0.124275
 Sum of electronic and zero-point Energies=           -423.013559
 Sum of electronic and thermal Energies=              -423.004764
 Sum of electronic and thermal Enthalpies=            -423.003820
 Sum of electronic and thermal Free Energies=         -423.047403

                     E (Thermal)             CV                S
                      KCal/Mol        Cal/Mol-Kelvin    Cal/Mol-Kelvin
 Total                  104.740             33.233             91.729
 Electronic               0.000              0.000              0.000
 Translational            0.889              2.981             40.409
 Rotational               0.889              2.981             28.958
 Vibrational            102.963             27.271             22.362
 Vibration     1          0.596              1.976              4.679
 Vibration     2          0.610              1.929              3.036
 Vibration     3          0.616              1.910              2.756
 Vibration     4          0.640              1.834              2.093
 Vibration     5          0.658              1.776              1.788
 Vibration     6          0.698              1.657              1.370
 Vibration     7          0.744              1.529              1.071
 Vibration     8          0.781              1.431              0.898
 Vibration     9          0.827              1.318              0.739
 Vibration    10          0.852              1.258              0.667
 Vibration    11          0.869              1.218              0.623
 Vibration    12          0.937              1.074              0.485

 Normal termination of Gaussian 09 at Tue Jan 28 13:22:18 2020.
 Normal termination of Gaussian 09 at Tue Jan 28 12:32:46 2020.
