 Gaussian 09, Revision D.01,
 Gaussian 09:  ES64L-G09RevD.01 24-Apr-2013

 -----------------------------
 # b3lyp 6-31G(2df,p) opt Freq
 -----------------------------

 -----
 titel
 -----
 Symbolic Z-matrix:
 Charge =  0 Multiplicity = 1

 SCF Done:  E(RB3LYP) =  -423.224840276     A.U. after   14 cycles
 Optimization completed.
    -- Stationary point found.
 Normal termination of Gaussian 09 at Tue Jan 28 00:46:17 2020.

 ----------------------------------------------------------------------
 #N Geom=AllCheck Guess=TCheck SCRF=Check GenChk RB3LYP/6-31G(2df,p) Fr
 eq
 ----------------------------------------------------------------------

 Structure from the checkpoint file:  "/scratch/puck/g09_635d6184-21a8-4673-a63c-b040d1871696/Gau-38346.chk"
 -----
 titel
 -----
 Charge =  0 Multiplicity = 1

                         Standard orientation:
 ---------------------------------------------------------------------
 Center     Atomic      Atomic             Coordinates (Angstroms)
 Number     Number       Type             X           Y           Z
 ---------------------------------------------------------------------
      1          6           0        2.462623   -0.975551   -0.241313
      2          6           0        1.113812   -0.529613    0.341678
      3          6           0        0.058916   -1.594254    0.173289
      4          6           0       -1.243300   -1.341275   -0.007206
      5          6           0       -1.782519    0.036075   -0.025162
      6          8           0       -2.960107    0.263248   -0.214681
      7          6           0       -0.773512    1.146179    0.243318
      8          6           0        0.626567    0.804052   -0.260074
      9          8           0        1.472069    1.890760    0.087449
     10          1           0        2.799801   -1.910810    0.216115
     11          1           0        2.391926   -1.138869   -1.322791
     12          1           0        3.237858   -0.225964   -0.055666
     13          1           0        1.254252   -0.353854    1.419887
     14          1           0        0.404210   -2.626550    0.198940
     15          1           0       -1.970635   -2.136601   -0.136390
     16          1           0       -1.137435    2.075464   -0.199793
     17          1           0       -0.722987    1.303151    1.330263
     18          1           0        0.587978    0.685965   -1.356191
     19          1           0        2.283809    1.822319   -0.423693
 ---------------------------------------------------------------------

 SCF Done:  E(RB3LYP) =  -423.224840276     A.U. after    1 cycles

 The electronic state is 1-A.
 Alpha  occ. eigenvalues --  -19.14607 -19.11972 -10.26278 -10.24510 -10.21333
 Alpha  occ. eigenvalues --  -10.20658 -10.19419 -10.19240 -10.18591  -1.03087
 Alpha  occ. eigenvalues --   -1.02791  -0.84520  -0.76507  -0.75478  -0.66866
 Alpha  occ. eigenvalues --   -0.61819  -0.59319  -0.54226  -0.49797  -0.48351
 Alpha  occ. eigenvalues --   -0.46411  -0.44938  -0.43234  -0.41559  -0.40648
 Alpha  occ. eigenvalues --   -0.40353  -0.37982  -0.37530  -0.35616  -0.34717
 Alpha  occ. eigenvalues --   -0.32703  -0.27967  -0.27141  -0.24031
 Alpha virt. eigenvalues --   -0.05124   0.05529   0.06272   0.09936   0.11605
 Alpha virt. eigenvalues --    0.11896   0.13263   0.14589   0.16381   0.16623
 Alpha virt. eigenvalues --    0.17897   0.19731   0.20244   0.21271   0.23924

 Mulliken charges:
               1
     1  C   -0.430043
     2  C   -0.032071
     3  C   -0.044683
     4  C   -0.164930
     5  C    0.367659
     6  O   -0.331559
     7  C   -0.324610
     8  C    0.091080
     9  O   -0.433875
    10  H    0.124537
    11  H    0.123581
    12  H    0.115031
    13  H    0.104812
    14  H    0.105756
    15  H    0.108698
    16  H    0.129174
    17  H    0.130747
    18  H    0.075086
    19  H    0.285612
 Sum of Mulliken charges =   0.00000

 Dipole moment (field-independent basis, Debye):
    X=              3.9442    Y=             -1.6440    Z=             -0.3020  Tot=              4.2837
 Quadrupole moment (field-independent basis, Debye-Ang):
   XX=            -60.5654   YY=            -52.9937   ZZ=            -52.4017
   XY=              1.0521   XZ=             -2.9556   YZ=             -1.7538

  Exact polarizability: 102.595  -4.858  79.287   2.582  -0.102  55.320
 Approx polarizability: 158.329 -13.088 112.660   9.387  -0.541  89.583

                      1                      2                      3
                      A                      A                      A
 Frequencies --     76.3985               136.5829               217.5084
 Red. masses --      4.0450                 3.0441                 1.1638
 Frc consts  --      0.0139                 0.0335                 0.0324
 IR Inten    --      1.8414                 1.7961                 7.6782

                      4                      5                      6
                      A                      A                      A
 Frequencies --    230.1256               259.9572               290.4081
 Red. masses --      1.8301                 2.3557                 1.5728
 Frc consts  --      0.0571                 0.0938                 0.0782
 IR Inten    --     57.8596                18.6270                26.0749

                      7                      8                      9
                      A                      A                      A
 Frequencies --    338.1361               371.1988               403.1495
 Red. masses --      4.4702                 2.1978                 5.6094
 Frc consts  --      0.3011                 0.1784                 0.5372
 IR Inten    --      2.2217                 0.8095                 3.3495

                     10                     11                     12
                      A                      A                      A
 Frequencies --    464.1391               510.8790               540.4818
 Red. masses --      5.5940                 3.4822                 2.5774
 Frc consts  --      0.7100                 0.5355                 0.4436
 IR Inten    --     14.4992                 3.7971                13.5498

                     13                     14                     15
                      A                      A                      A
 Frequencies --    623.6429               705.7056               774.2633
 Red. masses --      2.6233                 4.0858                 1.9358
 Frc consts  --      0.6011                 1.1989                 0.6837
 IR Inten    --      0.7977                 2.7089                12.0619

                     16                     17                     18
                      A                      A                      A
 Frequencies --    835.2331               853.0689               924.8841
 Red. masses --      2.6570                 1.8605                 1.9544
 Frc consts  --      1.0921                 0.7977                 0.9850
 IR Inten    --      5.0939                 8.7508                 6.0217

                     19                     20                     21
                      A                      A                      A
 Frequencies --    956.3813              1020.4166              1035.9982
 Red. masses --      1.5551                 1.2960                 2.0708
 Frc consts  --      0.8380                 0.7951                 1.3095
 IR Inten    --      5.7345                 3.4603                20.4758

                     22                     23                     24
                      A                      A                      A
 Frequencies --   1084.6339              1088.5250              1090.8460
 Red. masses --      2.2018                 3.3808                 1.5665
 Frc consts  --      1.5261                 2.3602                 1.0983
 IR Inten    --      4.4306                61.3615                 8.7554

                     25                     26                     27
                      A                      A                      A
 Frequencies --   1108.3759              1172.9459              1206.5165
 Red. masses --      2.4074                 1.2642                 1.3877
 Frc consts  --      1.7425                 1.0248                 1.1902
 IR Inten    --     28.4989                 2.4933                22.0061

                     28                     29                     30
                      A                      A                      A
 Frequencies --   1240.4379              1271.3462              1290.4028
 Red. masses --      1.9539                 1.3693                 1.7685
 Frc consts  --      1.7713                 1.3040                 1.7351
 IR Inten    --     20.8302                 7.7883                17.2181

                     31                     32                     33
                      A                      A                      A
 Frequencies --   1313.4461              1324.2443              1380.9909
 Red. masses --      1.4424                 1.3321                 1.5396
 Frc consts  --      1.4661                 1.3764                 1.7299
 IR Inten    --     37.0264                14.2776                39.3825

                     34                     35                     36
                      A                      A                      A
 Frequencies --   1396.2825              1414.2474              1426.1969
 Red. masses --      1.4085                 1.4165                 1.4571
 Frc consts  --      1.6179                 1.6692                 1.7462
 IR Inten    --     12.1701                 1.1728                 2.6629

                     37                     38                     39
                      A                      A                      A
 Frequencies --   1463.8612              1497.2422              1504.1733
 Red. masses --      1.0956                 1.0564                 1.0444
 Frc consts  --      1.3833                 1.3952                 1.3922
 IR Inten    --      4.7753                 4.4129                 6.2217

                     40                     41                     42
                      A                      A                      A
 Frequencies --   1677.5456              1781.3367              2959.7033
 Red. masses --      7.4918                11.6139                 1.0810
 Frc consts  --     12.4218                21.7130                 5.5794
 IR Inten    --     17.2508               241.9190                25.4955

                     43                     44                     45
                      A                      A                      A
 Frequencies --   2988.2783              3023.9179              3031.0631
 Red. masses --      1.0822                 1.0679                 1.0356
 Frc consts  --      5.6936                 5.7533                 5.6059
 IR Inten    --     21.0971                11.7544                25.6289

                     46                     47                     48
                      A                      A                      A
 Frequencies --   3100.7993              3105.6473              3114.5947
 Red. masses --      1.1011                 1.1011                 1.0936
 Frc consts  --      6.2377                 6.2575                 6.2506
 IR Inten    --     24.6933                20.4825                10.5131

                     49                     50                     51
                      A                      A                      A
 Frequencies --   3140.8539              3188.8100              3830.5668
 Red. masses --      1.0872                 1.0947                 1.0662
 Frc consts  --      6.3190                 6.5584                 9.2176
 IR Inten    --     12.9521                 9.6669                18.7143

 - Thermochemistry -
 -------------------
 Temperature   298.150 Kelvin.  Pressure   1.00000 Atm.
 Atom     1 has atomic number  6 and mass  12.00000

 Molecular mass:   126.06808 amu.
 Principal axes and moments of inertia in atomic units:
                           1         2         3
     Eigenvalues --   670.295781358.808401939.22560
           X            0.99963  -0.02577  -0.00874
           Y            0.02577   0.99967   0.00024
           Z            0.00873  -0.00047   0.99996
 This molecule is an asymmetric top.
 Rotational symmetry number  1.
 Warning -- assumption of classical behavior for rotation
           may cause significant error
 Rotational temperatures (Kelvin)      0.12922     0.06374     0.04466
 Rotational constants (GHZ):           2.69245     1.32818     0.93065
 Zero-point vibrational energy     417415.3 (Joules/Mol)
                                   99.76465 (Kcal/Mol)
 Warning -- explicit consideration of  12 degrees of freedom as
           vibrations may cause significant error
 Vibrational temperatures:    109.92   196.51   312.95   331.10   374.02
          (Kelvin)            417.83   486.50   534.07   580.04   667.79
                              735.04   777.63   897.28  1015.35  1113.99
                             1201.71  1227.37  1330.70  1376.02  1468.15
                             1490.57  1560.54  1566.14  1569.48  1594.70
                             1687.61  1735.91  1784.71  1829.18  1856.60
                             1889.75  1905.29  1986.94  2008.94  2034.78
                             2051.98  2106.17  2154.19  2164.17  2413.61
                             2562.94  4258.35  4299.46  4350.74  4361.02
                             4461.35  4468.33  4481.20  4518.98  4587.98
                             5511.32

 Zero-point correction=                           0.158985 (Hartree/Particle)
 Thermal correction to Energy=                    0.167784
 Thermal correction to Enthalpy=                  0.168728
 Thermal correction to Gibbs Free Energy=         0.125640
 Sum of electronic and zero-point Energies=           -423.065855
 Sum of electronic and thermal Energies=              -423.057056
 Sum of electronic and thermal Enthalpies=            -423.056112
 Sum of electronic and thermal Free Energies=         -423.099200

                     E (Thermal)             CV                S
                      KCal/Mol        Cal/Mol-Kelvin    Cal/Mol-Kelvin
 Total                  105.286             33.507             90.686
 Electronic               0.000              0.000              0.000
 Translational            0.889              2.981             40.409
 Rotational               0.889              2.981             28.959
 Vibrational            103.509             27.546             21.319
 Vibration     1          0.599              1.965              3.981
 Vibration     2          0.614              1.917              2.851
 Vibration     3          0.646              1.814              1.980
 Vibration     4          0.652              1.795              1.878
 Vibration     5          0.668              1.746              1.662
 Vibration     6          0.686              1.692              1.472
 Vibration     7          0.718              1.599              1.221
 Vibration     8          0.743              1.531              1.075
 Vibration     9          0.769              1.463              0.951
 Vibration    10          0.822              1.330              0.754
 Vibration    11          0.866              1.226              0.631
 Vibration    12          0.896              1.161              0.564

 Optimization completed.
    -- Stationary point found.
 Normal termination of Gaussian 09 at Tue Jan 28 02:47:25 2020.
