 Gaussian 09, Revision D.01,
 Gaussian 09:  ES64L-G09RevD.01 24-Apr-2013

 -----------------------------
 # b3lyp 6-31G(2df,p) opt Freq
 -----------------------------

 -----
 titel
 -----
 Symbolic Z-matrix:
 Charge =  0 Multiplicity = 1

 SCF Done:  E(RB3LYP) =  -423.090915260     A.U. after   13 cycles
 Optimization completed.
    -- Stationary point found.
 Normal termination of Gaussian 09 at Mon Jan 27 11:26:13 2020.

 ----------------------------------------------------------------------
 #N Geom=AllCheck Guess=TCheck SCRF=Check GenChk RB3LYP/6-31G(2df,p) Fr
 eq
 ----------------------------------------------------------------------

 Structure from the checkpoint file:  "/scratch/puck/g09_5d3cf56a-fcb9-4f72-98e8-3d9cb0b4c6fc/Gau-61368.chk"
 -----
 titel
 -----
 Charge =  0 Multiplicity = 1

                         Standard orientation:
 ---------------------------------------------------------------------
 Center     Atomic      Atomic             Coordinates (Angstroms)
 Number     Number       Type             X           Y           Z
 ---------------------------------------------------------------------
      1          6           0       -1.759683   -1.036437   -0.041596
      2          8           0       -2.654975   -0.000003    0.406289
      3          6           0       -1.759728    1.036429   -0.041688
      4          6           0       -0.821303   -0.000009   -0.706162
      5          6           0        0.612025    0.000025   -0.291242
      6          6           0        1.705339   -1.092586   -0.470386
      7          6           0        2.229719   -0.000028    0.486673
      8          6           0        1.705182    1.092877   -0.469901
      9          8           0        0.915837   -0.000288    1.170991
     10          1           0       -1.302077   -1.574655    0.797310
     11          1           0       -2.255182   -1.749546   -0.710044
     12          1           0       -2.255256    1.749462   -0.710197
     13          1           0       -1.302159    1.574750    0.797176
     14          1           0       -0.879781   -0.000063   -1.797886
     15          1           0        1.484177   -2.052419   -0.001763
     16          1           0        2.176166   -1.191673   -1.451924
     17          1           0        3.118031   -0.000099    1.117152
     18          1           0        1.483880    2.052469   -0.000852
     19          1           0        2.175995    1.192474   -1.451394
 ---------------------------------------------------------------------

 SCF Done:  E(RB3LYP) =  -423.090915260     A.U. after    1 cycles

 The electronic state is 1-A.
 Alpha  occ. eigenvalues --  -19.13204 -19.12741 -10.25617 -10.25184 -10.22826
 Alpha  occ. eigenvalues --  -10.22826 -10.19956 -10.19577 -10.19577  -1.05661
 Alpha  occ. eigenvalues --   -1.03315  -0.79758  -0.76652  -0.69232  -0.68001
 Alpha  occ. eigenvalues --   -0.63732  -0.56762  -0.54423  -0.51561  -0.49827
 Alpha  occ. eigenvalues --   -0.45726  -0.45563  -0.43669  -0.42305  -0.40040
 Alpha  occ. eigenvalues --   -0.38763  -0.36482  -0.35296  -0.34030  -0.32560
 Alpha  occ. eigenvalues --   -0.30949  -0.29228  -0.24344  -0.24035
 Alpha virt. eigenvalues --    0.07365   0.08254   0.10863   0.11080   0.11904
 Alpha virt. eigenvalues --    0.12707   0.13583   0.14105   0.14137   0.16244
 Alpha virt. eigenvalues --    0.16517   0.16977   0.18371   0.18689   0.20677

 Mulliken charges:
               1
     1  C   -0.083364
     2  O   -0.269911
     3  C   -0.083362
     4  C   -0.202513
     5  C    0.427701
     6  C   -0.263637
     7  C    0.054128
     8  C   -0.263639
     9  O   -0.339381
    10  H    0.114991
    11  H    0.099771
    12  H    0.099772
    13  H    0.114976
    14  H    0.087330
    15  H    0.109040
    16  H    0.095154
    17  H    0.098744
    18  H    0.109042
    19  H    0.095157
 Sum of Mulliken charges =   0.00000

 Dipole moment (field-independent basis, Debye):
    X=              2.1930    Y=              0.0004    Z=             -2.4300  Tot=              3.2732
 Quadrupole moment (field-independent basis, Debye-Ang):
   XX=            -56.3319   YY=            -50.3255   ZZ=            -54.5322
   XY=              0.0004   XZ=              1.9946   YZ=              0.0006

  Exact polarizability:  83.135   0.000  76.584   1.193   0.001  65.918
 Approx polarizability: 110.970   0.001 110.132  -0.656  -0.001 106.954

                      1                      2                      3
                      A                      A                      A
 Frequencies --     72.3109                82.3710               155.9112
 Red. masses --      3.1477                 4.8021                 2.9347
 Frc consts  --      0.0097                 0.0192                 0.0420
 IR Inten    --      0.0383                 2.5684                 0.1090

                      4                      5                      6
                      A                      A                      A
 Frequencies --    213.0638               366.6809               400.9849
 Red. masses --      2.8369                 3.6434                 3.2207
 Frc consts  --      0.0759                 0.2886                 0.3051
 IR Inten    --      7.2785                 0.9945                 3.0989

                      7                      8                      9
                      A                      A                      A
 Frequencies --    517.0513               601.4752               605.5202
 Red. masses --      1.8508                 2.7676                 2.6117
 Frc consts  --      0.2915                 0.5899                 0.5642
 IR Inten    --      1.5345                 5.7042                 4.5859

                     10                     11                     12
                      A                      A                      A
 Frequencies --    728.2467               801.7351               818.9697
 Red. masses --      4.4024                 2.5487                 4.0155
 Frc consts  --      1.3756                 0.9652                 1.5868
 IR Inten    --     23.1498                 0.3943                 9.9371

                     13                     14                     15
                      A                      A                      A
 Frequencies --    890.3815               891.0329               908.5159
 Red. masses --      1.2353                 2.8621                 3.1468
 Frc consts  --      0.5770                 1.3388                 1.5303
 IR Inten    --      0.2470                19.3277                13.6022

                     16                     17                     18
                      A                      A                      A
 Frequencies --    936.5022               941.6135               984.3615
 Red. masses --      3.9266                 2.0925                 1.3979
 Frc consts  --      2.0290                 1.0931                 0.7980
 IR Inten    --      3.9237                 0.1863                 1.4142

                     19                     20                     21
                      A                      A                      A
 Frequencies --    992.0349              1017.6138              1041.8135
 Red. masses --      4.1122                 1.9893                 1.8502
 Frc consts  --      2.3844                 1.2137                 1.1832
 IR Inten    --     36.8264                 7.4709                 8.0056

                     22                     23                     24
                      A                      A                      A
 Frequencies --   1043.4367              1084.5452              1104.8408
 Red. masses --     11.2826                 1.4967                 1.8685
 Frc consts  --      7.2375                 1.0373                 1.3438
 IR Inten    --     72.3244                 1.1335                 4.8623

                     25                     26                     27
                      A                      A                      A
 Frequencies --   1109.0121              1143.4824              1161.5223
 Red. masses --      1.7563                 1.7898                 1.4854
 Frc consts  --      1.2727                 1.3788                 1.1807
 IR Inten    --      3.6564                 0.6052                 0.6697

                     28                     29                     30
                      A                      A                      A
 Frequencies --   1169.4614              1178.6069              1216.5878
 Red. masses --      1.0823                 1.1954                 1.6380
 Frc consts  --      0.8721                 0.9783                 1.4284
 IR Inten    --      0.9983                 4.3582                23.0370

                     31                     32                     33
                      A                      A                      A
 Frequencies --   1237.9020              1239.9752              1253.9531
 Red. masses --      1.5045                 1.4834                 1.6040
 Frc consts  --      1.3583                 1.3438                 1.4860
 IR Inten    --      0.2212                 2.2116                 5.9380

                     34                     35                     36
                      A                      A                      A
 Frequencies --   1282.6413              1314.8900              1376.6269
 Red. masses --      1.7356                 1.2654                 1.5452
 Frc consts  --      1.6823                 1.2890                 1.7253
 IR Inten    --     23.2590                 0.6022                 0.8026

                     37                     38                     39
                      A                      A                      A
 Frequencies --   1411.2158              1466.1718              1507.7020
 Red. masses --      2.3761                 1.1273                 1.0781
 Frc consts  --      2.7880                 1.4278                 1.4439
 IR Inten    --     10.9760                 1.7254                 0.7498

                     40                     41                     42
                      A                      A                      A
 Frequencies --   1513.8372              1534.8377              3016.3309
 Red. masses --      1.2990                 1.1099                 1.0521
 Frc consts  --      1.7540                 1.5405                 5.6397
 IR Inten    --      2.2465                 1.9021               105.7571

                     43                     44                     45
                      A                      A                      A
 Frequencies --   3026.5591              3057.6211              3061.4172
 Red. masses --      1.0573                 1.0567                 1.1031
 Frc consts  --      5.7062                 5.8208                 6.0910
 IR Inten    --      2.3366                33.5885                27.7098

                     46                     47                     48
                      A                      A                      A
 Frequencies --   3066.0217              3068.1850              3083.7048
 Red. masses --      1.0560                 1.1101                 1.0948
 Frc consts  --      5.8489                 6.1571                 6.1338
 IR Inten    --     26.8793                 4.0193                60.9711

                     49                     50                     51
                      A                      A                      A
 Frequencies --   3127.6073              3143.2874              3147.9428
 Red. masses --      1.0943                 1.1091                 1.1105
 Frc consts  --      6.3067                 6.4565                 6.4837
 IR Inten    --     55.3332                14.8501                32.0204

 - Thermochemistry -
 -------------------
 Temperature   298.150 Kelvin.  Pressure   1.00000 Atm.
 Atom     1 has atomic number  6 and mass  12.00000

 Molecular mass:   126.06808 amu.
 Principal axes and moments of inertia in atomic units:
                           1         2         3
     Eigenvalues --   456.005091540.690921634.35151
           X            1.00000   0.00000  -0.00059
           Y            0.00000   1.00000   0.00004
           Z            0.00059  -0.00004   1.00000
 This molecule is an asymmetric top.
 Rotational symmetry number  1.
 Warning -- assumption of classical behavior for rotation
           may cause significant error
 Rotational temperatures (Kelvin)      0.18994     0.05622     0.05300
 Rotational constants (GHZ):           3.95772     1.17138     1.10426
 Zero-point vibrational energy     419399.5 (Joules/Mol)
                                  100.23888 (Kcal/Mol)
 Warning -- explicit consideration of   9 degrees of freedom as
           vibrations may cause significant error
 Vibrational temperatures:    104.04   118.51   224.32   306.55   527.57
          (Kelvin)            576.93   743.92   865.39   871.21  1047.78
                             1153.52  1178.31  1281.06  1282.00  1307.15
                             1347.42  1354.77  1416.27  1427.32  1464.12
                             1498.94  1501.27  1560.42  1589.62  1595.62
                             1645.21  1671.17  1682.59  1695.75  1750.40
                             1781.06  1784.05  1804.16  1845.43  1891.83
                             1980.66  2030.42  2109.49  2169.24  2178.07
                             2208.29  4339.82  4354.54  4399.23  4404.69
                             4411.32  4414.43  4436.76  4499.92  4522.48
                             4529.18

 Zero-point correction=                           0.159741 (Hartree/Particle)
 Thermal correction to Energy=                    0.167436
 Thermal correction to Enthalpy=                  0.168380
 Thermal correction to Gibbs Free Energy=         0.126819
 Sum of electronic and zero-point Energies=           -422.931174
 Sum of electronic and thermal Energies=              -422.923479
 Sum of electronic and thermal Enthalpies=            -422.922535
 Sum of electronic and thermal Free Energies=         -422.964096

                     E (Thermal)             CV                S
                      KCal/Mol        Cal/Mol-Kelvin    Cal/Mol-Kelvin
 Total                  105.068             29.439             87.473
 Electronic               0.000              0.000              0.000
 Translational            0.889              2.981             40.409
 Rotational               0.889              2.981             28.531
 Vibrational            103.290             23.477             18.534
 Vibration     1          0.598              1.967              4.089
 Vibration     2          0.600              1.961              3.834
 Vibration     3          0.620              1.896              2.599
 Vibration     4          0.644              1.821              2.017
 Vibration     5          0.740              1.541              1.094
 Vibration     6          0.767              1.468              0.959
 Vibration     7          0.872              1.212              0.617
 Vibration     8          0.960              1.029              0.447
 Vibration     9          0.964              1.020              0.440

 Optimization completed.
    -- Stationary point found.
 Normal termination of Gaussian 09 at Mon Jan 27 13:26:14 2020.
