 Gaussian 09, Revision D.01,
 Gaussian 09:  ES64L-G09RevD.01 24-Apr-2013

 -----------------------------
 # b3lyp 6-31G(2df,p) opt Freq
 -----------------------------

 -----
 titel
 -----
 Symbolic Z-matrix:
 Charge =  0 Multiplicity = 1

 SCF Done:  E(RB3LYP) =  -423.185888697     A.U. after   13 cycles
 Optimization completed.
    -- Stationary point found.
 Normal termination of Gaussian 09 at Mon Jan 27 11:19:52 2020.

 ----------------------------------------------------------------------
 #N Geom=AllCheck Guess=TCheck SCRF=Check GenChk RB3LYP/6-31G(2df,p) Fr
 eq
 ----------------------------------------------------------------------

 Structure from the checkpoint file:  "/scratch/puck/g09_00916c14-f39e-4aa0-ba05-6d0ada0f7775/Gau-32404.chk"
 -----
 titel
 -----
 Charge =  0 Multiplicity = 1

                         Standard orientation:
 ---------------------------------------------------------------------
 Center     Atomic      Atomic             Coordinates (Angstroms)
 Number     Number       Type             X           Y           Z
 ---------------------------------------------------------------------
      1          6           0       -1.840177    0.274421   -0.016177
      2          8           0       -1.313099   -0.709867   -0.923052
      3          6           0       -0.154560   -1.248988   -0.338883
      4          6           0        1.219858   -0.544054   -0.595293
      5          6           0        1.012177    0.911606   -1.009472
      6          6           0        0.307822    1.637008    0.164185
      7          6           0       -0.668264    0.684360    0.888865
      8          6           0        0.062964   -0.682615    1.067529
      9          8           0        1.486750   -0.593076    0.842192
     10          1           0       -2.240673    1.105968   -0.604554
     11          1           0       -2.666035   -0.165392    0.562393
     12          1           0       -0.128756   -2.333058   -0.462212
     13          1           0        1.984178   -1.076060   -1.166669
     14          1           0        1.969031    1.392644   -1.233836
     15          1           0        0.405193    0.937180   -1.920803
     16          1           0        1.067576    1.953560    0.882846
     17          1           0       -0.212576    2.536543   -0.178943
     18          1           0       -1.017282    1.117481    1.829601
     19          1           0       -0.188782   -1.235752    1.974530
 ---------------------------------------------------------------------

 SCF Done:  E(RB3LYP) =  -423.185888697     A.U. after    1 cycles

 The electronic state is 1-A.
 Alpha  occ. eigenvalues --  -19.14150 -19.13294 -10.23266 -10.22998 -10.22984
 Alpha  occ. eigenvalues --  -10.22932 -10.19246 -10.18357 -10.18040  -1.05696
 Alpha  occ. eigenvalues --   -1.02218  -0.80347  -0.75965  -0.72798  -0.66889
 Alpha  occ. eigenvalues --   -0.61331  -0.57777  -0.54145  -0.52189  -0.49143
 Alpha  occ. eigenvalues --   -0.46635  -0.44278  -0.42895  -0.41266  -0.40697
 Alpha  occ. eigenvalues --   -0.37658  -0.37362  -0.36287  -0.34725  -0.32039
 Alpha  occ. eigenvalues --   -0.31008  -0.30235  -0.25001  -0.23922
 Alpha virt. eigenvalues --    0.07761   0.08410   0.10807   0.12420   0.12717
 Alpha virt. eigenvalues --    0.14196   0.15808   0.15964   0.16310   0.16338
 Alpha virt. eigenvalues --    0.18378   0.18787   0.19519   0.20751   0.21746

 Mulliken charges:
               1
     1  C   -0.082353
     2  O   -0.268683
     3  C    0.095216
     4  C    0.056980
     5  C   -0.223699
     6  C   -0.199927
     7  C   -0.084190
     8  C    0.066757
     9  O   -0.304019
    10  H    0.109569
    11  H    0.096425
    12  H    0.086376
    13  H    0.075280
    14  H    0.100223
    15  H    0.114986
    16  H    0.114748
    17  H    0.092462
    18  H    0.073721
    19  H    0.080127
 Sum of Mulliken charges =   0.00000

 Dipole moment (field-independent basis, Debye):
    X=             -0.7904    Y=              0.7298    Z=              0.2531  Tot=              1.1051
 Quadrupole moment (field-independent basis, Debye-Ang):
   XX=            -55.1467   YY=            -51.2134   ZZ=            -53.6489
   XY=             -0.8345   XZ=             -5.2826   YZ=             -0.4002

  Exact polarizability:  75.327  -1.670  72.746  -5.258  -0.785  68.225
 Approx polarizability: 109.494  -3.259 102.816  -2.262  -0.468 105.640

                      1                      2                      3
                      A                      A                      A
 Frequencies --    170.5753               263.3161               360.8374
 Red. masses --      2.5373                 2.6984                 1.9367
 Frc consts  --      0.0435                 0.1102                 0.1486
 IR Inten    --      1.3943                 4.5158                 0.6689

                      4                      5                      6
                      A                      A                      A
 Frequencies --    413.1660               420.4857               537.3507
 Red. masses --      3.6911                 3.7914                 4.4881
 Frc consts  --      0.3712                 0.3950                 0.7635
 IR Inten    --      3.3290                 6.5593                 2.3398

                      7                      8                      9
                      A                      A                      A
 Frequencies --    620.6131               676.0948               731.4064
 Red. masses --      3.8175                 6.3735                 4.3681
 Frc consts  --      0.8663                 1.7165                 1.3768
 IR Inten    --      1.2305                 0.2779                 5.1687

                     10                     11                     12
                      A                      A                      A
 Frequencies --    775.6216               810.9468               828.3465
 Red. masses --      2.1670                 2.6590                 2.6088
 Frc consts  --      0.7681                 1.0303                 1.0547
 IR Inten    --      5.4299                 4.6032                 1.0014

                     13                     14                     15
                      A                      A                      A
 Frequencies --    856.5629               901.8653               924.0583
 Red. masses --      2.4807                 2.4295                 2.5306
 Frc consts  --      1.0724                 1.1642                 1.2731
 IR Inten    --     10.9268                12.2898                 3.9120

                     16                     17                     18
                      A                      A                      A
 Frequencies --    948.8691               975.8492               985.6414
 Red. masses --      2.4817                 2.4876                 1.9582
 Frc consts  --      1.3165                 1.3957                 1.1209
 IR Inten    --     24.8743                23.6919                 8.8382

                     19                     20                     21
                      A                      A                      A
 Frequencies --    999.5480              1026.9771              1033.8372
 Red. masses --      3.4728                 1.8262                 3.0262
 Frc consts  --      2.0443                 1.1348                 1.9057
 IR Inten    --     15.8124                15.2135                11.7341

                     22                     23                     24
                      A                      A                      A
 Frequencies --   1077.2991              1089.7786              1144.7876
 Red. masses --      2.1379                 1.4388                 3.2380
 Frc consts  --      1.4619                 1.0068                 2.5002
 IR Inten    --      6.9825                 3.3579                93.5285

                     25                     26                     27
                      A                      A                      A
 Frequencies --   1153.5017              1172.7940              1215.7587
 Red. masses --      2.9814                 1.1954                 1.1789
 Frc consts  --      2.3373                 0.9688                 1.0266
 IR Inten    --     15.9933                 5.6356                 2.3113

                     28                     29                     30
                      A                      A                      A
 Frequencies --   1228.8331              1249.3681              1277.7946
 Red. masses --      1.3635                 1.5010                 1.3359
 Frc consts  --      1.2131                 1.3804                 1.2851
 IR Inten    --      4.1991                 0.1800                 0.8313

                     31                     32                     33
                      A                      A                      A
 Frequencies --   1287.0541              1311.0611              1322.9841
 Red. masses --      1.6515                 1.3902                 1.4187
 Frc consts  --      1.6118                 1.4079                 1.4630
 IR Inten    --      8.6762                 3.2733                 2.8576

                     34                     35                     36
                      A                      A                      A
 Frequencies --   1337.4003              1347.1833              1370.1350
 Red. masses --      1.3180                 1.5447                 1.5058
 Frc consts  --      1.3890                 1.6518                 1.6654
 IR Inten    --      1.8535                 0.4951                 4.1251

                     37                     38                     39
                      A                      A                      A
 Frequencies --   1379.2133              1399.7169              1475.5965
 Red. masses --      1.3751                 1.4474                 1.0766
 Frc consts  --      1.5412                 1.6708                 1.3811
 IR Inten    --      1.6379                 4.5700                 2.1619

                     40                     41                     42
                      A                      A                      A
 Frequencies --   1489.5539              1521.8446              2993.8751
 Red. masses --      1.1041                 1.0941                 1.0690
 Frc consts  --      1.4433                 1.4930                 5.6454
 IR Inten    --      5.8685                 0.7795                72.5931

                     43                     44                     45
                      A                      A                      A
 Frequencies --   3046.1563              3056.3741              3073.9369
 Red. masses --      1.0600                 1.0623                 1.0957
 Frc consts  --      5.7951                 5.8469                 6.1002
 IR Inten    --     13.1515                27.0609                23.4134

                     46                     47                     48
                      A                      A                      A
 Frequencies --   3077.0561              3080.5959              3087.7010
 Red. masses --      1.0869                 1.0902                 1.1007
 Frc consts  --      6.0636                 6.0957                 6.1830
 IR Inten    --     42.1170                19.3827                16.3921

                     49                     50                     51
                      A                      A                      A
 Frequencies --   3090.9239              3103.7078              3106.9974
 Red. masses --      1.0878                 1.0930                 1.1023
 Frc consts  --      6.1232                 6.2036                 6.2698
 IR Inten    --     77.2713                38.1095                34.1761

 - Thermochemistry -
 -------------------
 Temperature   298.150 Kelvin.  Pressure   1.00000 Atm.
 Atom     1 has atomic number  6 and mass  12.00000

 Molecular mass:   126.06808 amu.
 Principal axes and moments of inertia in atomic units:
                           1         2         3
     Eigenvalues --   697.57347 874.99772 991.46809
           X            0.99655  -0.00726  -0.08272
           Y            0.00459   0.99946  -0.03243
           Z            0.08291   0.03193   0.99604
 This molecule is an asymmetric top.
 Rotational symmetry number  1.
 Warning -- assumption of classical behavior for rotation
           may cause significant error
 Rotational temperatures (Kelvin)      0.12416     0.09899     0.08736
 Rotational constants (GHZ):           2.58717     2.06257     1.82027
 Zero-point vibrational energy     429644.5 (Joules/Mol)
                                  102.68750 (Kcal/Mol)
 Warning -- explicit consideration of   7 degrees of freedom as
           vibrations may cause significant error
 Vibrational temperatures:    245.42   378.85   519.16   594.45   604.98
          (Kelvin)            773.13   892.92   972.75  1052.33  1115.95
                             1166.77  1191.80  1232.40  1297.58  1329.51
                             1365.21  1404.03  1418.12  1438.12  1477.59
                             1487.46  1549.99  1567.95  1647.09  1659.63
                             1687.39  1749.20  1768.01  1797.56  1838.46
                             1851.78  1886.32  1903.48  1924.22  1938.29
                             1971.32  1984.38  2013.88  2123.05  2143.13
                             2189.59  4307.51  4382.73  4397.44  4422.70
                             4427.19  4432.28  4442.51  4447.14  4465.54
                             4470.27

 Zero-point correction=                           0.163643 (Hartree/Particle)
 Thermal correction to Energy=                    0.169943
 Thermal correction to Enthalpy=                  0.170887
 Thermal correction to Gibbs Free Energy=         0.133281
 Sum of electronic and zero-point Energies=           -423.022246
 Sum of electronic and thermal Energies=              -423.015946
 Sum of electronic and thermal Enthalpies=            -423.015001
 Sum of electronic and thermal Free Energies=         -423.052608

                     E (Thermal)             CV                S
                      KCal/Mol        Cal/Mol-Kelvin    Cal/Mol-Kelvin
 Total                  106.641             26.829             79.150
 Electronic               0.000              0.000              0.000
 Translational            0.889              2.981             40.409
 Rotational               0.889              2.981             27.895
 Vibrational            104.863             20.868             10.846
 Vibration     1          0.626              1.879              2.429
 Vibration     2          0.670              1.740              1.640
 Vibration     3          0.735              1.553              1.118
 Vibration     4          0.777              1.442              0.916
 Vibration     5          0.783              1.426              0.890
 Vibration     6          0.892              1.167              0.571
 Vibration     7          0.981              0.988              0.416

 Optimization completed.
    -- Stationary point found.
 Normal termination of Gaussian 09 at Mon Jan 27 12:11:17 2020.
