 Gaussian 09, Revision D.01,
 Gaussian 09:  ES64L-G09RevD.01 24-Apr-2013

 -----------------------------
 # b3lyp 6-31G(2df,p) opt Freq
 -----------------------------

 -----
 titel
 -----
 Symbolic Z-matrix:
 Charge =  0 Multiplicity = 1

 SCF Done:  E(RB3LYP) =  -423.171804250     A.U. after   13 cycles
 Optimization completed.
    -- Stationary point found.
 Normal termination of Gaussian 09 at Tue Jan 28 03:54:26 2020.

 ----------------------------------------------------------------------
 #N Geom=AllCheck Guess=TCheck SCRF=Check GenChk RB3LYP/6-31G(2df,p) Fr
 eq
 ----------------------------------------------------------------------

 Structure from the checkpoint file:  "/scratch/puck/g09_4aa23a1a-85d7-4bf1-a6fb-7f53d586420e/Gau-196306.chk"
 -----
 titel
 -----
 Charge =  0 Multiplicity = 1

                         Standard orientation:
 ---------------------------------------------------------------------
 Center     Atomic      Atomic             Coordinates (Angstroms)
 Number     Number       Type             X           Y           Z
 ---------------------------------------------------------------------
      1          8           0       -2.239570   -1.233464   -0.671488
      2          6           0       -1.850952   -0.432852    0.440500
      3          6           0       -1.944829    1.083154    0.116716
      4          6           0       -0.540798    1.440566   -0.295967
      5          6           0        0.332048    0.469682   -0.012543
      6          6           0       -0.348379   -0.700342    0.665750
      7          6           0        1.782834    0.522953   -0.264921
      8          6           0        2.584697   -0.667241   -0.607635
      9          8           0        2.637793   -0.115387    0.703196
     10          1           0       -3.160367   -1.036092   -0.870488
     11          1           0       -2.449518   -0.697263    1.322921
     12          1           0       -2.690507    1.272215   -0.666254
     13          1           0       -2.260480    1.664671    0.994682
     14          1           0       -0.282413    2.392156   -0.748530
     15          1           0       -0.083590   -1.675022    0.244768
     16          1           0       -0.091754   -0.729506    1.731005
     17          1           0        2.157193    1.485724   -0.614148
     18          1           0        2.103339   -1.639866   -0.689900
     19          1           0        3.484578   -0.541724   -1.209109
 ---------------------------------------------------------------------

 SCF Done:  E(RB3LYP) =  -423.171804250     A.U. after    1 cycles

 The electronic state is 1-A.
 Alpha  occ. eigenvalues --  -19.14924 -19.13258 -10.23859 -10.23240 -10.23197
 Alpha  occ. eigenvalues --  -10.18608 -10.18530 -10.17988 -10.17977  -1.06724
 Alpha  occ. eigenvalues --   -1.01540  -0.83925  -0.72806  -0.70970  -0.66216
 Alpha  occ. eigenvalues --   -0.62447  -0.57851  -0.53367  -0.51238  -0.50692
 Alpha  occ. eigenvalues --   -0.48392  -0.43335  -0.42702  -0.40735  -0.39013
 Alpha  occ. eigenvalues --   -0.38045  -0.36900  -0.36570  -0.34628  -0.32237
 Alpha  occ. eigenvalues --   -0.31717  -0.26938  -0.26416  -0.23322
 Alpha virt. eigenvalues --    0.01295   0.07711   0.10103   0.11367   0.12234
 Alpha virt. eigenvalues --    0.12274   0.13050   0.14906   0.15565   0.16971
 Alpha virt. eigenvalues --    0.17527   0.19064   0.19542   0.20795   0.22803

 Mulliken charges:
               1
     1  O   -0.438644
     2  C    0.115478
     3  C   -0.278641
     4  C   -0.187092
     5  C    0.378880
     6  C   -0.315065
     7  C   -0.046969
     8  C   -0.185537
     9  O   -0.235080
    10  H    0.279067
    11  H    0.061072
    12  H    0.095522
    13  H    0.107011
    14  H    0.088518
    15  H    0.119213
    16  H    0.118532
    17  H    0.088872
    18  H    0.118922
    19  H    0.115940
 Sum of Mulliken charges =   0.00000

 Dipole moment (field-independent basis, Debye):
    X=             -1.7042    Y=              0.8680    Z=             -0.8555  Tot=              2.0951
 Quadrupole moment (field-independent basis, Debye-Ang):
   XX=            -48.4559   YY=            -52.6855   ZZ=            -54.1597
   XY=             -1.5544   XZ=             -4.9436   YZ=             -1.1005

  Exact polarizability:  98.668 -10.620  78.236  -3.055  -2.716  60.541
 Approx polarizability: 131.004 -22.533 121.091   2.696  -4.805  97.073

                      1                      2                      3
                      A                      A                      A
 Frequencies --     65.4566                82.9327               168.0843
 Red. masses --      3.9358                 3.2778                 4.2944
 Frc consts  --      0.0099                 0.0133                 0.0715
 IR Inten    --      1.4657                 2.2655                 5.1348

                      4                      5                      6
                      A                      A                      A
 Frequencies --    192.6103               300.6234               328.9555
 Red. masses --      2.7717                 1.1056                 3.0675
 Frc consts  --      0.0606                 0.0589                 0.1956
 IR Inten    --      2.0339               108.1325                 0.9146

                      7                      8                      9
                      A                      A                      A
 Frequencies --    388.2646               426.4486               428.1207
 Red. masses --      2.9024                 2.7333                 2.8383
 Frc consts  --      0.2578                 0.2929                 0.3065
 IR Inten    --      6.5721                 1.4954                 8.4342

                     10                     11                     12
                      A                      A                      A
 Frequencies --    540.6068               627.2289               768.2330
 Red. masses --      2.8383                 2.7734                 4.7781
 Frc consts  --      0.4887                 0.6429                 1.6615
 IR Inten    --      3.5641                 1.5245                 1.6633

                     13                     14                     15
                      A                      A                      A
 Frequencies --    805.3525               834.3471               845.7539
 Red. masses --      2.2869                 4.2043                 2.9852
 Frc consts  --      0.8739                 1.7244                 1.2581
 IR Inten    --     11.5936                15.3217                29.2564

                     16                     17                     18
                      A                      A                      A
 Frequencies --    874.4272               904.2526               921.7967
 Red. masses --      1.8528                 2.1485                 3.1147
 Frc consts  --      0.8347                 1.0351                 1.5593
 IR Inten    --      1.6923                 3.0346                22.8150

                     19                     20                     21
                      A                      A                      A
 Frequencies --    962.7034               968.3446               998.1774
 Red. masses --      2.1603                 1.8340                 1.8495
 Frc consts  --      1.1796                 1.0132                 1.0857
 IR Inten    --     31.0353                10.8047                19.4084

                     22                     23                     24
                      A                      A                      A
 Frequencies --   1033.9552              1076.8523              1097.5711
 Red. masses --      1.9018                 2.0830                 1.1972
 Frc consts  --      1.1979                 1.4231                 0.8498
 IR Inten    --      5.0726                15.3624                 0.7748

                     25                     26                     27
                      A                      A                      A
 Frequencies --   1147.1389              1162.4430              1170.5895
 Red. masses --      1.4493                 1.1653                 1.2892
 Frc consts  --      1.1237                 0.9278                 1.0408
 IR Inten    --      0.1867                 3.5148                 2.1480

                     28                     29                     30
                      A                      A                      A
 Frequencies --   1184.5173              1219.8448              1240.8132
 Red. masses --      1.4729                 1.3208                 1.4183
 Frc consts  --      1.2176                 1.1579                 1.2866
 IR Inten    --      9.7468                 0.4474                59.8888

                     31                     32                     33
                      A                      A                      A
 Frequencies --   1270.7136              1291.2568              1307.5486
 Red. masses --      1.5935                 1.4792                 1.6976
 Frc consts  --      1.5160                 1.4532                 1.7101
 IR Inten    --      4.5816                 8.4559                24.0584

                     34                     35                     36
                      A                      A                      A
 Frequencies --   1338.0052              1378.7792              1417.9365
 Red. masses --      1.5800                 2.1513                 1.6189
 Frc consts  --      1.6666                 2.4096                 1.9177
 IR Inten    --     17.5576                 4.4237                13.3289

                     37                     38                     39
                      A                      A                      A
 Frequencies --   1422.3308              1466.0049              1476.5884
 Red. masses --      1.6054                 1.0858                 1.1120
 Frc consts  --      1.9135                 1.3749                 1.4285
 IR Inten    --      8.5461                 3.0037                 0.3255

                     40                     41                     42
                      A                      A                      A
 Frequencies --   1524.4610              1712.2651              2995.8730
 Red. masses --      1.2499                 7.2117                 1.0767
 Frc consts  --      1.7114                12.4575                 5.6938
 IR Inten    --      1.8919                 0.9377                26.8353

                     43                     44                     45
                      A                      A                      A
 Frequencies --   3011.8675              3041.4505              3045.0448
 Red. masses --      1.0701                 1.0987                 1.0637
 Frc consts  --      5.7195                 5.9883                 5.8109
 IR Inten    --     83.4885                29.2834                27.0350

                     46                     47                     48
                      A                      A                      A
 Frequencies --   3082.9928              3087.8699              3106.3696
 Red. masses --      1.0600                 1.0890                 1.0883
 Frc consts  --      5.9364                 6.1177                 6.1872
 IR Inten    --     10.9287                30.4081                22.7003

                     49                     50                     51
                      A                      A                      A
 Frequencies --   3172.9676              3186.5242              3814.5984
 Red. masses --      1.1188                 1.0934                 1.0661
 Frc consts  --      6.6363                 6.5412                 9.1396
 IR Inten    --     27.1686                15.9338                16.2418

 - Thermochemistry -
 -------------------
 Temperature   298.150 Kelvin.  Pressure   1.00000 Atm.
 Atom     1 has atomic number  8 and mass  15.99491

 Molecular mass:   126.06808 amu.
 Principal axes and moments of inertia in atomic units:
                           1         2         3
     Eigenvalues --   508.103401756.250411985.71347
           X            0.99973  -0.01422  -0.01857
           Y            0.01373   0.99956  -0.02639
           Z            0.01894   0.02613   0.99948
 This molecule is an asymmetric top.
 Rotational symmetry number  1.
 Warning -- assumption of classical behavior for rotation
           may cause significant error
 Rotational temperatures (Kelvin)      0.17046     0.04932     0.04362
 Rotational constants (GHZ):           3.55192     1.02761     0.90886
 Zero-point vibrational energy     418201.9 (Joules/Mol)
                                   99.95265 (Kcal/Mol)
 Warning -- explicit consideration of  10 degrees of freedom as
           vibrations may cause significant error
 Vibrational temperatures:     94.18   119.32   241.84   277.12   432.53
          (Kelvin)            473.29   558.63   613.56   615.97   777.81
                              902.44  1105.31  1158.72  1200.44  1216.85
                             1258.10  1301.02  1326.26  1385.11  1393.23
                             1436.15  1487.63  1549.35  1579.16  1650.47
                             1672.49  1684.22  1704.25  1755.08  1785.25
                             1828.27  1857.83  1881.27  1925.09  1983.75
                             2040.09  2046.41  2109.25  2124.48  2193.36
                             2463.56  4310.39  4333.40  4375.96  4381.13
                             4435.73  4442.75  4469.37  4565.19  4584.69
                             5488.35

 Zero-point correction=                           0.159285 (Hartree/Particle)
 Thermal correction to Energy=                    0.167766
 Thermal correction to Enthalpy=                  0.168710
 Thermal correction to Gibbs Free Energy=         0.125603
 Sum of electronic and zero-point Energies=           -423.012520
 Sum of electronic and thermal Energies=              -423.004038
 Sum of electronic and thermal Enthalpies=            -423.003094
 Sum of electronic and thermal Free Energies=         -423.046201

                     E (Thermal)             CV                S
                      KCal/Mol        Cal/Mol-Kelvin    Cal/Mol-Kelvin
 Total                  105.275             31.982             90.727
 Electronic               0.000              0.000              0.000
 Translational            0.889              2.981             40.409
 Rotational               0.889              2.981             28.962
 Vibrational            103.497             26.021             21.356
 Vibration     1          0.597              1.971              4.286
 Vibration     2          0.600              1.961              3.820
 Vibration     3          0.625              1.882              2.457
 Vibration     4          0.635              1.850              2.203
 Vibration     5          0.693              1.673              1.413
 Vibration     6          0.712              1.618              1.265
 Vibration     7          0.756              1.495              1.007
 Vibration     8          0.788              1.413              0.870
 Vibration     9          0.790              1.409              0.865
 Vibration    10          0.896              1.160              0.564

 Optimization completed.
    -- Stationary point found.
 Normal termination of Gaussian 09 at Tue Jan 28 04:37:36 2020.
