 Gaussian 09, Revision D.01,
 Gaussian 09:  ES64L-G09RevD.01 24-Apr-2013

 -----------------------------
 # b3lyp 6-31G(2df,p) opt Freq
 -----------------------------

 -----
 titel
 -----
 Symbolic Z-matrix:
 Charge =  0 Multiplicity = 1

 SCF Done:  E(RB3LYP) =  -423.121798493     A.U. after   14 cycles
 Optimization completed.
    -- Stationary point found.
 Normal termination of Gaussian 09 at Mon Jan 27 14:10:53 2020.

 ----------------------------------------------------------------------
 #N Geom=AllCheck Guess=TCheck SCRF=Check GenChk RB3LYP/6-31G(2df,p) Fr
 eq
 ----------------------------------------------------------------------

 Structure from the checkpoint file:  "/scratch/puck/g09_535d21d7-f0c9-4b25-b528-911414fceb33/Gau-64271.chk"
 -----
 titel
 -----
 Charge =  0 Multiplicity = 1

                         Standard orientation:
 ---------------------------------------------------------------------
 Center     Atomic      Atomic             Coordinates (Angstroms)
 Number     Number       Type             X           Y           Z
 ---------------------------------------------------------------------
      1          6           0       -2.890255   -0.716244    0.459481
      2          6           0       -1.659671   -0.173135   -0.230197
      3          6           0       -0.995883    1.086857    0.237806
      4          8           0       -0.532841    1.964295   -0.749261
      5          6           0       -0.298081   -0.242802    0.431246
      6          6           0        0.932860   -0.557265   -0.402136
      7          8           0        1.141547   -1.955537   -0.573891
      8          6           0        2.118749    0.105649    0.161537
      9          6           0        3.072594    0.645985    0.657073
     10          1           0       -2.975104   -1.799100    0.319286
     11          1           0       -2.858849   -0.523914    1.537167
     12          1           0       -3.801286   -0.252353    0.066248
     13          1           0       -1.638018   -0.302484   -1.309605
     14          1           0       -1.403278    1.570651    1.126288
     15          1           0        0.300225    2.340136   -0.441471
     16          1           0       -0.254052   -0.623013    1.449969
     17          1           0        0.771192   -0.170453   -1.412998
     18          1           0        1.380784   -2.321571    0.284818
     19          1           0        3.926857    1.117763    1.076650
 ---------------------------------------------------------------------

 SCF Done:  E(RB3LYP) =  -423.121798493     A.U. after    1 cycles

 The electronic state is 1-A.
 Alpha  occ. eigenvalues --  -19.14487 -19.14215 -10.25841 -10.23560 -10.19222
 Alpha  occ. eigenvalues --  -10.19176 -10.18760 -10.18294 -10.18084  -1.03054
 Alpha  occ. eigenvalues --   -1.02432  -0.85912  -0.77150  -0.71961  -0.68953
 Alpha  occ. eigenvalues --   -0.59698  -0.58073  -0.54755  -0.52386  -0.49920
 Alpha  occ. eigenvalues --   -0.48778  -0.45681  -0.42483  -0.41772  -0.40460
 Alpha  occ. eigenvalues --   -0.38268  -0.36236  -0.35579  -0.32550  -0.29867
 Alpha  occ. eigenvalues --   -0.27874  -0.27636  -0.26597  -0.25316
 Alpha virt. eigenvalues --    0.02863   0.04704   0.07747   0.09573   0.10582
 Alpha virt. eigenvalues --    0.11655   0.12085   0.14876   0.15220   0.16348
 Alpha virt. eigenvalues --    0.16685   0.17399   0.18477   0.21071   0.23608

 Mulliken charges:
               1
     1  C   -0.419861
     2  C   -0.047319
     3  C    0.095796
     4  O   -0.426695
     5  C   -0.082752
     6  C   -0.067020
     7  O   -0.414719
     8  C    0.295369
     9  C   -0.465592
    10  H    0.124267
    11  H    0.113449
    12  H    0.123579
    13  H    0.102030
    14  H    0.084001
    15  H    0.292744
    16  H    0.080306
    17  H    0.130222
    18  H    0.281687
    19  H    0.200510
 Sum of Mulliken charges =   0.00000

 Dipole moment (field-independent basis, Debye):
    X=              0.3181    Y=              0.3218    Z=              2.2724  Tot=              2.3170
 Quadrupole moment (field-independent basis, Debye-Ang):
   XX=            -49.7966   YY=            -53.4898   ZZ=            -53.3478
   XY=              4.4876   XZ=              2.1458   YZ=             -0.6776

  Exact polarizability:  97.939   9.735  73.631   6.631   2.253  62.908
 Approx polarizability: 128.785  16.454 110.178  16.674   6.363 100.678

                      1                      2                      3
                      A                      A                      A
 Frequencies --     27.6650                97.2384               169.9214
 Red. masses --      4.5700                 4.1239                 3.6554
 Frc consts  --      0.0021                 0.0230                 0.0622
 IR Inten    --      1.0056                 0.3307                 1.5079

                      4                      5                      6
                      A                      A                      A
 Frequencies --    177.8256               202.6846               232.9736
 Red. masses --      2.2922                 1.3558                 2.8686
 Frc consts  --      0.0427                 0.0328                 0.0917
 IR Inten    --      1.3896                 3.1199                 6.0983

                      7                      8                      9
                      A                      A                      A
 Frequencies --    261.8324               303.9691               307.1791
 Red. masses --      1.9549                 1.5953                 2.5939
 Frc consts  --      0.0790                 0.0868                 0.1442
 IR Inten    --     32.9024                49.4942                 1.2921

                     10                     11                     12
                      A                      A                      A
 Frequencies --    372.7801               393.5270               448.4237
 Red. masses --      1.2227                 4.3301                 3.5066
 Frc consts  --      0.1001                 0.3951                 0.4154
 IR Inten    --    140.4617                19.8054                18.7523

                     13                     14                     15
                      A                      A                      A
 Frequencies --    508.3244               567.8132               628.3742
 Red. masses --      4.3202                 5.4406                 1.3036
 Frc consts  --      0.6577                 1.0335                 0.3033
 IR Inten    --     16.6538                 8.8626                41.4327

                     16                     17                     18
                      A                      A                      A
 Frequencies --    642.1429               673.1680               805.7240
 Red. masses --      4.0404                 1.2430                 2.5934
 Frc consts  --      0.9816                 0.3319                 0.9919
 IR Inten    --      3.3650                36.3706                 6.0282

                     19                     20                     21
                      A                      A                      A
 Frequencies --    848.5925               900.6988               930.1715
 Red. masses --      2.2334                 2.0653                 2.6581
 Frc consts  --      0.9476                 0.9872                 1.3550
 IR Inten    --      4.3627                 4.5831                19.1632

                     22                     23                     24
                      A                      A                      A
 Frequencies --   1000.9178              1039.2999              1060.4077
 Red. masses --      1.5914                 1.7662                 4.6804
 Frc consts  --      0.9394                 1.1240                 3.1008
 IR Inten    --     14.8778                32.0867               101.4401

                     25                     26                     27
                      A                      A                      A
 Frequencies --   1101.9686              1114.6092              1124.0430
 Red. masses --      1.2445                 2.8447                 2.2212
 Frc consts  --      0.8904                 2.0823                 1.6535
 IR Inten    --      6.5533                28.9277                21.0457

                     28                     29                     30
                      A                      A                      A
 Frequencies --   1149.5792              1183.5403              1219.4913
 Red. masses --      1.7653                 2.1792                 1.6278
 Frc consts  --      1.3745                 1.7985                 1.4263
 IR Inten    --     21.6061                 6.9179                46.2620

                     31                     32                     33
                      A                      A                      A
 Frequencies --   1248.5214              1291.8476              1307.6660
 Red. masses --      1.3417                 1.2778                 1.1756
 Frc consts  --      1.2323                 1.2564                 1.1844
 IR Inten    --     12.2783                12.3303                62.8571

                     34                     35                     36
                      A                      A                      A
 Frequencies --   1357.3882              1396.8338              1413.5640
 Red. masses --      1.2783                 1.4629                 1.1965
 Frc consts  --      1.3877                 1.6817                 1.4086
 IR Inten    --      2.6318                 9.2591                42.8552

                     37                     38                     39
                      A                      A                      A
 Frequencies --   1418.6054              1475.7375              1494.2217
 Red. masses --      1.2703                 2.0394                 1.0521
 Frc consts  --      1.5062                 2.6168                 1.3840
 IR Inten    --     10.8850                 4.6596                 2.8131

                     40                     41                     42
                      A                      A                      A
 Frequencies --   1503.9156              2225.7434              3029.1150
 Red. masses --      1.1751                 5.9119                 1.0351
 Frc consts  --      1.5660                17.2554                 5.5958
 IR Inten    --      6.8632                 0.6326                32.5899

                     43                     44                     45
                      A                      A                      A
 Frequencies --   3070.6974              3091.6884              3095.4267
 Red. masses --      1.0829                 1.0890                 1.1009
 Frc consts  --      6.0163                 6.1332                 6.2152
 IR Inten    --      3.0014                25.0563                18.8943

                     46                     47                     48
                      A                      A                      A
 Frequencies --   3096.2914              3127.9027              3146.9438
 Red. masses --      1.0990                 1.0891                 1.0869
 Frc consts  --      6.2075                 6.2783                 6.3421
 IR Inten    --     31.1698                12.3314                17.3535

                     49                     50                     51
                      A                      A                      A
 Frequencies --   3501.0033              3787.1668              3805.9574
 Red. masses --      1.1618                 1.0662                 1.0662
 Frc consts  --      8.3903                 9.0094                 9.0994
 IR Inten    --     65.3307                22.4949                22.8506

 - Thermochemistry -
 -------------------
 Temperature   298.150 Kelvin.  Pressure   1.00000 Atm.
 Atom     1 has atomic number  6 and mass  12.00000

 Molecular mass:   126.06808 amu.
 Principal axes and moments of inertia in atomic units:
                           1         2         3
     Eigenvalues --   751.509991580.533312055.18425
           X            0.99939   0.03438  -0.00590
           Y           -0.03440   0.99940  -0.00338
           Z            0.00578   0.00359   0.99998
 This molecule is an asymmetric top.
 Rotational symmetry number  1.
 Warning -- assumption of classical behavior for rotation
           may cause significant error
 Rotational temperatures (Kelvin)      0.11525     0.05480     0.04214
 Rotational constants (GHZ):           2.40149     1.14186     0.87814
 Zero-point vibrational energy     409010.0 (Joules/Mol)
                                   97.75572 (Kcal/Mol)
 Warning -- explicit consideration of  14 degrees of freedom as
           vibrations may cause significant error
 Vibrational temperatures:     39.80   139.90   244.48   255.85   291.62
          (Kelvin)            335.20   376.72   437.34   441.96   536.35
                              566.20   645.18   731.36   816.96   904.09
                              923.90   968.54  1159.26  1220.93  1295.90
                             1338.31  1440.10  1495.32  1525.69  1585.49
                             1603.67  1617.25  1653.99  1702.85  1754.57
                             1796.34  1858.68  1881.44  1952.98  2009.73
                             2033.80  2041.05  2123.25  2149.85  2163.80
                             3202.34  4358.22  4418.04  4448.24  4453.62
                             4454.87  4500.35  4527.74  5037.16  5448.88
                             5475.92

 Zero-point correction=                           0.155784 (Hartree/Particle)
 Thermal correction to Energy=                    0.166078
 Thermal correction to Enthalpy=                  0.167023
 Thermal correction to Gibbs Free Energy=         0.120041
 Sum of electronic and zero-point Energies=           -422.966015
 Sum of electronic and thermal Energies=              -422.955720
 Sum of electronic and thermal Enthalpies=            -422.954776
 Sum of electronic and thermal Free Energies=         -423.001758

                     E (Thermal)             CV                S
                      KCal/Mol        Cal/Mol-Kelvin    Cal/Mol-Kelvin
 Total                  104.216             37.644             98.882
 Electronic               0.000              0.000              0.000
 Translational            0.889              2.981             40.409
 Rotational               0.889              2.981             29.280
 Vibrational            102.438             31.683             29.193
 Vibration     1          0.593              1.984              5.990
 Vibration     2          0.603              1.951              3.509
 Vibration     3          0.625              1.880              2.436
 Vibration     4          0.628              1.870              2.351
 Vibration     5          0.639              1.836              2.109
 Vibration     6          0.654              1.790              1.856
 Vibration     7          0.669              1.743              1.650
 Vibration     8          0.695              1.666              1.395
 Vibration     9          0.697              1.660              1.377
 Vibration    10          0.744              1.528              1.068
 Vibration    11          0.761              1.484              0.987
 Vibration    12          0.807              1.364              0.801
 Vibration    13          0.863              1.232              0.638
 Vibration    14          0.924              1.101              0.508

 Optimization completed.
    -- Stationary point found.
 Normal termination of Gaussian 09 at Mon Jan 27 15:05:36 2020.
