 Gaussian 09, Revision D.01,
 Gaussian 09:  ES64L-G09RevD.01 24-Apr-2013

 -----------------------------
 # b3lyp 6-31G(2df,p) opt Freq
 -----------------------------

 -----
 titel
 -----
 Symbolic Z-matrix:
 Charge =  0 Multiplicity = 1

 SCF Done:  E(RB3LYP) =  -423.213662732     A.U. after   14 cycles
 Optimization completed.
    -- Stationary point found.
 Normal termination of Gaussian 09 at Mon Jan 27 14:12:50 2020.

 ----------------------------------------------------------------------
 #N Geom=AllCheck Guess=TCheck SCRF=Check GenChk RB3LYP/6-31G(2df,p) Fr
 eq
 ----------------------------------------------------------------------

 Structure from the checkpoint file:  "/scratch/puck/g09_e66a2a85-9a3d-482b-8276-b75644ceeb8c/Gau-171154.chk"
 -----
 titel
 -----
 Charge =  0 Multiplicity = 1

                         Standard orientation:
 ---------------------------------------------------------------------
 Center     Atomic      Atomic             Coordinates (Angstroms)
 Number     Number       Type             X           Y           Z
 ---------------------------------------------------------------------
      1          6           0        3.117832    0.460506    0.626420
      2          6           0        2.042106   -0.207607   -0.208093
      3          8           0        2.075020   -1.386919   -0.478406
      4          6           0        0.881717    0.669122   -0.672376
      5          6           0       -0.307760    0.557236    0.291412
      6          6           0       -1.651956    1.186647   -0.199292
      7          6           0       -2.329369   -0.169790    0.069640
      8          8           0       -3.467847   -0.535910    0.070382
      9          6           0       -0.990749   -0.845381    0.397399
     10          1           0        2.673688    1.021031    1.457079
     11          1           0        3.816345   -0.284388    1.008876
     12          1           0        3.660105    1.189004    0.011648
     13          1           0        1.191281    1.717114   -0.754543
     14          1           0        0.577428    0.318255   -1.664179
     15          1           0       -0.029335    0.941088    1.277164
     16          1           0       -2.050918    2.031693    0.368122
     17          1           0       -1.657368    1.451627   -1.262524
     18          1           0       -0.948696   -1.355801    1.363152
     19          1           0       -0.660835   -1.551392   -0.371265
 ---------------------------------------------------------------------

 SCF Done:  E(RB3LYP) =  -423.213662732     A.U. after    1 cycles

 The electronic state is 1-A.
 Alpha  occ. eigenvalues --  -19.13674 -19.13505 -10.27745 -10.27132 -10.21485
 Alpha  occ. eigenvalues --  -10.20111 -10.19717 -10.19688 -10.19178  -1.04591
 Alpha  occ. eigenvalues --   -1.04535  -0.85750  -0.77487  -0.72563  -0.68659
 Alpha  occ. eigenvalues --   -0.60788  -0.54129  -0.52996  -0.49282  -0.47319
 Alpha  occ. eigenvalues --   -0.46792  -0.45216  -0.43838  -0.42964  -0.40901
 Alpha  occ. eigenvalues --   -0.40353  -0.39492  -0.38700  -0.35755  -0.34604
 Alpha  occ. eigenvalues --   -0.33785  -0.33577  -0.24979  -0.24312
 Alpha virt. eigenvalues --   -0.02456  -0.01743   0.07012   0.10118   0.11665
 Alpha virt. eigenvalues --    0.12107   0.13793   0.14056   0.14767   0.15606
 Alpha virt. eigenvalues --    0.16469   0.17313   0.18272   0.19914   0.21198

 Mulliken charges:
               1
     1  C   -0.476327
     2  C    0.388462
     3  O   -0.300057
     4  C   -0.310139
     5  C    0.018021
     6  C   -0.371758
     7  C    0.408077
     8  O   -0.286479
     9  C   -0.355758
    10  H    0.137638
    11  H    0.145088
    12  H    0.144312
    13  H    0.104959
    14  H    0.121448
    15  H    0.084223
    16  H    0.131119
    17  H    0.131223
    18  H    0.132361
    19  H    0.153587
 Sum of Mulliken charges =   0.00000

 Dipole moment (field-independent basis, Debye):
    X=              2.5376    Y=              3.2872    Z=              0.6623  Tot=              4.2052
 Quadrupole moment (field-independent basis, Debye-Ang):
   XX=            -65.4026   YY=            -55.2195   ZZ=            -50.7054
   XY=              2.0736   XZ=              1.7274   YZ=             -1.1998

  Exact polarizability:  92.903   0.735  75.435   2.821  -0.651  61.675
 Approx polarizability: 120.052   2.323 120.233   2.191   2.480  95.168

                      1                      2                      3
                      A                      A                      A
 Frequencies --     24.3412                43.9605                72.0171
 Red. masses --      4.2394                 3.4632                 4.0151
 Frc consts  --      0.0015                 0.0039                 0.0123
 IR Inten    --      1.1755                 5.8832                 3.3531

                      4                      5                      6
                      A                      A                      A
 Frequencies --    135.1391               155.5153               282.4172
 Red. masses --      1.8342                 1.4371                 4.0237
 Frc consts  --      0.0197                 0.0205                 0.1891
 IR Inten    --      0.9414                 0.1849                 1.1049

                      7                      8                      9
                      A                      A                      A
 Frequencies --    324.1136               394.3617               418.9892
 Red. masses --      3.2589                 2.2094                 1.5857
 Frc consts  --      0.2017                 0.2025                 0.1640
 IR Inten    --      1.8117                 1.5067                 0.1917

                     10                     11                     12
                      A                      A                      A
 Frequencies --    480.7853               527.6199               567.8371
 Red. masses --      3.5984                 2.9260                 2.7437
 Frc consts  --      0.4901                 0.4799                 0.5212
 IR Inten    --      1.7453                11.8596                 8.6516

                     13                     14                     15
                      A                      A                      A
 Frequencies --    647.2797               672.3051               767.1080
 Red. masses --      1.4617                 3.3954                 2.3935
 Frc consts  --      0.3608                 0.9042                 0.8298
 IR Inten    --      1.3169                 0.4680                 0.9464

                     16                     17                     18
                      A                      A                      A
 Frequencies --    801.3019               878.1129               910.7554
 Red. masses --      2.9459                 2.0118                 3.4210
 Frc consts  --      1.1144                 0.9140                 1.6719
 IR Inten    --      0.8611                 1.2033                 3.4301

                     19                     20                     21
                      A                      A                      A
 Frequencies --    928.9401               958.8133               993.7896
 Red. masses --      1.7682                 1.4419                 1.4591
 Frc consts  --      0.8990                 0.7810                 0.8490
 IR Inten    --      2.9719                14.9075                10.4704

                     22                     23                     24
                      A                      A                      A
 Frequencies --   1044.7094              1060.0641              1101.9878
 Red. masses --      2.4836                 2.6420                 2.4635
 Frc consts  --      1.5971                 1.7492                 1.7626
 IR Inten    --      5.1386                23.3779                23.5071

                     25                     26                     27
                      A                      A                      A
 Frequencies --   1112.0474              1145.6825              1193.9906
 Red. masses --      2.8307                 1.4539                 1.3787
 Frc consts  --      2.0625                 1.1244                 1.1580
 IR Inten    --     14.6431                18.0877                 1.2869

                     28                     29                     30
                      A                      A                      A
 Frequencies --   1215.1887              1240.8203              1253.1361
 Red. masses --      1.8642                 1.6121                 1.4540
 Frc consts  --      1.6220                 1.4624                 1.3453
 IR Inten    --     23.5843                15.0074                30.5660

                     31                     32                     33
                      A                      A                      A
 Frequencies --   1266.8452              1321.1711              1366.0841
 Red. masses --      1.3147                 1.6261                 1.3602
 Frc consts  --      1.2432                 1.6723                 1.4956
 IR Inten    --      9.3597                29.6232                13.8244

                     34                     35                     36
                      A                      A                      A
 Frequencies --   1380.6504              1426.3634              1444.7494
 Red. masses --      1.3315                 1.0852                 1.1157
 Frc consts  --      1.4954                 1.3008                 1.3721
 IR Inten    --     42.1976                17.3121                 1.3781

                     37                     38                     39
                      A                      A                      A
 Frequencies --   1459.9568              1473.9428              1480.7261
 Red. masses --      1.0544                 1.0559                 1.0964
 Frc consts  --      1.3241                 1.3515                 1.4164
 IR Inten    --      9.0278                 4.1209                 8.9940

                     40                     41                     42
                      A                      A                      A
 Frequencies --   1807.5556              1895.5806              3031.1561
 Red. masses --     10.4609                12.7287                 1.0408
 Frc consts  --     20.1373                26.9476                 5.6341
 IR Inten    --    130.6505               290.3753                 2.0080

                     43                     44                     45
                      A                      A                      A
 Frequencies --   3036.6140              3050.1920              3058.8579
 Red. masses --      1.0543                 1.0605                 1.0859
 Frc consts  --      5.7280                 5.8133                 5.9865
 IR Inten    --     13.0836                 9.6095                10.5240

                     46                     47                     48
                      A                      A                      A
 Frequencies --   3064.7561              3090.6181              3091.8514
 Red. masses --      1.0608                 1.0981                 1.1041
 Frc consts  --      5.8705                 6.1798                 6.2189
 IR Inten    --      3.1049                10.4425                19.0141

                     49                     50                     51
                      A                      A                      A
 Frequencies --   3110.2264              3116.6791              3153.3008
 Red. masses --      1.1030                 1.1041                 1.1016
 Frc consts  --      6.2863                 6.3191                 6.4539
 IR Inten    --     12.1136                 7.8632                 9.7774

 - Thermochemistry -
 -------------------
 Temperature   298.150 Kelvin.  Pressure   1.00000 Atm.
 Atom     1 has atomic number  6 and mass  12.00000

 Molecular mass:   126.06808 amu.
 Principal axes and moments of inertia in atomic units:
                           1         2         3
     Eigenvalues --   427.974762224.545102440.80619
           X            0.99990   0.00864   0.01080
           Y           -0.00835   0.99960  -0.02711
           Z           -0.01103   0.02702   0.99957
 This molecule is an asymmetric top.
 Rotational symmetry number  1.
 Rotational temperatures (Kelvin)      0.20238     0.03894     0.03549
 Rotational constants (GHZ):           4.21693     0.81129     0.73940
 Zero-point vibrational energy     409607.4 (Joules/Mol)
                                   97.89851 (Kcal/Mol)
 Warning -- explicit consideration of  12 degrees of freedom as
           vibrations may cause significant error
 Vibrational temperatures:     35.02    63.25   103.62   194.43   223.75
          (Kelvin)            406.33   466.33   567.40   602.83   691.74
                              759.13   816.99   931.29   967.30  1103.70
                             1152.89  1263.41  1310.37  1336.54  1379.52
                             1429.84  1503.10  1525.19  1585.51  1599.99
                             1648.38  1717.88  1748.38  1785.26  1802.98
                             1822.71  1900.87  1965.49  1986.45  2052.22
                             2078.67  2100.55  2120.67  2130.43  2600.67
                             2727.31  4361.15  4369.00  4388.54  4401.01
                             4409.49  4446.70  4448.48  4474.92  4484.20
                             4536.89

 Zero-point correction=                           0.156011 (Hartree/Particle)
 Thermal correction to Energy=                    0.165663
 Thermal correction to Enthalpy=                  0.166608
 Thermal correction to Gibbs Free Energy=         0.119357
 Sum of electronic and zero-point Energies=           -423.057652
 Sum of electronic and thermal Energies=              -423.047999
 Sum of electronic and thermal Enthalpies=            -423.047055
 Sum of electronic and thermal Free Energies=         -423.094305

                     E (Thermal)             CV                S
                      KCal/Mol        Cal/Mol-Kelvin    Cal/Mol-Kelvin
 Total                  103.955             34.202             99.446
 Electronic               0.000              0.000              0.000
 Translational            0.889              2.981             40.409
 Rotational               0.889              2.981             29.231
 Vibrational            102.178             28.241             29.806
 Vibration     1          0.593              1.985              6.244
 Vibration     2          0.595              1.980              5.072
 Vibration     3          0.598              1.967              4.097
 Vibration     4          0.613              1.918              2.872
 Vibration     5          0.620              1.897              2.604
 Vibration     6          0.681              1.706              1.519
 Vibration     7          0.709              1.627              1.289
 Vibration     8          0.761              1.482              0.984
 Vibration     9          0.782              1.429              0.895
 Vibration    10          0.837              1.293              0.708
 Vibration    11          0.883              1.189              0.593
 Vibration    12          0.924              1.101              0.508

 Optimization completed.
    -- Stationary point found.
 Normal termination of Gaussian 09 at Mon Jan 27 14:55:01 2020.
