 Gaussian 09, Revision D.01,
 Gaussian 09:  ES64L-G09RevD.01 24-Apr-2013

 -----------------------------
 # b3lyp 6-31G(2df,p) opt Freq
 -----------------------------

 -----
 titel
 -----
 Symbolic Z-matrix:
 Charge =  0 Multiplicity = 1

 SCF Done:  E(RB3LYP) =  -423.210384078     A.U. after   14 cycles
 Optimization completed.
    -- Stationary point found.
 Normal termination of Gaussian 09 at Mon Jan 27 17:05:23 2020.

 ----------------------------------------------------------------------
 #N Geom=AllCheck Guess=TCheck SCRF=Check GenChk RB3LYP/6-31G(2df,p) Fr
 eq
 ----------------------------------------------------------------------

 Structure from the checkpoint file:  "/scratch/puck/g09_50558cc8-3268-47fc-b484-3b78013e72af/Gau-59655.chk"
 -----
 titel
 -----
 Charge =  0 Multiplicity = 1

                         Standard orientation:
 ---------------------------------------------------------------------
 Center     Atomic      Atomic             Coordinates (Angstroms)
 Number     Number       Type             X           Y           Z
 ---------------------------------------------------------------------
      1          8           0        1.313318   -1.689967   -0.748608
      2          6           0        0.641822   -0.689566   -0.016213
      3          6           0       -0.563046   -1.196550    0.849171
      4          6           0       -1.476598   -0.270240    0.034170
      5          8           0       -2.629821    0.041991    0.119637
      6          6           0       -0.334107    0.166254   -0.897466
      7          6           0        0.089046    1.636635   -0.748946
      8          6           0        0.819960    1.673343    0.610348
      9          6           0        1.574136    0.329784    0.665455
     10          1           0        1.863005   -2.192856   -0.137978
     11          1           0       -0.779897   -2.253934    0.665479
     12          1           0       -0.540824   -1.015279    1.928279
     13          1           0       -0.456338   -0.171630   -1.929243
     14          1           0        0.778159    1.903172   -1.557934
     15          1           0       -0.763078    2.320030   -0.798552
     16          1           0        1.485171    2.534474    0.713655
     17          1           0        0.089525    1.734162    1.426319
     18          1           0        2.487003    0.389514    0.061510
     19          1           0        1.862015    0.038200    1.681123
 ---------------------------------------------------------------------

 SCF Done:  E(RB3LYP) =  -423.210384078     A.U. after    1 cycles

 The electronic state is 1-A.
 Alpha  occ. eigenvalues --  -19.14546 -19.13433 -10.26587 -10.24405 -10.19046
 Alpha  occ. eigenvalues --  -10.18998 -10.18800 -10.18750 -10.18729  -1.04298
 Alpha  occ. eigenvalues --   -1.02961  -0.86217  -0.77656  -0.72197  -0.66447
 Alpha  occ. eigenvalues --   -0.60002  -0.57818  -0.52262  -0.50304  -0.48358
 Alpha  occ. eigenvalues --   -0.46587  -0.43948  -0.43087  -0.42367  -0.41025
 Alpha  occ. eigenvalues --   -0.38356  -0.36262  -0.35411  -0.34837  -0.34339
 Alpha  occ. eigenvalues --   -0.33321  -0.30114  -0.27162  -0.23598
 Alpha virt. eigenvalues --   -0.02151   0.06790   0.08704   0.10592   0.12747
 Alpha virt. eigenvalues --    0.13968   0.14811   0.15232   0.15847   0.16808
 Alpha virt. eigenvalues --    0.17204   0.18717   0.19931   0.21069   0.22642

 Mulliken charges:
               1
     1  O   -0.488322
     2  C    0.414308
     3  C   -0.419974
     4  C    0.416857
     5  O   -0.305827
     6  C   -0.172596
     7  C   -0.220971
     8  C   -0.223474
     9  C   -0.279492
    10  H    0.277991
    11  H    0.133462
    12  H    0.120417
    13  H    0.105515
    14  H    0.107595
    15  H    0.118161
    16  H    0.103898
    17  H    0.112220
    18  H    0.107796
    19  H    0.092434
 Sum of Mulliken charges =   0.00000

 Dipole moment (field-independent basis, Debye):
    X=              3.0158    Y=             -0.2691    Z=              1.0919  Tot=              3.2187
 Quadrupole moment (field-independent basis, Debye-Ang):
   XX=            -60.6349   YY=            -49.8739   ZZ=            -52.6219
   XY=             -0.0775   XZ=              2.5675   YZ=             -2.8934

  Exact polarizability:  79.259  -0.952  76.184   0.399  -3.827  67.925
 Approx polarizability: 118.523  -5.762 105.808  -1.787  -4.014 103.762

                      1                      2                      3
                      A                      A                      A
 Frequencies --     60.8265               165.7807               236.4393
 Red. masses --      4.1094                 2.9942                 2.0655
 Frc consts  --      0.0090                 0.0485                 0.0680
 IR Inten    --      3.8199                 0.1153                 0.6769

                      4                      5                      6
                      A                      A                      A
 Frequencies --    264.0313               308.2712               360.7003
 Red. masses --      1.0782                 2.9265                 2.3188
 Frc consts  --      0.0443                 0.1639                 0.1777
 IR Inten    --     82.7797                 4.3923                 3.7451

                      7                      8                      9
                      A                      A                      A
 Frequencies --    381.9802               439.7786               524.0537
 Red. masses --      4.8492                 3.1287                 2.3350
 Frc consts  --      0.4169                 0.3565                 0.3778
 IR Inten    --     26.1791                 3.6597                 1.4834

                     10                     11                     12
                      A                      A                      A
 Frequencies --    565.3635               584.3803               603.0621
 Red. masses --      2.7407                 2.7970                 3.2130
 Frc consts  --      0.5161                 0.5628                 0.6885
 IR Inten    --      1.0038                 1.7485                 1.2228

                     13                     14                     15
                      A                      A                      A
 Frequencies --    731.7980               799.3047               828.8942
 Red. masses --      2.4859                 2.6433                 2.2511
 Frc consts  --      0.7844                 0.9950                 0.9113
 IR Inten    --      0.4674                 2.4809                 1.7740

                     16                     17                     18
                      A                      A                      A
 Frequencies --    872.3179               893.7711               904.8188
 Red. masses --      2.4135                 2.3316                 1.8336
 Frc consts  --      1.0821                 1.0974                 0.8844
 IR Inten    --      0.3072                 1.5414                 1.1845

                     19                     20                     21
                      A                      A                      A
 Frequencies --    933.1878               973.8740              1009.5771
 Red. masses --      2.0453                 1.7890                 1.5212
 Frc consts  --      1.0494                 0.9997                 0.9135
 IR Inten    --      2.3083                 5.5229                 7.9041

                     22                     23                     24
                      A                      A                      A
 Frequencies --   1033.3490              1059.1438              1082.7508
 Red. masses --      1.8633                 2.0710                 1.9188
 Frc consts  --      1.1722                 1.3688                 1.3253
 IR Inten    --      8.4533                69.5475                41.9672

                     25                     26                     27
                      A                      A                      A
 Frequencies --   1116.0871              1135.6194              1183.9631
 Red. masses --      2.0589                 2.1792                 1.6525
 Frc consts  --      1.5111                 1.6558                 1.3648
 IR Inten    --      9.5809                 7.7102                 6.4481

                     28                     29                     30
                      A                      A                      A
 Frequencies --   1195.0050              1221.0199              1252.5481
 Red. masses --      1.4542                 1.9615                 2.0308
 Frc consts  --      1.2235                 1.7230                 1.8772
 IR Inten    --     20.6423                 6.6326                32.6663

                     31                     32                     33
                      A                      A                      A
 Frequencies --   1262.3487              1274.9141              1317.8575
 Red. masses --      1.2934                 1.9514                 1.3653
 Frc consts  --      1.2143                 1.8688                 1.3971
 IR Inten    --      5.8689                41.6161                23.8240

                     34                     35                     36
                      A                      A                      A
 Frequencies --   1333.4724              1346.1149              1378.0784
 Red. masses --      1.5188                 1.3782                 1.6640
 Frc consts  --      1.5911                 1.4714                 1.8619
 IR Inten    --     22.9591                 2.0360                 9.5642

                     37                     38                     39
                      A                      A                      A
 Frequencies --   1420.9429              1482.8082              1490.0519
 Red. masses --      1.1412                 1.0924                 1.0809
 Frc consts  --      1.3576                 1.4151                 1.4139
 IR Inten    --      8.8787                 2.2799                 2.8234

                     40                     41                     42
                      A                      A                      A
 Frequencies --   1504.5928              1886.3637              3035.0068
 Red. masses --      1.1035                12.7331                 1.0645
 Frc consts  --      1.4718                26.6953                 5.7770
 IR Inten    --      3.0173               240.6006                17.9215

                     43                     44                     45
                      A                      A                      A
 Frequencies --   3035.7619              3045.0002              3047.9430
 Red. masses --      1.0637                 1.0620                 1.0582
 Frc consts  --      5.7756                 5.8016                 5.7921
 IR Inten    --     25.0915                25.4585                 8.2920

                     46                     47                     48
                      A                      A                      A
 Frequencies --   3081.4923              3093.3150              3094.9039
 Red. masses --      1.1018                 1.0863                 1.0968
 Frc consts  --      6.1641                 6.1242                 6.1899
 IR Inten    --     24.5987                 8.6133                24.2518

                     49                     50                     51
                      A                      A                      A
 Frequencies --   3102.8732              3106.9842              3803.8834
 Red. masses --      1.1037                 1.1059                 1.0661
 Frc consts  --      6.2605                 6.2901                 9.0883
 IR Inten    --     29.4924                 9.2045                20.6465

 - Thermochemistry -
 -------------------
 Temperature   298.150 Kelvin.  Pressure   1.00000 Atm.
 Atom     1 has atomic number  8 and mass  15.99491

 Molecular mass:   126.06808 amu.
 Principal axes and moments of inertia in atomic units:
                           1         2         3
     Eigenvalues --   809.948701036.997491416.03356
           X            0.99860   0.05001   0.01713
           Y           -0.04949   0.99834  -0.02949
           Z           -0.01857   0.02860   0.99942
 This molecule is an asymmetric top.
 Rotational symmetry number  1.
 Warning -- assumption of classical behavior for rotation
           may cause significant error
 Rotational temperatures (Kelvin)      0.10694     0.08352     0.06117
 Rotational constants (GHZ):           2.22822     1.74035     1.27450
 Zero-point vibrational energy     417893.9 (Joules/Mol)
                                   99.87904 (Kcal/Mol)
 Warning -- explicit consideration of  12 degrees of freedom as
           vibrations may cause significant error
 Vibrational temperatures:     87.52   238.52   340.18   379.88   443.53
          (Kelvin)            518.97   549.58   632.74   754.00   813.43
                              840.79   867.67  1052.89  1150.02  1192.59
                             1255.07  1285.94  1301.83  1342.65  1401.19
                             1452.55  1486.76  1523.87  1557.83  1605.80
                             1633.90  1703.46  1719.34  1756.77  1802.14
                             1816.24  1834.31  1896.10  1918.57  1936.76
                             1982.74  2044.42  2133.43  2143.85  2164.77
                             2714.05  4366.69  4367.78  4381.07  4385.30
                             4433.57  4450.58  4452.87  4464.34  4470.25
                             5472.93

 Zero-point correction=                           0.159167 (Hartree/Particle)
 Thermal correction to Energy=                    0.167300
 Thermal correction to Enthalpy=                  0.168244
 Thermal correction to Gibbs Free Energy=         0.126502
 Sum of electronic and zero-point Energies=           -423.051217
 Sum of electronic and thermal Energies=              -423.043084
 Sum of electronic and thermal Enthalpies=            -423.042140
 Sum of electronic and thermal Free Energies=         -423.083882

                     E (Thermal)             CV                S
                      KCal/Mol        Cal/Mol-Kelvin    Cal/Mol-Kelvin
 Total                  104.982             32.086             87.853
 Electronic               0.000              0.000              0.000
 Translational            0.889              2.981             40.409
 Rotational               0.889              2.981             28.566
 Vibrational            103.205             26.125             18.879
 Vibration     1          0.597              1.973              4.430
 Vibration     2          0.624              1.885              2.483
 Vibration     3          0.655              1.785              1.830
 Vibration     4          0.671              1.739              1.635
 Vibration     5          0.698              1.658              1.372
 Vibration     6          0.735              1.553              1.119
 Vibration     7          0.751              1.509              1.031
 Vibration     8          0.800              1.383              0.827
 Vibration     9          0.879              1.197              0.601
 Vibration    10          0.921              1.106              0.513
 Vibration    11          0.941              1.065              0.477
 Vibration    12          0.961              1.025              0.444

 Normal termination of Gaussian 09 at Mon Jan 27 17:50:46 2020.
