 Gaussian 09, Revision D.01,
 Gaussian 09:  ES64L-G09RevD.01 24-Apr-2013

 -----------------------------
 # b3lyp 6-31G(2df,p) opt Freq
 -----------------------------

 -----
 titel
 -----
 Symbolic Z-matrix:
 Charge =  0 Multiplicity = 1

 SCF Done:  E(RB3LYP) =  -423.226592231     A.U. after   14 cycles
 Optimization completed.
    -- Stationary point found.
 Normal termination of Gaussian 09 at Tue Jan 28 00:35:43 2020.

 ----------------------------------------------------------------------
 #N Geom=AllCheck Guess=TCheck SCRF=Check GenChk RB3LYP/6-31G(2df,p) Fr
 eq
 ----------------------------------------------------------------------

 Structure from the checkpoint file:  "/scratch/puck/g09_3f5d3803-aa09-4fe7-b6f1-e26e5a98e667/Gau-107459.chk"
 -----
 titel
 -----
 Charge =  0 Multiplicity = 1

                         Standard orientation:
 ---------------------------------------------------------------------
 Center     Atomic      Atomic             Coordinates (Angstroms)
 Number     Number       Type             X           Y           Z
 ---------------------------------------------------------------------
      1          6           0       -2.342528   -0.877897    0.313606
      2          6           0       -1.188054   -0.319717   -0.507624
      3          8           0       -0.053298   -1.210383   -0.335413
      4          6           0        1.168779   -0.725024    0.019761
      5          8           0        2.097485   -1.476143    0.130931
      6          6           0        1.222139    0.769638    0.254936
      7          6           0        0.007054    1.169028    1.142275
      8          6           0       -0.815460    1.124056   -0.173799
      9          6           0        0.494809    1.484985   -0.921333
     10          1           0       -2.507298   -1.928836    0.063753
     11          1           0       -2.137696   -0.809996    1.385895
     12          1           0       -3.260985   -0.322261    0.099663
     13          1           0       -1.445843   -0.377715   -1.573548
     14          1           0        2.232451    1.059264    0.537501
     15          1           0       -0.271356    0.505286    1.964015
     16          1           0        0.112860    2.189228    1.517678
     17          1           0       -1.686915    1.773536   -0.282634
     18          1           0        0.638764    1.094022   -1.932447
     19          1           0        0.692088    2.559263   -0.910949
 ---------------------------------------------------------------------

 SCF Done:  E(RB3LYP) =  -423.226592231     A.U. after    1 cycles

 The electronic state is 1-A.
 Alpha  occ. eigenvalues --  -19.17159 -19.11297 -10.29748 -10.25367 -10.20939
 Alpha  occ. eigenvalues --  -10.20702 -10.20249 -10.20207 -10.18750  -1.08781
 Alpha  occ. eigenvalues --   -1.00890  -0.87597  -0.78521  -0.69288  -0.67841
 Alpha  occ. eigenvalues --   -0.63460  -0.61640  -0.52327  -0.51469  -0.49645
 Alpha  occ. eigenvalues --   -0.46633  -0.45032  -0.42869  -0.41485  -0.40565
 Alpha  occ. eigenvalues --   -0.40116  -0.39246  -0.37619  -0.34014  -0.33189
 Alpha  occ. eigenvalues --   -0.33073  -0.31346  -0.28565  -0.25607
 Alpha virt. eigenvalues --    0.01879   0.07269   0.09247   0.10574   0.11921
 Alpha virt. eigenvalues --    0.12535   0.13758   0.14927   0.16202   0.16989
 Alpha virt. eigenvalues --    0.17745   0.18112   0.18737   0.20367   0.21026

 Mulliken charges:
               1
     1  C   -0.402021
     2  C    0.137385
     3  O   -0.255998
     4  C    0.426686
     5  O   -0.339338
     6  C   -0.137705
     7  C   -0.242476
     8  C   -0.027667
     9  C   -0.248046
    10  H    0.137594
    11  H    0.127095
    12  H    0.118746
    13  H    0.093310
    14  H    0.093864
    15  H    0.113293
    16  H    0.110055
    17  H    0.075120
    18  H    0.111152
    19  H    0.108952
 Sum of Mulliken charges =   0.00000

 Dipole moment (field-independent basis, Debye):
    X=             -2.9650    Y=              3.4512    Z=             -0.1080  Tot=              4.5512
 Quadrupole moment (field-independent basis, Debye-Ang):
   XX=            -56.3362   YY=            -56.4316   ZZ=            -51.4223
   XY=              5.9118   XZ=              0.0764   YZ=              0.0480

  Exact polarizability:  85.126  -0.746  74.822   1.641  -0.352  65.326
 Approx polarizability: 122.630  -8.153 109.060   4.724  -0.557  99.332

                      1                      2                      3
                      A                      A                      A
 Frequencies --    111.9695               164.8757               226.4885
 Red. masses --      5.3965                 3.3653                 1.0638
 Frc consts  --      0.0399                 0.0539                 0.0322
 IR Inten    --      0.1070                 2.0336                 0.0151

                      4                      5                      6
                      A                      A                      A
 Frequencies --    268.7630               343.6684               394.0646
 Red. masses --      2.4762                 3.1141                 2.2982
 Frc consts  --      0.1054                 0.2167                 0.2103
 IR Inten    --      0.5012                 2.1916                 0.1699

                      7                      8                      9
                      A                      A                      A
 Frequencies --    440.4323               484.5870               520.0528
 Red. masses --      4.4223                 4.3276                 4.0869
 Frc consts  --      0.5054                 0.5987                 0.6512
 IR Inten    --      2.5704                 3.1534                 5.1746

                     10                     11                     12
                      A                      A                      A
 Frequencies --    624.1870               734.9521               750.8078
 Red. masses --      2.9405                 3.2447                 4.9569
 Frc consts  --      0.6750                 1.0326                 1.6463
 IR Inten    --      0.8468                 0.6770                 5.2627

                     13                     14                     15
                      A                      A                      A
 Frequencies --    817.5225               837.1357               903.9175
 Red. masses --      2.3430                 1.8895                 4.6538
 Frc consts  --      0.9226                 0.7802                 2.2403
 IR Inten    --      0.2539                 0.2311                13.4193

                     16                     17                     18
                      A                      A                      A
 Frequencies --    906.0143               928.3537               959.3075
 Red. masses --      2.4054                 2.1336                 2.4425
 Frc consts  --      1.1634                 1.0834                 1.3244
 IR Inten    --      0.7929                 0.6285                14.5381

                     19                     20                     21
                      A                      A                      A
 Frequencies --    983.1706              1027.9452              1039.3718
 Red. masses --      1.5978                 1.8570                 1.8987
 Frc consts  --      0.9100                 1.1561                 1.2085
 IR Inten    --      2.5130                26.8660                42.5627

                     22                     23                     24
                      A                      A                      A
 Frequencies --   1058.1563              1070.7253              1111.9253
 Red. masses --      1.5109                 1.6919                 1.5438
 Frc consts  --      0.9967                 1.1428                 1.1246
 IR Inten    --     82.4268                27.3935                12.1912

                     25                     26                     27
                      A                      A                      A
 Frequencies --   1135.9705              1153.6076              1172.5236
 Red. masses --      1.7278                 1.8882                 1.7197
 Frc consts  --      1.3137                 1.4806                 1.3929
 IR Inten    --      6.3144                 2.5219                17.6416

                     28                     29                     30
                      A                      A                      A
 Frequencies --   1226.5752              1248.6881              1265.3965
 Red. masses --      1.7364                 1.3626                 1.6287
 Frc consts  --      1.5391                 1.2518                 1.5366
 IR Inten    --     94.9091                 3.3104                 5.5646

                     31                     32                     33
                      A                      A                      A
 Frequencies --   1281.4341              1329.1601              1339.1091
 Red. masses --      1.7765                 1.7953                 1.4775
 Frc consts  --      1.7188                 1.8687                 1.5610
 IR Inten    --     16.5512                24.5444                 1.7692

                     34                     35                     36
                      A                      A                      A
 Frequencies --   1376.0249              1392.7017              1411.3409
 Red. masses --      1.6027                 1.3869                 1.2844
 Frc consts  --      1.7880                 1.5849                 1.5073
 IR Inten    --     30.8508                 5.7041                11.7592

                     37                     38                     39
                      A                      A                      A
 Frequencies --   1480.9313              1489.2203              1496.5265
 Red. masses --      1.0793                 1.0663                 1.0498
 Frc consts  --      1.3947                 1.3933                 1.3853
 IR Inten    --      0.1463                 3.3327                 4.1253

                     40                     41                     42
                      A                      A                      A
 Frequencies --   1514.2212              1854.3072              3016.4525
 Red. masses --      1.1219                12.3178                 1.0847
 Frc consts  --      1.5156                24.9545                 5.8151
 IR Inten    --      5.0905               372.5023                30.3631

                     43                     44                     45
                      A                      A                      A
 Frequencies --   3044.7649              3058.0258              3066.6236
 Red. masses --      1.0356                 1.0575                 1.0581
 Frc consts  --      5.6567                 5.8267                 5.8626
 IR Inten    --     10.0343                36.8828                21.0457

                     46                     47                     48
                      A                      A                      A
 Frequencies --   3087.0918              3116.7733              3117.0927
 Red. masses --      1.0871                 1.1068                 1.1038
 Frc consts  --      6.1039                 6.3349                 6.3191
 IR Inten    --     33.5346                15.0010                21.6093

                     49                     50                     51
                      A                      A                      A
 Frequencies --   3122.8300              3128.4591              3136.7394
 Red. masses --      1.1077                 1.1022                 1.0895
 Frc consts  --      6.3648                 6.3556                 6.3159
 IR Inten    --     30.8196                14.7863                21.3164

 - Thermochemistry -
 -------------------
 Temperature   298.150 Kelvin.  Pressure   1.00000 Atm.
 Atom     1 has atomic number  6 and mass  12.00000

 Molecular mass:   126.06808 amu.
 Principal axes and moments of inertia in atomic units:
                           1         2         3
     Eigenvalues --   747.799171003.125751401.43123
           X            0.99059   0.13652  -0.01006
           Y           -0.13659   0.99060  -0.00706
           Z            0.00900   0.00837   0.99992
 This molecule is an asymmetric top.
 Rotational symmetry number  1.
 Warning -- assumption of classical behavior for rotation
           may cause significant error
 Rotational temperatures (Kelvin)      0.11582     0.08634     0.06180
 Rotational constants (GHZ):           2.41340     1.79912     1.28778
 Zero-point vibrational energy     423304.5 (Joules/Mol)
                                  101.17220 (Kcal/Mol)
 Warning -- explicit consideration of   9 degrees of freedom as
           vibrations may cause significant error
 Vibrational temperatures:    161.10   237.22   325.87   386.69   494.46
          (Kelvin)            566.97   633.68   697.21   748.24   898.06
                             1057.43  1080.24  1176.23  1204.45  1300.53
                             1303.55  1335.69  1380.23  1414.56  1478.98
                             1495.42  1522.45  1540.53  1599.81  1634.41
                             1659.78  1687.00  1764.77  1796.58  1820.62
                             1843.70  1912.36  1926.68  1979.79  2003.78
                             2030.60  2130.73  2142.65  2153.17  2178.62
                             2667.93  4340.00  4380.73  4399.81  4412.18
                             4441.63  4484.34  4484.80  4493.05  4501.15
                             4513.06

 Zero-point correction=                           0.161228 (Hartree/Particle)
 Thermal correction to Energy=                    0.168815
 Thermal correction to Enthalpy=                  0.169760
 Thermal correction to Gibbs Free Energy=         0.129319
 Sum of electronic and zero-point Energies=           -423.065364
 Sum of electronic and thermal Energies=              -423.057777
 Sum of electronic and thermal Enthalpies=            -423.056833
 Sum of electronic and thermal Free Energies=         -423.097274

                     E (Thermal)             CV                S
                      KCal/Mol        Cal/Mol-Kelvin    Cal/Mol-Kelvin
 Total                  105.933             30.115             85.115
 Electronic               0.000              0.000              0.000
 Translational            0.889              2.981             40.409
 Rotational               0.889              2.981             28.443
 Vibrational            104.156             24.154             16.264
 Vibration     1          0.607              1.940              3.234
 Vibration     2          0.623              1.886              2.493
 Vibration     3          0.650              1.801              1.907
 Vibration     4          0.673              1.731              1.604
 Vibration     5          0.722              1.588              1.195
 Vibration     6          0.761              1.483              0.985
 Vibration     7          0.800              1.382              0.825
 Vibration     8          0.841              1.284              0.698
 Vibration     9          0.875              1.206              0.610

 Normal termination of Gaussian 09 at Tue Jan 28 01:21:20 2020.
