 Gaussian 09, Revision D.01,
 Gaussian 09:  ES64L-G09RevD.01 24-Apr-2013

 -----------------------------
 # b3lyp 6-31G(2df,p) opt Freq
 -----------------------------

 -----
 titel
 -----
 Symbolic Z-matrix:
 Charge =  0 Multiplicity = 1

 SCF Done:  E(RB3LYP) =  -423.233327483     A.U. after   14 cycles
 Optimization completed.
    -- Stationary point found.
 Normal termination of Gaussian 09 at Mon Jan 27 12:59:22 2020.

 ----------------------------------------------------------------------
 #N Geom=AllCheck Guess=TCheck SCRF=Check GenChk RB3LYP/6-31G(2df,p) Fr
 eq
 ----------------------------------------------------------------------

 Structure from the checkpoint file:  "/scratch/puck/g09_d2f8d5ad-6399-4417-be97-0c8b7c837e2f/Gau-20507.chk"
 -----
 titel
 -----
 Charge =  0 Multiplicity = 1

                         Standard orientation:
 ---------------------------------------------------------------------
 Center     Atomic      Atomic             Coordinates (Angstroms)
 Number     Number       Type             X           Y           Z
 ---------------------------------------------------------------------
      1          8           0        1.653771    1.697394   -0.344800
      2          6           0        1.379664    0.562522   -0.115267
      3          8           0        2.239640   -0.485801    0.090421
      4          6           0        1.125115   -1.420275    0.269967
      5          6           0        0.108442   -0.278159    0.050080
      6          6           0       -0.808304    0.107070    1.243270
      7          6           0       -2.120342    0.599761    0.608056
      8          6           0       -2.253438   -0.274543   -0.646410
      9          6           0       -0.816325   -0.313319   -1.197047
     10          1           0        1.152113   -2.201293   -0.493609
     11          1           0        1.150517   -1.858567    1.270635
     12          1           0       -0.999136   -0.789444    1.844445
     13          1           0       -0.345969    0.846599    1.902121
     14          1           0       -2.972155    0.521204    1.288976
     15          1           0       -2.024203    1.652722    0.318872
     16          1           0       -2.581753   -1.283249   -0.366266
     17          1           0       -2.971644    0.112676   -1.374022
     18          1           0       -0.615932   -1.176805   -1.836920
     19          1           0       -0.628000    0.585077   -1.795090
 ---------------------------------------------------------------------

 SCF Done:  E(RB3LYP) =  -423.233327483     A.U. after    1 cycles

 The electronic state is 1-A.
 Alpha  occ. eigenvalues --  -19.17723 -19.13096 -10.30026 -10.24952 -10.21467
 Alpha  occ. eigenvalues --  -10.19753 -10.19626 -10.19089 -10.18979  -1.10155
 Alpha  occ. eigenvalues --   -1.02830  -0.85239  -0.75413  -0.72486  -0.67902
 Alpha  occ. eigenvalues --   -0.62089  -0.58809  -0.51974  -0.51207  -0.49573
 Alpha  occ. eigenvalues --   -0.47902  -0.45779  -0.43554  -0.43032  -0.40410
 Alpha  occ. eigenvalues --   -0.39646  -0.35735  -0.35132  -0.34712  -0.34614
 Alpha  occ. eigenvalues --   -0.33562  -0.32722  -0.29754  -0.26622
 Alpha virt. eigenvalues --    0.01449   0.06732   0.08120   0.09392   0.11183
 Alpha virt. eigenvalues --    0.11649   0.14096   0.15149   0.16083   0.16327
 Alpha virt. eigenvalues --    0.16950   0.17917   0.19418   0.20628   0.22091

 Mulliken charges:
               1
     1  O   -0.338192
     2  C    0.430281
     3  O   -0.247529
     4  C   -0.135398
     5  C    0.142626
     6  C   -0.279402
     7  C   -0.202759
     8  C   -0.203335
     9  C   -0.285197
    10  H    0.121179
    11  H    0.119859
    12  H    0.105640
    13  H    0.119710
    14  H    0.100419
    15  H    0.116059
    16  H    0.099041
    17  H    0.103671
    18  H    0.104144
    19  H    0.129181
 Sum of Mulliken charges =   0.00000

 Dipole moment (field-independent basis, Debye):
    X=             -3.0279    Y=             -2.7295    Z=              0.5656  Tot=              4.1156
 Quadrupole moment (field-independent basis, Debye-Ang):
   XX=            -59.5217   YY=            -54.9937   ZZ=            -51.1903
   XY=             -4.1664   XZ=              0.8142   YZ=              0.7322

  Exact polarizability:  79.726  -0.689  75.990   0.221  -1.380  67.270
 Approx polarizability: 106.270   1.649 122.727  -0.280  -5.411  98.191

                      1                      2                      3
                      A                      A                      A
 Frequencies --     31.5934               124.7726               163.4638
 Red. masses --      2.6271                 5.6102                 3.3692
 Frc consts  --      0.0015                 0.0515                 0.0530
 IR Inten    --      1.2914                 0.0854                 4.5593

                      4                      5                      6
                      A                      A                      A
 Frequencies --    259.7797               266.9579               349.8414
 Red. masses --      2.8045                 1.9417                 2.0913
 Frc consts  --      0.1115                 0.0815                 0.1508
 IR Inten    --      1.9835                 1.2583                 0.0822

                      7                      8                      9
                      A                      A                      A
 Frequencies --    427.7125               536.5264               596.4486
 Red. masses --      3.7155                 1.9306                 3.7901
 Frc consts  --      0.4005                 0.3274                 0.7944
 IR Inten    --      0.0461                 0.0714                 4.9645

                     10                     11                     12
                      A                      A                      A
 Frequencies --    687.1614               742.4024               774.9439
 Red. masses --      2.4200                 6.4684                 5.0583
 Frc consts  --      0.6733                 2.1005                 1.7898
 IR Inten    --      0.9231                 4.0550                 3.3686

                     13                     14                     15
                      A                      A                      A
 Frequencies --    842.2672               849.1016               874.1920
 Red. masses --      2.0087                 2.3099                 1.9973
 Frc consts  --      0.8396                 0.9812                 0.8993
 IR Inten    --      1.6263                 0.7644                 0.5993

                     16                     17                     18
                      A                      A                      A
 Frequencies --    915.4879               920.8520               950.1119
 Red. masses --      2.4047                 2.1043                 3.8046
 Frc consts  --      1.1874                 1.0513                 2.0235
 IR Inten    --      0.9530                 1.4612                60.4234

                     19                     20                     21
                      A                      A                      A
 Frequencies --    987.9369               991.7012              1028.5999
 Red. masses --      1.7076                 1.9061                 2.1072
 Frc consts  --      0.9820                 1.1045                 1.3136
 IR Inten    --      2.0245                21.3296                 0.4116

                     22                     23                     24
                      A                      A                      A
 Frequencies --   1073.9967              1116.1225              1139.5571
 Red. masses --      1.5127                 3.7108                 1.7101
 Frc consts  --      1.0281                 2.7236                 1.3084
 IR Inten    --      0.3292               152.9185                 1.1971

                     25                     26                     27
                      A                      A                      A
 Frequencies --   1153.1805              1172.3383              1216.1453
 Red. masses --      1.3820                 2.2261                 1.8247
 Frc consts  --      1.0828                 1.8026                 1.5900
 IR Inten    --      0.7237                 0.0743                 2.0466

                     28                     29                     30
                      A                      A                      A
 Frequencies --   1225.7215              1262.1707              1269.8317
 Red. masses --      2.1029                 1.3431                 1.3621
 Frc consts  --      1.8615                 1.2607                 1.2940
 IR Inten    --      3.4734                 3.2486                 1.9409

                     31                     32                     33
                      A                      A                      A
 Frequencies --   1320.3109              1343.5771              1345.6543
 Red. masses --      1.3433                 1.4543                 1.2281
 Frc consts  --      1.3797                 1.5467                 1.3102
 IR Inten    --      0.0497                 5.4676                 1.3756

                     34                     35                     36
                      A                      A                      A
 Frequencies --   1354.7473              1360.6107              1481.8695
 Red. masses --      1.6428                 1.5431                 1.0851
 Frc consts  --      1.7764                 1.6831                 1.4039
 IR Inten    --     25.6527                 1.2220                 0.5069

                     37                     38                     39
                      A                      A                      A
 Frequencies --   1485.7388              1491.7014              1508.3402
 Red. masses --      1.0865                 1.0849                 1.1073
 Frc consts  --      1.4131                 1.4223                 1.4842
 IR Inten    --      4.7326                 4.3531                 0.4495

                     40                     41                     42
                      A                      A                      A
 Frequencies --   1515.4027              1928.7398              3031.1925
 Red. masses --      1.0982                12.7090                 1.0685
 Frc consts  --      1.4860                27.8555                 5.7841
 IR Inten    --      2.4447               356.5740                23.3346

                     43                     44                     45
                      A                      A                      A
 Frequencies --   3037.4461              3044.2456              3046.9861
 Red. masses --      1.0674                 1.0609                 1.0614
 Frc consts  --      5.8025                 5.7926                 5.8061
 IR Inten    --     17.5897                22.8700                14.8494

                     46                     47                     48
                      A                      A                      A
 Frequencies --   3059.7133              3091.6602              3093.4565
 Red. masses --      1.0561                 1.0966                 1.0958
 Frc consts  --      5.8252                 6.1757                 6.1784
 IR Inten    --     31.7472                22.0369                23.2039

                     49                     50                     51
                      A                      A                      A
 Frequencies --   3098.6381              3104.8955              3121.2283
 Red. masses --      1.1023                 1.1052                 1.1132
 Frc consts  --      6.2357                 6.2777                 6.3894
 IR Inten    --     15.8965                44.1295                23.5427

 - Thermochemistry -
 -------------------
 Temperature   298.150 Kelvin.  Pressure   1.00000 Atm.
 Atom     1 has atomic number  8 and mass  15.99491

 Molecular mass:   126.06808 amu.
 Principal axes and moments of inertia in atomic units:
                           1         2         3
     Eigenvalues --   603.311991403.255121523.54206
           X            0.99970  -0.02422   0.00348
           Y            0.02405   0.99879   0.04292
           Z           -0.00451  -0.04282   0.99907
 This molecule is an asymmetric top.
 Rotational symmetry number  1.
 Warning -- assumption of classical behavior for rotation
           may cause significant error
 Rotational temperatures (Kelvin)      0.14356     0.06172     0.05685
 Rotational constants (GHZ):           2.99139     1.28611     1.18457
 Zero-point vibrational energy     423580.2 (Joules/Mol)
                                  101.23809 (Kcal/Mol)
 Warning -- explicit consideration of   9 degrees of freedom as
           vibrations may cause significant error
 Vibrational temperatures:     45.46   179.52   235.19   373.76   384.09
          (Kelvin)            503.34   615.38   771.94   858.16   988.67
                             1068.15  1114.97  1211.83  1221.67  1257.77
                             1317.18  1324.90  1367.00  1421.42  1426.84
                             1479.92  1545.24  1605.85  1639.57  1659.17
                             1686.73  1749.76  1763.54  1815.98  1827.00
                             1899.63  1933.11  1936.09  1949.18  1957.61
                             2132.08  2137.64  2146.22  2170.16  2180.32
                             2775.02  4361.20  4370.20  4379.98  4383.93
                             4402.24  4448.20  4450.79  4458.24  4467.25
                             4490.75

 Zero-point correction=                           0.161333 (Hartree/Particle)
 Thermal correction to Energy=                    0.169277
 Thermal correction to Enthalpy=                  0.170222
 Thermal correction to Gibbs Free Energy=         0.127834
 Sum of electronic and zero-point Energies=           -423.071994
 Sum of electronic and thermal Energies=              -423.064050
 Sum of electronic and thermal Enthalpies=            -423.063106
 Sum of electronic and thermal Free Energies=         -423.105493

                     E (Thermal)             CV                S
                      KCal/Mol        Cal/Mol-Kelvin    Cal/Mol-Kelvin
 Total                  106.223             29.963             89.212
 Electronic               0.000              0.000              0.000
 Translational            0.889              2.981             40.409
 Rotational               0.889              2.981             28.646
 Vibrational            104.446             24.001             20.156
 Vibration     1          0.594              1.983              5.727
 Vibration     2          0.610              1.928              3.025
 Vibration     3          0.623              1.887              2.509
 Vibration     4          0.668              1.746              1.663
 Vibration     5          0.672              1.734              1.616
 Vibration     6          0.727              1.576              1.167
 Vibration     7          0.789              1.410              0.866
 Vibration     8          0.892              1.169              0.573
 Vibration     9          0.954              1.039              0.456

 Optimization completed.
    -- Stationary point found.
 Normal termination of Gaussian 09 at Mon Jan 27 13:46:07 2020.
