 Gaussian 09, Revision D.01,
 Gaussian 09:  ES64L-G09RevD.01 24-Apr-2013

 -----------------------------
 # b3lyp 6-31G(2df,p) opt Freq
 -----------------------------

 -----
 titel
 -----
 Symbolic Z-matrix:
 Charge =  0 Multiplicity = 1

 SCF Done:  E(RB3LYP) =  -423.209660335     A.U. after   14 cycles
 Optimization completed.
    -- Stationary point found.
 Normal termination of Gaussian 09 at Tue Jan 28 08:21:50 2020.

 ----------------------------------------------------------------------
 #N Geom=AllCheck Guess=TCheck SCRF=Check GenChk RB3LYP/6-31G(2df,p) Fr
 eq
 ----------------------------------------------------------------------

 Structure from the checkpoint file:  "/scratch/puck/g09_93a9715f-bec8-4806-b97e-23031b9d19d4/Gau-59897.chk"
 -----
 titel
 -----
 Charge =  0 Multiplicity = 1

                         Standard orientation:
 ---------------------------------------------------------------------
 Center     Atomic      Atomic             Coordinates (Angstroms)
 Number     Number       Type             X           Y           Z
 ---------------------------------------------------------------------
      1          8           0       -2.718680   -1.101206   -0.000233
      2          6           0       -1.330547   -0.943833   -0.000174
      3          6           0       -0.949373    0.537062    0.000132
      4          8           0       -1.845157    1.357588    0.000189
      5          6           0        0.512116    0.950025    0.000299
      6          6           0        1.279975    0.386567   -1.240727
      7          6           0        2.137722   -0.713813   -0.665703
      8          6           0        2.137677   -0.714274    0.665252
      9          6           0        1.279956    0.385739    1.241005
     10          1           0       -3.068636   -0.194875   -0.000174
     11          1           0       -0.875577   -1.427744    0.878069
     12          1           0       -0.875524   -1.427296   -0.878643
     13          1           0        0.504733    2.040889    0.000705
     14          1           0        0.604321    0.037633   -2.030316
     15          1           0        1.896973    1.169436   -1.700328
     16          1           0        2.709050   -1.388803   -1.293005
     17          1           0        2.708964   -1.389725    1.292099
     18          1           0        0.604284    0.036262    2.030325
     19          1           0        1.896946    1.168323    1.701111
 ---------------------------------------------------------------------

 SCF Done:  E(RB3LYP) =  -423.209660335     A.U. after    1 cycles

 The electronic state is 1-A.
 Alpha  occ. eigenvalues --  -19.14579 -19.12467 -10.27591 -10.23381 -10.20714
 Alpha  occ. eigenvalues --  -10.20363 -10.20362 -10.19456 -10.19366  -1.06074
 Alpha  occ. eigenvalues --   -1.00632  -0.86028  -0.75051  -0.72394  -0.70106
 Alpha  occ. eigenvalues --   -0.61276  -0.55161  -0.54716  -0.51885  -0.48649
 Alpha  occ. eigenvalues --   -0.47699  -0.46993  -0.43108  -0.41194  -0.39651
 Alpha  occ. eigenvalues --   -0.39408  -0.38971  -0.36981  -0.36360  -0.34521
 Alpha  occ. eigenvalues --   -0.33167  -0.26703  -0.26409  -0.25256
 Alpha virt. eigenvalues --   -0.02617   0.01537   0.07673   0.08849   0.12463
 Alpha virt. eigenvalues --    0.12534   0.13004   0.15256   0.15915   0.16759
 Alpha virt. eigenvalues --    0.16994   0.18133   0.18677   0.21629   0.21854

 Mulliken charges:
               1
     1  O   -0.421627
     2  C   -0.134882
     3  C    0.347854
     4  O   -0.333018
     5  C   -0.077098
     6  C   -0.287401
     7  C   -0.053017
     8  C   -0.053017
     9  C   -0.287414
    10  H    0.291261
    11  H    0.118101
    12  H    0.118096
    13  H    0.100007
    14  H    0.115312
    15  H    0.119901
    16  H    0.100867
    17  H    0.100864
    18  H    0.115311
    19  H    0.119900
 Sum of Mulliken charges =   0.00000

 Dipole moment (field-independent basis, Debye):
    X=              3.4434    Y=             -0.0048    Z=              0.0000  Tot=              3.4434
 Quadrupole moment (field-independent basis, Debye-Ang):
   XX=            -59.1607   YY=            -56.6430   ZZ=            -50.2336
   XY=             -1.5132   XZ=             -0.0004   YZ=             -0.0013

  Exact polarizability:  82.860  -6.384  71.049  -0.002  -0.003  74.583
 Approx polarizability: 112.926 -12.664 109.940  -0.003  -0.008 122.448

                      1                      2                      3
                      A                      A                      A
 Frequencies --     37.7638                75.1875                89.1864
 Red. masses --      3.1424                 3.2603                 4.1852
 Frc consts  --      0.0026                 0.0109                 0.0196
 IR Inten    --      2.4350                 0.3409                 2.1678

                      4                      5                      6
                      A                      A                      A
 Frequencies --    221.3954               230.3742               327.8297
 Red. masses --      3.2431                 2.9281                 4.1563
 Frc consts  --      0.0937                 0.0916                 0.2632
 IR Inten    --      0.9070                 0.4912                11.8590

                      7                      8                      9
                      A                      A                      A
 Frequencies --    395.2764               423.3451               449.8860
 Red. masses --      1.8993                 7.2003                 1.1087
 Frc consts  --      0.1748                 0.7603                 0.1322
 IR Inten    --      0.7269                14.4291                55.5953

                     10                     11                     12
                      A                      A                      A
 Frequencies --    568.8811               569.0041               715.0421
 Red. masses --      2.2449                 2.5918                 1.3048
 Frc consts  --      0.4280                 0.4944                 0.3931
 IR Inten    --      9.8629                 1.0330                43.4738

                     13                     14                     15
                      A                      A                      A
 Frequencies --    738.0287               787.9795               800.1491
 Red. masses --      3.8813                 5.7407                 4.3202
 Frc consts  --      1.2456                 2.1001                 1.6297
 IR Inten    --      3.2604                 0.1498                 4.4034

                     16                     17                     18
                      A                      A                      A
 Frequencies --    896.6892               933.7826               944.4270
 Red. masses --      2.0385                 2.6796                 1.5754
 Frc consts  --      0.9657                 1.3766                 0.8279
 IR Inten    --      4.6644                 8.3005                 0.8644

                     19                     20                     21
                      A                      A                      A
 Frequencies --    968.9352               979.3556               985.9341
 Red. masses --      2.3341                 1.3058                 2.4244
 Frc consts  --      1.2911                 0.7379                 1.3885
 IR Inten    --     11.6432                 0.0520                 0.6333

                     22                     23                     24
                      A                      A                      A
 Frequencies --   1001.2660              1065.3098              1111.2594
 Red. masses --      2.2490                 2.6195                 2.5768
 Frc consts  --      1.3284                 1.7516                 1.8748
 IR Inten    --      2.9651                 1.8641               144.7484

                     25                     26                     27
                      A                      A                      A
 Frequencies --   1132.4251              1147.0291              1175.9074
 Red. masses --      1.0950                 2.0806                 1.1259
 Frc consts  --      0.8274                 1.6128                 0.9173
 IR Inten    --      0.9490                23.7372                 0.1923

                     28                     29                     30
                      A                      A                      A
 Frequencies --   1239.3729              1248.7044              1249.8968
 Red. masses --      1.2106                 1.1983                 1.5312
 Frc consts  --      1.0956                 1.1008                 1.4094
 IR Inten    --      0.0236                 1.9737                 3.1938

                     31                     32                     33
                      A                      A                      A
 Frequencies --   1310.2794              1317.6668              1328.2321
 Red. masses --      1.3175                 1.4761                 1.5198
 Frc consts  --      1.3326                 1.5100                 1.5797
 IR Inten    --      1.3582                89.2191                 8.7480

                     34                     35                     36
                      A                      A                      A
 Frequencies --   1333.3157              1371.3307              1454.6369
 Red. masses --      1.6196                 1.6859                 1.3018
 Frc consts  --      1.6963                 1.8679                 1.6229
 IR Inten    --      0.5168                 2.9109                60.0936

                     37                     38                     39
                      A                      A                      A
 Frequencies --   1481.6545              1488.2305              1498.2989
 Red. masses --      1.0844                 1.0791                 1.0975
 Frc consts  --      1.4026                 1.4082                 1.4516
 IR Inten    --     28.6534                 5.9351                 0.0447

                     40                     41                     42
                      A                      A                      A
 Frequencies --   1691.1838              1782.8273              2988.7329
 Red. masses --      6.0815                10.5922                 1.0571
 Frc consts  --     10.2481                19.8360                 5.5632
 IR Inten    --      2.5844               148.2314                41.3073

                     43                     44                     45
                      A                      A                      A
 Frequencies --   3002.4027              3023.8793              3023.9011
 Red. masses --      1.1004                 1.0644                 1.0629
 Frc consts  --      5.8446                 5.7341                 5.7265
 IR Inten    --     15.9095                15.9178                51.5310

                     46                     47                     48
                      A                      A                      A
 Frequencies --   3053.2817              3053.6632              3102.8541
 Red. masses --      1.0987                 1.0985                 1.0864
 Frc consts  --      6.0346                 6.0350                 6.1625
 IR Inten    --      9.8223                24.6436                15.9271

                     49                     50                     51
                      A                      A                      A
 Frequencies --   3186.7473              3211.5999              3667.7444
 Red. masses --      1.0845                 1.1043                 1.0642
 Frc consts  --      6.4888                 6.7111                 8.4348
 IR Inten    --      3.6677                17.1892                66.9003

 - Thermochemistry -
 -------------------
 Temperature   298.150 Kelvin.  Pressure   1.00000 Atm.
 Atom     1 has atomic number  8 and mass  15.99491

 Molecular mass:   126.06808 amu.
 Principal axes and moments of inertia in atomic units:
                           1         2         3
     Eigenvalues --   611.685091633.090101768.79287
           X            0.99999   0.00353   0.00000
           Y           -0.00353   0.99999  -0.00005
           Z            0.00000   0.00005   1.00000
 This molecule is an asymmetric top.
 Rotational symmetry number  1.
 Warning -- assumption of classical behavior for rotation
           may cause significant error
 Rotational temperatures (Kelvin)      0.14160     0.05304     0.04897
 Rotational constants (GHZ):           2.95044     1.10511     1.02032
 Zero-point vibrational energy     417987.7 (Joules/Mol)
                                   99.90146 (Kcal/Mol)
 Warning -- explicit consideration of  11 degrees of freedom as
           vibrations may cause significant error
 Vibrational temperatures:     54.33   108.18   128.32   318.54   331.46
          (Kelvin)            471.67   568.71   609.10   647.28   818.49
                              818.67  1028.78  1061.86  1133.73  1151.23
                             1290.13  1343.50  1358.82  1394.08  1409.07
                             1418.54  1440.60  1532.74  1598.85  1629.31
                             1650.32  1691.87  1783.18  1796.60  1798.32
                             1885.20  1895.83  1911.03  1918.34  1973.04
                             2092.90  2131.77  2141.23  2155.72  2433.23
                             2565.09  4300.11  4319.78  4350.68  4350.71
                             4392.99  4393.53  4464.31  4585.01  4620.77
                             5277.06

 Zero-point correction=                           0.159203 (Hartree/Particle)
 Thermal correction to Energy=                    0.167985
 Thermal correction to Enthalpy=                  0.168929
 Thermal correction to Gibbs Free Energy=         0.124496
 Sum of electronic and zero-point Energies=           -423.050457
 Sum of electronic and thermal Energies=              -423.041675
 Sum of electronic and thermal Enthalpies=            -423.040731
 Sum of electronic and thermal Free Energies=         -423.085165

                     E (Thermal)             CV                S
                      KCal/Mol        Cal/Mol-Kelvin    Cal/Mol-Kelvin
 Total                  105.412             32.293             93.518
 Electronic               0.000              0.000              0.000
 Translational            0.889              2.981             40.409
 Rotational               0.889              2.981             28.959
 Vibrational            103.635             26.331             24.151
 Vibration     1          0.594              1.982              5.373
 Vibration     2          0.599              1.966              4.013
 Vibration     3          0.602              1.957              3.678
 Vibration     4          0.648              1.809              1.948
 Vibration     5          0.652              1.795              1.876
 Vibration     6          0.711              1.620              1.271
 Vibration     7          0.762              1.480              0.980
 Vibration     8          0.786              1.419              0.881
 Vibration     9          0.809              1.361              0.796
 Vibration    10          0.925              1.099              0.506
 Vibration    11          0.925              1.098              0.506

 Optimization completed.
    -- Stationary point found.
 Normal termination of Gaussian 09 at Tue Jan 28 10:17:08 2020.
