 Gaussian 09, Revision D.01,
 Gaussian 09:  ES64L-G09RevD.01 24-Apr-2013

 -----------------------------
 # b3lyp 6-31G(2df,p) opt Freq
 -----------------------------

 -----
 titel
 -----
 Symbolic Z-matrix:
 Charge =  0 Multiplicity = 1

 SCF Done:  E(RB3LYP) =  -423.222555435     A.U. after   14 cycles
 Optimization completed.
    -- Stationary point found.
 Normal termination of Gaussian 09 at Mon Jan 27 12:57:49 2020.

 ----------------------------------------------------------------------
 #N Geom=AllCheck Guess=TCheck SCRF=Check GenChk RB3LYP/6-31G(2df,p) Fr
 eq
 ----------------------------------------------------------------------

 Structure from the checkpoint file:  "/scratch/puck/g09_130155c0-8dc8-45bb-99c4-7637ea1d0302/Gau-73377.chk"
 -----
 titel
 -----
 Charge =  0 Multiplicity = 1

                         Standard orientation:
 ---------------------------------------------------------------------
 Center     Atomic      Atomic             Coordinates (Angstroms)
 Number     Number       Type             X           Y           Z
 ---------------------------------------------------------------------
      1          8           0       -2.787728   -0.916949   -0.563098
      2          6           0       -1.848224   -0.323830   -0.120945
      3          6           0       -0.753174   -0.828390    0.813450
      4          6           0        0.362975    0.219728    0.677682
      5          6           0       -0.459924    1.470440    0.299855
      6          8           0       -1.612640    0.987839   -0.409763
      7          6           0        1.371727   -0.142981   -0.394328
      8          6           0        2.753706    0.458450   -0.375482
      9          6           0        2.560764   -1.006053   -0.060912
     10          1           0       -1.167226   -0.860570    1.827720
     11          1           0       -0.456773   -1.842755    0.543221
     12          1           0        0.888929    0.381842    1.623405
     13          1           0       -0.799379    2.023575    1.183793
     14          1           0        0.077858    2.153991   -0.360601
     15          1           0        0.934275   -0.296282   -1.378632
     16          1           0        3.214253    0.727796   -1.319230
     17          1           0        3.008839    1.120430    0.446137
     18          1           0        2.889339   -1.738663   -0.789279
     19          1           0        2.685715   -1.320656    0.970433
 ---------------------------------------------------------------------

 SCF Done:  E(RB3LYP) =  -423.222555435     A.U. after    1 cycles

 The electronic state is 1-A.
 Alpha  occ. eigenvalues --  -19.17813 -19.11820 -10.30044 -10.24711 -10.21198
 Alpha  occ. eigenvalues --  -10.20334 -10.20241 -10.19560 -10.19526  -1.09578
 Alpha  occ. eigenvalues --   -1.01721  -0.87311  -0.80177  -0.73011  -0.64721
 Alpha  occ. eigenvalues --   -0.61044  -0.58468  -0.55751  -0.51378  -0.50192
 Alpha  occ. eigenvalues --   -0.49270  -0.45562  -0.44335  -0.43915  -0.40236
 Alpha  occ. eigenvalues --   -0.39171  -0.37947  -0.37287  -0.35660  -0.34291
 Alpha  occ. eigenvalues --   -0.30244  -0.30110  -0.28515  -0.26159
 Alpha virt. eigenvalues --    0.01626   0.07775   0.08521   0.09652   0.11266
 Alpha virt. eigenvalues --    0.12142   0.13180   0.13941   0.15810   0.15958
 Alpha virt. eigenvalues --    0.17788   0.18011   0.19253   0.20994   0.21688

 Mulliken charges:
               1
     1  O   -0.335775
     2  C    0.431199
     3  C   -0.371976
     4  C   -0.045831
     5  C   -0.091057
     6  O   -0.219628
     7  C    0.036709
     8  C   -0.279149
     9  C   -0.278575
    10  H    0.134474
    11  H    0.141290
    12  H    0.078839
    13  H    0.111011
    14  H    0.126747
    15  H    0.098283
    16  H    0.118608
    17  H    0.112031
    18  H    0.119226
    19  H    0.113574
 Sum of Mulliken charges =   0.00000

 Dipole moment (field-independent basis, Debye):
    X=              3.8288    Y=              0.9031    Z=              1.9918  Tot=              4.4094
 Quadrupole moment (field-independent basis, Debye-Ang):
   XX=            -64.7145   YY=            -52.6840   ZZ=            -50.8587
   XY=             -2.3165   XZ=             -5.0753   YZ=              0.2875

  Exact polarizability:  86.070   4.242  74.718   0.613   0.551  64.347
 Approx polarizability: 113.269   9.886 112.860   5.666   1.419  98.873

                      1                      2                      3
                      A                      A                      A
 Frequencies --     69.9430                76.4377               149.0459
 Red. masses --      3.7656                 3.2499                 4.9064
 Frc consts  --      0.0109                 0.0112                 0.0642
 IR Inten    --      3.0025                 2.5447                 0.6280

                      4                      5                      6
                      A                      A                      A
 Frequencies --    214.0969               291.2045               320.8911
 Red. masses --      2.3616                 2.4583                 2.4126
 Frc consts  --      0.0638                 0.1228                 0.1464
 IR Inten    --      0.1415                 0.0635                 1.2371

                      7                      8                      9
                      A                      A                      A
 Frequencies --    430.2820               514.3893               556.6544
 Red. masses --      3.2943                 3.7974                 2.7292
 Frc consts  --      0.3594                 0.5920                 0.4983
 IR Inten    --      2.1222                 1.4107                 4.9097

                     10                     11                     12
                      A                      A                      A
 Frequencies --    686.7247               736.8700               757.0950
 Red. masses --      6.8129                 3.1121                 1.6390
 Frc consts  --      1.8930                 0.9956                 0.5535
 IR Inten    --      5.2360                 0.1696                 0.8833

                     13                     14                     15
                      A                      A                      A
 Frequencies --    809.0124               832.0026               854.9606
 Red. masses --      1.6067                 1.2825                 3.4105
 Frc consts  --      0.6196                 0.5231                 1.4688
 IR Inten    --      1.1104                 5.4168                15.6900

                     16                     17                     18
                      A                      A                      A
 Frequencies --    902.1582               922.4236               946.3452
 Red. masses --      1.9896                 2.7432                 3.6400
 Frc consts  --      0.9541                 1.3752                 1.9207
 IR Inten    --      3.5903                 5.1585                 4.6119

                     19                     20                     21
                      A                      A                      A
 Frequencies --    985.4511              1007.1873              1051.0670
 Red. masses --      2.0378                 1.9359                 2.2185
 Frc consts  --      1.1659                 1.1571                 1.4440
 IR Inten    --      1.3710                45.6133                40.2516

                     22                     23                     24
                      A                      A                      A
 Frequencies --   1059.5765              1081.0151              1085.0755
 Red. masses --      1.3973                 1.5466                 1.9677
 Frc consts  --      0.9243                 1.0648                 1.3650
 IR Inten    --      0.6935                 7.4429                17.2150

                     25                     26                     27
                      A                      A                      A
 Frequencies --   1139.1444              1147.1863              1167.8829
 Red. masses --      1.1698                 1.4191                 3.4484
 Frc consts  --      0.8943                 1.1004                 2.7712
 IR Inten    --      7.7404                 8.5680               169.5022

                     28                     29                     30
                      A                      A                      A
 Frequencies --   1197.5157              1209.8895              1226.7510
 Red. masses --      1.3842                 1.4068                 1.9055
 Frc consts  --      1.1695                 1.2133                 1.6895
 IR Inten    --      1.2705                11.4827                 0.6711

                     31                     32                     33
                      A                      A                      A
 Frequencies --   1243.8296              1266.8531              1307.0253
 Red. masses --      1.7454                 1.3334                 1.5592
 Frc consts  --      1.5910                 1.2608                 1.5694
 IR Inten    --      1.2731                 2.6231                 5.3024

                     34                     35                     36
                      A                      A                      A
 Frequencies --   1317.2534              1395.8578              1430.6058
 Red. masses --      1.3458                 1.4640                 1.6162
 Frc consts  --      1.3759                 1.6806                 1.9488
 IR Inten    --     13.4605                15.9716                 1.7616

                     37                     38                     39
                      A                      A                      A
 Frequencies --   1461.5850              1470.0090              1506.8386
 Red. masses --      1.0884                 1.0869                 1.3934
 Frc consts  --      1.3699                 1.3838                 1.8641
 IR Inten    --      8.8204                 1.5321                 0.6128

                     40                     41                     42
                      A                      A                      A
 Frequencies --   1522.0210              1884.9902              3032.2357
 Red. masses --      1.0943                12.7786                 1.0669
 Frc consts  --      1.4936                26.7518                 5.7799
 IR Inten    --      3.3722               389.4361                38.3056

                     43                     44                     45
                      A                      A                      A
 Frequencies --   3051.5217              3065.0291              3109.0813
 Red. masses --      1.0708                 1.0809                 1.1008
 Frc consts  --      5.8747                 5.9828                 6.2692
 IR Inten    --     14.2331                19.4785                19.2142

                     46                     47                     48
                      A                      A                      A
 Frequencies --   3128.4448              3129.3508              3130.7655
 Red. masses --      1.0903                 1.0535                 1.0842
 Frc consts  --      6.2873                 6.0785                 6.2610
 IR Inten    --      4.4212                19.1750                14.5339

                     49                     50                     51
                      A                      A                      A
 Frequencies --   3134.6667              3208.3644              3223.0307
 Red. masses --      1.0659                 1.1173                 1.1151
 Frc consts  --      6.1711                 6.7760                 6.8249
 IR Inten    --      4.0060                 0.2663                17.9942

 - Thermochemistry -
 -------------------
 Temperature   298.150 Kelvin.  Pressure   1.00000 Atm.
 Atom     1 has atomic number  8 and mass  15.99491

 Molecular mass:   126.06808 amu.
 Principal axes and moments of inertia in atomic units:
                           1         2         3
     Eigenvalues --   496.472161741.088021957.28148
           X            0.99989  -0.00680  -0.01336
           Y            0.00674   0.99997  -0.00420
           Z            0.01339   0.00411   0.99990
 This molecule is an asymmetric top.
 Rotational symmetry number  1.
 Warning -- assumption of classical behavior for rotation
           may cause significant error
 Rotational temperatures (Kelvin)      0.17446     0.04975     0.04425
 Rotational constants (GHZ):           3.63513     1.03656     0.92207
 Zero-point vibrational energy     421370.5 (Joules/Mol)
                                  100.70996 (Kcal/Mol)
 Warning -- explicit consideration of   9 degrees of freedom as
           vibrations may cause significant error
 Vibrational temperatures:    100.63   109.98   214.44   308.04   418.98
          (Kelvin)            461.69   619.08   740.09   800.90   988.04
                             1060.19  1089.29  1163.99  1197.06  1230.10
                             1298.00  1327.16  1361.58  1417.84  1449.12
                             1512.25  1524.49  1555.34  1561.18  1638.97
                             1650.54  1680.32  1722.96  1740.76  1765.02
                             1789.59  1822.72  1880.52  1895.23  2008.33
                             2058.32  2102.89  2115.01  2168.00  2189.85
                             2712.08  4362.71  4390.45  4409.89  4473.27
                             4501.13  4502.43  4504.47  4510.08  4616.12
                             4637.22

 Zero-point correction=                           0.160492 (Hartree/Particle)
 Thermal correction to Energy=                    0.168636
 Thermal correction to Enthalpy=                  0.169580
 Thermal correction to Gibbs Free Energy=         0.126985
 Sum of electronic and zero-point Energies=           -423.062064
 Sum of electronic and thermal Energies=              -423.053920
 Sum of electronic and thermal Enthalpies=            -423.052976
 Sum of electronic and thermal Free Energies=         -423.095570

                     E (Thermal)             CV                S
                      KCal/Mol        Cal/Mol-Kelvin    Cal/Mol-Kelvin
 Total                  105.820             30.700             89.648
 Electronic               0.000              0.000              0.000
 Translational            0.889              2.981             40.409
 Rotational               0.889              2.981             28.916
 Vibrational            104.043             24.738             20.324
 Vibration     1          0.598              1.968              4.155
 Vibration     2          0.599              1.965              3.980
 Vibration     3          0.618              1.904              2.684
 Vibration     4          0.644              1.819              2.008
 Vibration     5          0.687              1.690              1.467
 Vibration     6          0.706              1.634              1.306
 Vibration     7          0.791              1.404              0.858
 Vibration     8          0.869              1.218              0.623
 Vibration     9          0.912              1.125              0.531

 Optimization completed.
    -- Stationary point found.
 Normal termination of Gaussian 09 at Mon Jan 27 13:38:33 2020.
