 Gaussian 09, Revision D.01,
 Gaussian 09:  ES64L-G09RevD.01 24-Apr-2013

 -----------------------------
 # b3lyp 6-31G(2df,p) opt Freq
 -----------------------------

 -----
 titel
 -----
 Symbolic Z-matrix:
 Charge =  0 Multiplicity = 1

 SCF Done:  E(RB3LYP) =  -423.086082660     A.U. after   14 cycles
 Optimization completed.
    -- Stationary point found.
 Normal termination of Gaussian 09 at Tue Jan 28 14:13:31 2020.

 ----------------------------------------------------------------------
 #N Geom=AllCheck Guess=TCheck SCRF=Check GenChk RB3LYP/6-31G(2df,p) Fr
 eq
 ----------------------------------------------------------------------

 Structure from the checkpoint file:  "/scratch/puck/g09_ce2d9999-5141-4b27-a43e-c7c8e6e37bf9/Gau-34256.chk"
 -----
 titel
 -----
 Charge =  0 Multiplicity = 1

                         Standard orientation:
 ---------------------------------------------------------------------
 Center     Atomic      Atomic             Coordinates (Angstroms)
 Number     Number       Type             X           Y           Z
 ---------------------------------------------------------------------
      1          6           0       -3.696767    0.017921    0.043503
      2          6           0       -2.306479   -0.571984   -0.114530
      3          8           0       -1.372259    0.497333   -0.174614
      4          6           0       -0.061514    0.069866   -0.353098
      5          6           0        0.725169   -0.187975    0.920845
      6          6           0        2.191041   -0.613848    0.612198
      7          8           0        2.372708   -0.704096   -0.811929
      8          6           0        2.407858    0.589354   -0.186369
      9          6           0        0.953427    1.078034    0.091491
     10          1           0       -4.445142   -0.778977    0.086482
     11          1           0       -3.762852    0.606395    0.963116
     12          1           0       -3.933960    0.672900   -0.799596
     13          1           0       -2.063699   -1.237252    0.728501
     14          1           0       -2.241673   -1.176039   -1.033721
     15          1           0        0.109003   -0.544085   -1.234038
     16          1           0        0.242006   -0.274108    1.884381
     17          1           0        2.854498   -1.200667    1.236212
     18          1           0        3.284811    1.202396   -0.355326
     19          1           0        0.676996    2.095333    0.332100
 ---------------------------------------------------------------------

 SCF Done:  E(RB3LYP) =  -423.086082660     A.U. after    1 cycles

 The electronic state is 1-A.
 Alpha  occ. eigenvalues --  -19.15313 -19.14373 -10.24107 -10.24072 -10.23636
 Alpha  occ. eigenvalues --  -10.22826 -10.19338 -10.19216 -10.17599  -1.07884
 Alpha  occ. eigenvalues --   -1.03985  -0.86287  -0.75406  -0.68046  -0.65312
 Alpha  occ. eigenvalues --   -0.61416  -0.56976  -0.54707  -0.54091  -0.49436
 Alpha  occ. eigenvalues --   -0.48072  -0.45870  -0.43349  -0.41437  -0.39360
 Alpha  occ. eigenvalues --   -0.38243  -0.37351  -0.35662  -0.34651  -0.33593
 Alpha  occ. eigenvalues --   -0.29799  -0.26672  -0.25456  -0.22654
 Alpha virt. eigenvalues --    0.05981   0.08939   0.09860   0.11105   0.13180
 Alpha virt. eigenvalues --    0.13732   0.14597   0.14934   0.15806   0.16894
 Alpha virt. eigenvalues --    0.17140   0.18651   0.19878   0.20360   0.20823

 Mulliken charges:
               1
     1  C   -0.386139
     2  C   -0.038149
     3  O   -0.269430
     4  C    0.124969
     5  C   -0.143818
     6  C    0.010393
     7  O   -0.244904
     8  C    0.012238
     9  C   -0.152277
    10  H    0.115720
    11  H    0.125670
    12  H    0.128332
    13  H    0.090327
    14  H    0.092123
    15  H    0.112896
    16  H    0.097690
    17  H    0.110285
    18  H    0.110913
    19  H    0.103160
 Sum of Mulliken charges =   0.00000

 Dipole moment (field-independent basis, Debye):
    X=             -0.2513    Y=              0.0166    Z=              1.4486  Tot=              1.4703
 Quadrupole moment (field-independent basis, Debye-Ang):
   XX=            -49.8326   YY=            -52.6283   ZZ=            -53.0434
   XY=              4.5283   XZ=              3.1974   YZ=             -1.4991

  Exact polarizability:  94.957   1.617  68.124   0.067  -2.681  64.060
 Approx polarizability: 111.629   1.288 109.519  -1.773  -4.656 103.401

                      1                      2                      3
                      A                      A                      A
 Frequencies --     64.9458                86.3031               121.9988
 Red. masses --      2.4998                 2.3374                 3.7449
 Frc consts  --      0.0062                 0.0103                 0.0328
 IR Inten    --      0.1284                 2.8673                 1.3256

                      4                      5                      6
                      A                      A                      A
 Frequencies --    241.3164               268.9088               324.5212
 Red. masses --      1.2491                 3.7187                 3.6790
 Frc consts  --      0.0429                 0.1584                 0.2283
 IR Inten    --      0.2932                 3.1815                 3.4321

                      7                      8                      9
                      A                      A                      A
 Frequencies --    381.2557               404.6117               492.1897
 Red. masses --      3.6268                 3.0210                 4.8426
 Frc consts  --      0.3106                 0.2914                 0.6912
 IR Inten    --      2.9286                 1.9939                 3.1227

                     10                     11                     12
                      A                      A                      A
 Frequencies --    615.1343               764.4016               766.9082
 Red. masses --      3.6048                 3.5673                 7.0820
 Frc consts  --      0.8037                 1.2281                 2.4541
 IR Inten    --     11.5111                 1.2925                 0.3908

                     13                     14                     15
                      A                      A                      A
 Frequencies --    792.3336               818.7270               837.5107
 Red. masses --      1.4689                 1.1137                 1.8293
 Frc consts  --      0.5433                 0.4399                 0.7560
 IR Inten    --      4.9363                 1.8638                33.3063

                     16                     17                     18
                      A                      A                      A
 Frequencies --    868.2710               879.2373               904.5013
 Red. masses --      2.8666                 2.3597                 2.0751
 Frc consts  --      1.2733                 1.0748                 1.0003
 IR Inten    --      4.7044                13.2325                10.8390

                     19                     20                     21
                      A                      A                      A
 Frequencies --    945.7442               953.5254               989.2421
 Red. masses --      2.3231                 2.0849                 2.3347
 Frc consts  --      1.2242                 1.1169                 1.3461
 IR Inten    --      9.0404                13.0243                24.1266

                     22                     23                     24
                      A                      A                      A
 Frequencies --   1023.3500              1043.1898              1059.7460
 Red. masses --      1.9664                 1.3416                 2.9375
 Frc consts  --      1.2133                 0.8602                 1.9437
 IR Inten    --      1.4555                 1.1061                16.4484

                     25                     26                     27
                      A                      A                      A
 Frequencies --   1117.3174              1126.4802              1159.3485
 Red. masses --      1.2860                 1.7523                 2.1843
 Frc consts  --      0.9459                 1.3101                 1.7298
 IR Inten    --     20.5020                 8.8226                65.7172

                     28                     29                     30
                      A                      A                      A
 Frequencies --   1186.8900              1192.0436              1206.8987
 Red. masses --      1.9549                 3.0964                 1.4219
 Frc consts  --      1.6225                 2.5923                 1.2203
 IR Inten    --     55.4835                64.4836                 0.3547

                     31                     32                     33
                      A                      A                      A
 Frequencies --   1249.7809              1253.0602              1260.2315
 Red. masses --      1.6628                 1.4654                 1.5614
 Frc consts  --      1.5302                 1.3557                 1.4610
 IR Inten    --      2.4210                 2.6529                40.3098

                     34                     35                     36
                      A                      A                      A
 Frequencies --   1293.5028              1358.3230              1397.4887
 Red. masses --      1.1088                 2.2114                 1.5628
 Frc consts  --      1.0930                 2.4039                 1.7982
 IR Inten    --      1.8714                93.2325                 5.8632

                     37                     38                     39
                      A                      A                      A
 Frequencies --   1409.8292              1446.5749              1483.6640
 Red. masses --      1.7352                 1.7782                 1.0404
 Frc consts  --      2.0320                 2.1924                 1.3493
 IR Inten    --     24.4544                 9.6570                 4.2181

                     40                     41                     42
                      A                      A                      A
 Frequencies --   1500.0615              1527.6626              2972.9925
 Red. masses --      1.0469                 1.0898                 1.0557
 Frc consts  --      1.3880                 1.4985                 5.4976
 IR Inten    --      1.9908                 2.7082                44.7749

                     43                     44                     45
                      A                      A                      A
 Frequencies --   3002.5164              3045.1241              3119.7012
 Red. masses --      1.1053                 1.0347                 1.1016
 Frc consts  --      5.8710                 5.6529                 6.3167
 IR Inten    --     43.0246                18.2843                24.2693

                     46                     47                     48
                      A                      A                      A
 Frequencies --   3121.8704              3136.3748              3181.2286
 Red. masses --      1.1026                 1.0874                 1.0871
 Frc consts  --      6.3314                 6.3023                 6.4818
 IR Inten    --     25.7812                13.0432                12.4922

                     49                     50                     51
                      A                      A                      A
 Frequencies --   3196.1870              3208.8962              3218.0244
 Red. masses --      1.1004                 1.0897                 1.0983
 Frc consts  --      6.6232                 6.6110                 6.7014
 IR Inten    --     27.6654                 8.0737                 2.9489

 - Thermochemistry -
 -------------------
 Temperature   298.150 Kelvin.  Pressure   1.00000 Atm.
 Atom     1 has atomic number  6 and mass  12.00000

 Molecular mass:   126.06808 amu.
 Principal axes and moments of inertia in atomic units:
                           1         2         3
     Eigenvalues --   317.487572173.026102219.77026
           X            0.99993   0.01092   0.00447
           Y           -0.01065   0.99834  -0.05664
           Z           -0.00508   0.05659   0.99838
 This molecule is an asymmetric top.
 Rotational symmetry number  1.
 Rotational temperatures (Kelvin)      0.27281     0.03986     0.03902
 Rotational constants (GHZ):           5.68445     0.83052     0.81303
 Zero-point vibrational energy     412831.0 (Joules/Mol)
                                   98.66897 (Kcal/Mol)
 Warning -- explicit consideration of  10 degrees of freedom as
           vibrations may cause significant error
 Vibrational temperatures:     93.44   124.17   175.53   347.20   386.90
          (Kelvin)            466.91   548.54   582.15   708.15   885.04
                             1099.80  1103.41  1139.99  1177.96  1204.99
                             1249.25  1265.02  1301.37  1360.71  1371.91
                             1423.30  1472.37  1500.92  1524.74  1607.57
                             1620.75  1668.04  1707.67  1715.08  1736.46
                             1798.15  1802.87  1813.19  1861.06  1954.32
                             2010.67  2028.43  2081.30  2134.66  2158.25
                             2197.96  4277.47  4319.95  4381.25  4488.55
                             4491.67  4512.54  4577.07  4598.59  4616.88
                             4630.01

 Zero-point correction=                           0.157239 (Hartree/Particle)
 Thermal correction to Energy=                    0.165701
 Thermal correction to Enthalpy=                  0.166645
 Thermal correction to Gibbs Free Energy=         0.123553
 Sum of electronic and zero-point Energies=           -422.928844
 Sum of electronic and thermal Energies=              -422.920381
 Sum of electronic and thermal Enthalpies=            -422.919437
 Sum of electronic and thermal Free Energies=         -422.962530

                     E (Thermal)             CV                S
                      KCal/Mol        Cal/Mol-Kelvin    Cal/Mol-Kelvin
 Total                  103.979             32.008             90.697
 Electronic               0.000              0.000              0.000
 Translational            0.889              2.981             40.409
 Rotational               0.889              2.981             28.817
 Vibrational            102.202             26.046             21.471
 Vibration     1          0.597              1.971              4.301
 Vibration     2          0.601              1.959              3.742
 Vibration     3          0.610              1.931              3.068
 Vibration     4          0.658              1.777              1.793
 Vibration     5          0.673              1.730              1.603
 Vibration     6          0.709              1.626              1.287
 Vibration     7          0.751              1.510              1.034
 Vibration     8          0.770              1.460              0.946
 Vibration     9          0.848              1.267              0.678
 Vibration    10          0.975              1.000              0.424

 Normal termination of Gaussian 09 at Tue Jan 28 14:50:22 2020.
