 Gaussian 09, Revision D.01,
 Gaussian 09:  ES64L-G09RevD.01 24-Apr-2013

 -----------------------------
 # b3lyp 6-31G(2df,p) opt Freq
 -----------------------------

 -----
 titel
 -----
 Symbolic Z-matrix:
 Charge =  0 Multiplicity = 1

 SCF Done:  E(RB3LYP) =  -423.141591572     A.U. after   14 cycles
 Optimization completed.
    -- Stationary point found.
 Normal termination of Gaussian 09 at Mon Jan 27 18:43:55 2020.

 ----------------------------------------------------------------------
 #N Geom=AllCheck Guess=TCheck SCRF=Check GenChk RB3LYP/6-31G(2df,p) Fr
 eq
 ----------------------------------------------------------------------

 Structure from the checkpoint file:  "/scratch/puck/g09_797faddb-4506-4433-9d2c-64cf8e15edaa/Gau-64238.chk"
 -----
 titel
 -----
 Charge =  0 Multiplicity = 1

                         Standard orientation:
 ---------------------------------------------------------------------
 Center     Atomic      Atomic             Coordinates (Angstroms)
 Number     Number       Type             X           Y           Z
 ---------------------------------------------------------------------
      1          6           0        1.509262    1.653037   -0.148739
      2          6           0        0.696976    0.414169    0.173144
      3          6           0        1.442323   -0.852837    0.652992
      4          8           0        0.830785   -1.665315   -0.377135
      5          6           0        0.165349   -0.517769   -0.950917
      6          6           0       -1.352353   -0.389610   -0.667933
      7          6           0       -1.463513   -0.608869    0.851241
      8          6           0       -0.688244    0.726252    0.797229
      9          8           0       -1.441524    1.056287   -0.424976
     10          1           0        0.884492    2.393892   -0.655665
     11          1           0        1.910215    2.109937    0.764100
     12          1           0        2.356149    1.416720   -0.801168
     13          1           0        2.530459   -0.802418    0.523094
     14          1           0        1.219457   -1.219967    1.662351
     15          1           0        0.445823   -0.343827   -1.993420
     16          1           0       -2.071666   -0.766618   -1.393920
     17          1           0       -2.484673   -0.454958    1.199506
     18          1           0       -1.013736   -1.496102    1.295918
     19          1           0       -0.749411    1.489316    1.573983
 ---------------------------------------------------------------------

 SCF Done:  E(RB3LYP) =  -423.141591572     A.U. after    1 cycles

 The electronic state is 1-A.
 Alpha  occ. eigenvalues --  -19.13876 -19.13559 -10.24175 -10.23795 -10.23107
 Alpha  occ. eigenvalues --  -10.23088 -10.19909 -10.18883 -10.17994  -1.05873
 Alpha  occ. eigenvalues --   -1.02893  -0.79418  -0.75140  -0.71041  -0.66946
 Alpha  occ. eigenvalues --   -0.66096  -0.55720  -0.53895  -0.51112  -0.49393
 Alpha  occ. eigenvalues --   -0.46811  -0.44786  -0.42963  -0.41647  -0.40308
 Alpha  occ. eigenvalues --   -0.39372  -0.37946  -0.36012  -0.33440  -0.32401
 Alpha  occ. eigenvalues --   -0.30565  -0.29266  -0.26501  -0.24303
 Alpha virt. eigenvalues --    0.06816   0.09001   0.09792   0.11598   0.12610
 Alpha virt. eigenvalues --    0.13855   0.14379   0.15595   0.15916   0.16717
 Alpha virt. eigenvalues --    0.17099   0.17671   0.18209   0.19018   0.20433

 Mulliken charges:
               1
     1  C   -0.491041
     2  C    0.312955
     3  C   -0.151872
     4  O   -0.302814
     5  C    0.083740
     6  C    0.053338
     7  C   -0.250985
     8  C    0.008996
     9  O   -0.304764
    10  H    0.138264
    11  H    0.114598
    12  H    0.118334
    13  H    0.102215
    14  H    0.099603
    15  H    0.079136
    16  H    0.081280
    17  H    0.112158
    18  H    0.118167
    19  H    0.078692
 Sum of Mulliken charges =   0.00000

 Dipole moment (field-independent basis, Debye):
    X=              0.4955    Y=              0.3954    Z=              1.1056  Tot=              1.2744
 Quadrupole moment (field-independent basis, Debye-Ang):
   XX=            -52.5987   YY=            -58.2315   ZZ=            -50.3705
   XY=              4.2379   XZ=              0.1776   YZ=              0.5344

  Exact polarizability:  79.093   2.463  70.107   1.358   0.096  70.002
 Approx polarizability: 108.604  -1.721 107.499   5.148   1.080 108.328

                      1                      2                      3
                      A                      A                      A
 Frequencies --    194.0542               226.8534               248.9848
 Red. masses --      3.3957                 1.0658                 2.4390
 Frc consts  --      0.0753                 0.0323                 0.0891
 IR Inten    --      2.8110                 0.1644                 0.7625

                      4                      5                      6
                      A                      A                      A
 Frequencies --    281.1805               347.0796               424.4039
 Red. masses --      3.7153                 2.2615                 3.1222
 Frc consts  --      0.1731                 0.1605                 0.3313
 IR Inten    --      7.8804                 0.1491                 3.1503

                      7                      8                      9
                      A                      A                      A
 Frequencies --    501.2144               549.7492               609.0753
 Red. masses --      2.2756                 7.2658                 3.1403
 Frc consts  --      0.3368                 1.2938                 0.6864
 IR Inten    --      1.4816                 6.4660                 1.1104

                     10                     11                     12
                      A                      A                      A
 Frequencies --    679.5498               803.8515               837.5596
 Red. masses --      4.5134                 3.1507                 2.8104
 Frc consts  --      1.2280                 1.1995                 1.1616
 IR Inten    --      4.1607                 4.0895                13.1190

                     13                     14                     15
                      A                      A                      A
 Frequencies --    863.4666               872.1324               906.3909
 Red. masses --      3.2668                 2.7399                 4.0607
 Frc consts  --      1.4350                 1.2279                 1.9656
 IR Inten    --     25.5029                14.4135                10.0476

                     16                     17                     18
                      A                      A                      A
 Frequencies --    912.8336               941.3606               964.6983
 Red. masses --      1.9647                 2.2357                 1.9502
 Frc consts  --      0.9646                 1.1673                 1.0693
 IR Inten    --      0.5494                15.0495                10.5244

                     19                     20                     21
                      A                      A                      A
 Frequencies --    984.2356              1004.7968              1014.0079
 Red. masses --      1.5822                 3.5234                 2.1947
 Frc consts  --      0.9030                 2.0959                 1.3296
 IR Inten    --      9.8148                40.0097                17.2238

                     22                     23                     24
                      A                      A                      A
 Frequencies --   1026.9393              1059.0792              1082.5702
 Red. masses --      2.3121                 2.2921                 1.6455
 Frc consts  --      1.4367                 1.5147                 1.1362
 IR Inten    --     23.2641                22.3285                 1.0982

                     25                     26                     27
                      A                      A                      A
 Frequencies --   1154.7455              1167.0114              1176.7681
 Red. masses --      1.4253                 1.6738                 1.8328
 Frc consts  --      1.1198                 1.3431                 1.4954
 IR Inten    --      2.6844                 4.5367                 6.7483

                     28                     29                     30
                      A                      A                      A
 Frequencies --   1195.9966              1231.6997              1238.5602
 Red. masses --      1.4987                 1.4699                 1.5422
 Frc consts  --      1.2631                 1.3139                 1.3939
 IR Inten    --      3.1951                 5.9837                 1.1871

                     31                     32                     33
                      A                      A                      A
 Frequencies --   1248.8287              1281.3492              1298.0247
 Red. masses --      2.7692                 1.4196                 1.6544
 Frc consts  --      2.5446                 1.3732                 1.6423
 IR Inten    --      3.0242                 3.9875                 2.1189

                     34                     35                     36
                      A                      A                      A
 Frequencies --   1301.3653              1344.5585              1378.3330
 Red. masses --      1.6124                 1.4660                 1.9950
 Frc consts  --      1.6089                 1.5615                 2.2330
 IR Inten    --      0.5021                 5.6621                 0.3274

                     37                     38                     39
                      A                      A                      A
 Frequencies --   1407.9387              1484.7611              1491.0755
 Red. masses --      1.2593                 1.1390                 1.0561
 Frc consts  --      1.4708                 1.4795                 1.3835
 IR Inten    --      3.5025                 5.1848                 3.7099

                     40                     41                     42
                      A                      A                      A
 Frequencies --   1501.8987              1522.8579              3012.7822
 Red. masses --      1.0505                 1.0948                 1.0544
 Frc consts  --      1.3962                 1.4959                 5.6387
 IR Inten    --      4.4955                 1.2432                61.0882

                     43                     44                     45
                      A                      A                      A
 Frequencies --   3026.9387              3057.2719              3073.9843
 Red. masses --      1.0380                 1.1107                 1.0886
 Frc consts  --      5.6034                 6.1168                 6.0606
 IR Inten    --     31.9975                35.6250                31.8543

                     46                     47                     48
                      A                      A                      A
 Frequencies --   3089.6490              3094.2743              3114.8908
 Red. masses --      1.0991                 1.0570                 1.0996
 Frc consts  --      6.1817                 5.9629                 6.2859
 IR Inten    --     24.5888                22.0847                15.3081

                     49                     50                     51
                      A                      A                      A
 Frequencies --   3117.0932              3132.0034              3161.7146
 Red. masses --      1.0905                 1.0925                 1.1105
 Frc consts  --      6.2430                 6.3144                 6.5403
 IR Inten    --     47.2368                35.1181                15.6384

 - Thermochemistry -
 -------------------
 Temperature   298.150 Kelvin.  Pressure   1.00000 Atm.
 Atom     1 has atomic number  6 and mass  12.00000

 Molecular mass:   126.06808 amu.
 Principal axes and moments of inertia in atomic units:
                           1         2         3
     Eigenvalues --   712.16095 884.662991170.64041
           X            0.98230   0.18704  -0.01013
           Y           -0.18723   0.98202  -0.02399
           Z            0.00546   0.02546   0.99966
 This molecule is an asymmetric top.
 Rotational symmetry number  1.
 Warning -- assumption of classical behavior for rotation
           may cause significant error
 Rotational temperatures (Kelvin)      0.12162     0.09791     0.07399
 Rotational constants (GHZ):           2.53418     2.04003     1.54167
 Zero-point vibrational energy     422535.6 (Joules/Mol)
                                  100.98844 (Kcal/Mol)
 Warning -- explicit consideration of   9 degrees of freedom as
           vibrations may cause significant error
 Vibrational temperatures:    279.20   326.39   358.23   404.56   499.37
          (Kelvin)            610.62   721.13   790.97   876.32   977.72
                             1156.56  1205.06  1242.33  1254.80  1304.09
                             1313.36  1354.41  1387.98  1416.09  1445.68
                             1458.93  1477.53  1523.78  1557.58  1661.42
                             1679.07  1693.10  1720.77  1772.14  1782.01
                             1796.78  1843.57  1867.57  1872.37  1934.52
                             1983.11  2025.71  2136.24  2145.32  2160.89
                             2191.05  4334.72  4355.08  4398.73  4422.77
                             4445.31  4451.97  4481.63  4484.80  4506.25
                             4549.00

 Zero-point correction=                           0.160935 (Hartree/Particle)
 Thermal correction to Energy=                    0.167986
 Thermal correction to Enthalpy=                  0.168930
 Thermal correction to Gibbs Free Energy=         0.129941
 Sum of electronic and zero-point Energies=           -422.980656
 Sum of electronic and thermal Energies=              -422.973606
 Sum of electronic and thermal Enthalpies=            -422.972662
 Sum of electronic and thermal Free Energies=         -423.011651

                     E (Thermal)             CV                S
                      KCal/Mol        Cal/Mol-Kelvin    Cal/Mol-Kelvin
 Total                  105.413             29.136             82.059
 Electronic               0.000              0.000              0.000
 Translational            0.889              2.981             40.409
 Rotational               0.889              2.981             28.091
 Vibrational            103.635             23.175             13.560
 Vibration     1          0.635              1.848              2.189
 Vibration     2          0.651              1.800              1.904
 Vibration     3          0.662              1.764              1.738
 Vibration     4          0.681              1.708              1.526
 Vibration     5          0.725              1.581              1.179
 Vibration     6          0.786              1.417              0.877
 Vibration     7          0.857              1.247              0.655
 Vibration     8          0.905              1.140              0.545
 Vibration     9          0.968              1.013              0.434

 Optimization completed.
    -- Stationary point found.
 Normal termination of Gaussian 09 at Mon Jan 27 19:30:04 2020.
